<event>
 7    1  0.4011333E-009  0.4778727E+02  0.7816164E-02  0.1312668E+00
        -11   -1    0    0    0    0  0.00000000000E+00  0.00000000000E+00  0.45593999997E+02  0.45594000000E+02  0.51100000000E-03 0.  1.
         11   -1    0    0    0    0 -0.00000000000E+00 -0.00000000000E+00 -0.45593999997E+02  0.45594000000E+02  0.51100000000E-03 0. -1.
    9900012    2    1    2    0    0  0.34042304594E+02  0.64533507306E+01 -0.26136166331E+02  0.47787269267E+02  0.19999991894E+02 0.  0.
        -12    1    1    2    0    0 -0.34042304594E+02 -0.64533507306E+01  0.26136166331E+02  0.43400730733E+02  0.00000000000E+00 0.  1.
         11    1    3    3    0    0  0.13222239936E+02 -0.25671440234E+01 -0.77676272393E+01  0.15548436916E+02  0.51100000000E-03 0. -1.
        -11    1    3    3    0    0  0.13467168462E+02  0.21668550794E+01 -0.31483555611E+01  0.13999001047E+02  0.51100000000E-03 0.  1.
         12    1    3    3    0    0  0.73528961965E+01  0.68536396746E+01 -0.15220183531E+02  0.18239831303E+02  0.00000000000E+00 0. -1.
</event>
<event>
 7    1  0.4011333E-009  0.4778727E+02  0.7816164E-02  0.1312668E+00
        -11   -1    0    0    0    0  0.00000000000E+00  0.00000000000E+00  0.45593999997E+02  0.45594000000E+02  0.51100000000E-03 0.  1.
         11   -1    0    0    0    0 -0.00000000000E+00 -0.00000000000E+00 -0.45593999997E+02  0.45594000000E+02  0.51100000000E-03 0. -1.
    9900012    2    1    2    0    0 -0.21864239974E+02  0.28511078499E+02 -0.24345367165E+02  0.47787268564E+02  0.19999988689E+02 0.  0.
        -12    1    1    2    0    0  0.21864239974E+02 -0.28511078499E+02  0.24345367165E+02  0.43400731436E+02  0.00000000000E+00 0.  1.
         11    1    3    3    0    0 -0.76578672922E+01  0.70648118375E+01 -0.13663057410E+02  0.17182364093E+02  0.51100000000E-03 0. -1.
        -11    1    3    3    0    0 -0.77990912502E+00 -0.12401850030E+01 -0.26816728555E+01  0.30557628589E+01  0.51100000000E-03 0.  1.
         12    1    3    3    0    0 -0.13426463557E+02  0.22686451665E+02 -0.80006368992E+01  0.27549141612E+02  0.00000000000E+00 0. -1.
</event>
<event>
 7    1  0.4011333E-009  0.4778730E+02  0.7816164E-02  0.1312668E+00
        -11   -1    0    0    0    0  0.00000000000E+00  0.00000000000E+00  0.45593999997E+02  0.45594000000E+02  0.51100000000E-03 0. -1.
         11   -1    0    0    0    0 -0.00000000000E+00 -0.00000000000E+00 -0.45593999997E+02  0.45594000000E+02  0.51100000000E-03 0.  1.
    9900012    2    1    2    0    0 -0.29859279015E+02 -0.13727115692E+02  0.28348019404E+02  0.47787303547E+02  0.20000148191E+02 0.  0.
        -12    1    1    2    0    0  0.29859279015E+02  0.13727115692E+02 -0.28348019404E+02  0.43400696453E+02  0.00000000000E+00 0.  1.
         11    1    3    3    0    0 -0.69071355603E+01  0.14939600791E+01  0.85820175719E+01  0.11117169794E+02  0.51100000000E-03 0. -1.
        -11    1    3    3    0    0 -0.91457556167E+01 -0.23715767196E+01  0.13820134149E+00  0.94492498014E+01  0.51100000000E-03 0.  1.
        -12    1    3    3    0    0 -0.13806387838E+02 -0.12849499051E+02  0.19627800490E+02  0.27220883951E+02  0.00000000000E+00 0.  1.
</event>
<event>
 7    1  0.4011333E-009  0.4778724E+02  0.7816164E-02  0.1312668E+00
        -11   -1    0    0    0    0  0.00000000000E+00  0.00000000000E+00  0.45593999997E+02  0.45594000000E+02  0.51100000000E-03 0.  1.
         11   -1    0    0    0    0 -0.00000000000E+00 -0.00000000000E+00 -0.45593999997E+02  0.45594000000E+02  0.51100000000E-03 0. -1.
    9900012    2    1    2    0    0 -0.37088418447E+02 -0.11157096406E+02 -0.19585573413E+02  0.47787236539E+02  0.19999842673E+02 0.  0.
        -12    1    1    2    0    0  0.37088418447E+02  0.11157096406E+02  0.19585573413E+02  0.43400763461E+02  0.00000000000E+00 0.  1.
         11    1    3    3    0    0 -0.59227794209E+01 -0.15035644445E+01 -0.95783861577E+01  0.11361580161E+02  0.51100000000E-03 0. -1.
        -11    1    3    3    0    0 -0.52580706165E+01 -0.63121253180E+01 -0.55797483686E+01  0.99309528624E+01  0.51100000000E-03 0.  1.
        -12    1    3    3    0    0 -0.25907568410E+02 -0.33414066433E+01 -0.44274388869E+01  0.26494703515E+02  0.00000000000E+00 0.  1.
</event>
<event>
 7    1  0.4011333E-009  0.4778727E+02  0.7816164E-02  0.1312668E+00
        -11   -1    0    0    0    0  0.00000000000E+00  0.00000000000E+00  0.45593999997E+02  0.45594000000E+02  0.51100000000E-03 0.  1.
         11   -1    0    0    0    0 -0.00000000000E+00 -0.00000000000E+00 -0.45593999997E+02  0.45594000000E+02  0.51100000000E-03 0. -1.
    9900012    2    1    2    0    0  0.40859710240E+02 -0.13215276510E+02 -0.62820014417E+01  0.47787274243E+02  0.20000014582E+02 0.  0.
        -12    1    1    2    0    0 -0.40859710240E+02  0.13215276510E+02  0.62820014417E+01  0.43400725757E+02  0.00000000000E+00 0.  1.
         11    1    3    3    0    0  0.16732278575E+02 -0.93224888869E+01 -0.58180878317E+01  0.20018194016E+02  0.51100000000E-03 0. -1.
        -11    1    3    3    0    0  0.88972486996E+01 -0.71353163849E+01  0.30504663801E+01  0.11805893432E+02  0.51100000000E-03 0.  1.
        -12    1    3    3    0    0  0.15230182965E+02  0.32425287622E+01 -0.35143799902E+01  0.15963186795E+02  0.00000000000E+00 0.  1.
</event>
<event>
 7    1  0.4011333E-009  0.4778727E+02  0.7816164E-02  0.1312668E+00
        -11   -1    0    0    0    0  0.00000000000E+00  0.00000000000E+00  0.45593999997E+02  0.45594000000E+02  0.51100000000E-03 0. -1.
         11   -1    0    0    0    0 -0.00000000000E+00 -0.00000000000E+00 -0.45593999997E+02  0.45594000000E+02  0.51100000000E-03 0.  1.
    9900012    2    1    2    0    0 -0.76280462488E+01  0.60016415157E+01  0.42301494083E+02  0.47787271987E+02  0.20000004296E+02 0.  0.
        -12    1    1    2    0    0  0.76280462488E+01 -0.60016415157E+01 -0.42301494083E+02  0.43400728013E+02  0.00000000000E+00 0.  1.
         11    1    3    3    0    0  0.14877020645E+01 -0.59521937273E+00  0.15343959444E+02  0.15427398848E+02  0.51100000000E-03 0. -1.
        -11    1    3    3    0    0  0.37389590508E+01  0.17122759719E+01  0.53558808353E+01  0.67525671837E+01  0.51100000000E-03 0.  1.
         12    1    3    3    0    0 -0.12854707364E+02  0.48845849165E+01  0.21601653804E+02  0.25607305955E+02  0.00000000000E+00 0. -1.
</event>
<event>
 7    1  0.4011333E-009  0.4778727E+02  0.7816164E-02  0.1312668E+00
        -11   -1    0    0    0    0  0.00000000000E+00  0.00000000000E+00  0.45593999997E+02  0.45594000000E+02  0.51100000000E-03 0.  1.
         11   -1    0    0    0    0 -0.00000000000E+00 -0.00000000000E+00 -0.45593999997E+02  0.45594000000E+02  0.51100000000E-03 0. -1.
    9900012    2    1    2    0    0  0.63218996614E+01  0.42409952532E+02 -0.67121304637E+01  0.47787272075E+02  0.20000004698E+02 0.  0.
        -12    1    1    2    0    0 -0.63218996614E+01 -0.42409952532E+02  0.67121304637E+01  0.43400727925E+02  0.00000000000E+00 0.  1.
         11    1    3    3    0    0 -0.28367936156E+01  0.32762102974E+01 -0.23462667119E+01  0.49280746418E+01  0.51100000000E-03 0. -1.
        -11    1    3    3    0    0 -0.24937854521E+01  0.99984693986E+01 -0.50435715483E+01  0.11472836198E+02  0.51100000000E-03 0.  1.
         12    1    3    3    0    0  0.11652478729E+02  0.29135272836E+02  0.67770779643E+00  0.31386361235E+02  0.00000000000E+00 0. -1.
</event>
<event>
 7    1  0.4011333E-009  0.4778727E+02  0.7816164E-02  0.1312668E+00
        -11   -1    0    0    0    0  0.00000000000E+00  0.00000000000E+00  0.45593999997E+02  0.45594000000E+02  0.51100000000E-03 0. -1.
         11   -1    0    0    0    0 -0.00000000000E+00 -0.00000000000E+00 -0.45593999997E+02  0.45594000000E+02  0.51100000000E-03 0.  1.
    9900012    2    1    2    0    0 -0.14516003662E+02 -0.39799260815E+02  0.94301526368E+01  0.47787270715E+02  0.19999998499E+02 0.  0.
        -12    1    1    2    0    0  0.14516003662E+02  0.39799260815E+02 -0.94301526368E+01  0.43400729285E+02  0.00000000000E+00 0.  1.
         11    1    3    3    0    0  0.25287707487E+01 -0.25371328570E+01  0.46889480117E+01  0.59006743980E+01  0.51100000000E-03 0. -1.
        -11    1    3    3    0    0 -0.18048967289E+00 -0.32665903105E+01  0.20101812753E+01  0.38397939788E+01  0.51100000000E-03 0.  1.
        -12    1    3    3    0    0 -0.16864284738E+02 -0.33995537647E+02  0.27310233498E+01  0.38046802338E+02  0.00000000000E+00 0.  1.
</event>
<event>
 7    1  0.4011333E-009  0.4778727E+02  0.7816164E-02  0.1312668E+00
        -11   -1    0    0    0    0  0.00000000000E+00  0.00000000000E+00  0.45593999997E+02  0.45594000000E+02  0.51100000000E-03 0. -1.
         11   -1    0    0    0    0 -0.00000000000E+00 -0.00000000000E+00 -0.45593999997E+02  0.45594000000E+02  0.51100000000E-03 0.  1.
    9900012    2    1    2    0    0 -0.29182216881E+02 -0.29730531522E+02  0.12170328578E+02  0.47787272076E+02  0.20000004703E+02 0.  0.
        -12    1    1    2    0    0  0.29182216881E+02  0.29730531522E+02 -0.12170328578E+02  0.43400727924E+02  0.00000000000E+00 0.  1.
         11    1    3    3    0    0 -0.15168684560E+01 -0.36304995472E+01  0.40513190849E+01  0.56475307404E+01  0.51100000000E-03 0. -1.
        -11    1    3    3    0    0 -0.39221627267E+01 -0.63508015402E+00 -0.36423828219E+01  0.53901428682E+01  0.51100000000E-03 0.  1.
         12    1    3    3    0    0 -0.23743185698E+02 -0.25464951821E+02  0.11761392315E+02  0.36749598467E+02  0.00000000000E+00 0. -1.
</event>
<event>
 7    1  0.4011333E-009  0.4778727E+02  0.7816164E-02  0.1312668E+00
        -11   -1    0    0    0    0  0.00000000000E+00  0.00000000000E+00  0.45593999997E+02  0.45594000000E+02  0.51100000000E-03 0. -1.
         11   -1    0    0    0    0 -0.00000000000E+00 -0.00000000000E+00 -0.45593999997E+02  0.45594000000E+02  0.51100000000E-03 0.  1.
    9900012    2    1    2    0    0 -0.10445252174E+02  0.32772559417E+02  0.26466569599E+02  0.47787271319E+02  0.20000001252E+02 0.  0.
        -12    1    1    2    0    0  0.10445252174E+02 -0.32772559417E+02 -0.26466569599E+02  0.43400728681E+02  0.00000000000E+00 0.  1.
         11    1    3    3    0    0 -0.50391692426E+01  0.14400782296E+02  0.13747603597E+02  0.20537097222E+02  0.51100000000E-03 0. -1.
        -11    1    3    3    0    0 -0.24195084651E+01  0.19879333896E+02  0.82288897185E+01  0.21650786674E+02  0.51100000000E-03 0.  1.
        -12    1    3    3    0    0 -0.29865744663E+01 -0.15075567753E+01  0.44900762838E+01  0.55993874225E+01  0.00000000000E+00 0.  1.
</event>
<event>
 7    1  0.4011333E-009  0.4778728E+02  0.7816164E-02  0.1312668E+00
        -11   -1    0    0    0    0  0.00000000000E+00  0.00000000000E+00  0.45593999997E+02  0.45594000000E+02  0.51100000000E-03 0. -1.
         11   -1    0    0    0    0 -0.00000000000E+00 -0.00000000000E+00 -0.45593999997E+02  0.45594000000E+02  0.51100000000E-03 0.  1.
    9900012    2    1    2    0    0  0.27133292800E+02  0.33710799632E+02 -0.33149316443E+01  0.47787281553E+02  0.20000047911E+02 0.  0.
        -12    1    1    2    0    0 -0.27133292800E+02 -0.33710799632E+02  0.33149316443E+01  0.43400718447E+02  0.00000000000E+00 0.  1.
         11    1    3    3    0    0  0.17087112894E+02  0.26810229823E+02  0.30075120569E+01  0.31934354217E+02  0.51100000000E-03 0. -1.
        -11    1    3    3    0    0  0.87270994711E-01  0.40835844530E+01 -0.26602823997E+01  0.48744621158E+01  0.51100000000E-03 0.  1.
        -12    1    3    3    0    0  0.99589089107E+01  0.28169853557E+01 -0.36621613015E+01  0.10978465220E+02  0.00000000000E+00 0.  1.
</event>
<event>
 7    1  0.4011333E-009  0.4778729E+02  0.7816164E-02  0.1312668E+00
        -11   -1    0    0    0    0  0.00000000000E+00  0.00000000000E+00  0.45593999997E+02  0.45594000000E+02  0.51100000000E-03 0.  1.
         11   -1    0    0    0    0 -0.00000000000E+00 -0.00000000000E+00 -0.45593999997E+02  0.45594000000E+02  0.51100000000E-03 0. -1.
    9900012    2    1    2    0    0 -0.20642200270E+02  0.12377157566E+02 -0.36115474627E+02  0.47787286078E+02  0.20000068546E+02 0.  0.
        -12    1    1    2    0    0  0.20642200270E+02 -0.12377157566E+02  0.36115474627E+02  0.43400713922E+02  0.00000000000E+00 0.  1.
         11    1    3    3    0    0  0.10401732671E+00  0.97909686183E+00 -0.95380878325E+01  0.95887731243E+01  0.51100000000E-03 0. -1.
        -11    1    3    3    0    0  0.15437098721E+01 -0.64054631048E+00 -0.29963342884E+00  0.16979753231E+01  0.51100000000E-03 0.  1.
         12    1    3    3    0    0 -0.22289927469E+02  0.12038607015E+02 -0.26277753365E+02  0.36500537631E+02  0.00000000000E+00 0. -1.
</event>
<event>
 7    1  0.4011333E-009  0.4778727E+02  0.7816164E-02  0.1312668E+00
        -11   -1    0    0    0    0  0.00000000000E+00  0.00000000000E+00  0.45593999997E+02  0.45594000000E+02  0.51100000000E-03 0.  1.
         11   -1    0    0    0    0 -0.00000000000E+00 -0.00000000000E+00 -0.45593999997E+02  0.45594000000E+02  0.51100000000E-03 0. -1.
    9900012    2    1    2    0    0  0.15679872085E+02  0.25577075871E+02 -0.31362047561E+02  0.47787271597E+02  0.20000002518E+02 0.  0.
        -12    1    1    2    0    0 -0.15679872085E+02 -0.25577075871E+02  0.31362047561E+02  0.43400728403E+02  0.00000000000E+00 0.  1.
         11    1    3    3    0    0  0.85938361391E+01  0.20259646171E+02 -0.16729790734E+02  0.27644044220E+02  0.51100000000E-03 0. -1.
        -11    1    3    3    0    0  0.22921138241E+01  0.27563176150E+01  0.89273456271E+00  0.36943264390E+01  0.51100000000E-03 0.  1.
         12    1    3    3    0    0  0.47939221220E+01  0.25611120848E+01 -0.15524991389E+02  0.16448900937E+02  0.00000000000E+00 0. -1.
</event>
<event>
 7    1  0.4011333E-009  0.4778727E+02  0.7816164E-02  0.1312668E+00
        -11   -1    0    0    0    0  0.00000000000E+00  0.00000000000E+00  0.45593999997E+02  0.45594000000E+02  0.51100000000E-03 0.  1.
         11   -1    0    0    0    0 -0.00000000000E+00 -0.00000000000E+00 -0.45593999997E+02  0.45594000000E+02  0.51100000000E-03 0. -1.
    9900012    2    1    2    0    0  0.12451576351E+02 -0.38354341209E+02 -0.16047618928E+02  0.47787270554E+02  0.19999997764E+02 0.  0.
        -12    1    1    2    0    0 -0.12451576351E+02  0.38354341209E+02  0.16047618928E+02  0.43400729446E+02  0.00000000000E+00 0.  1.
         11    1    3    3    0    0  0.21224224861E+01 -0.13416457726E+02 -0.91301299671E+01  0.16366590622E+02  0.51100000000E-03 0. -1.
        -11    1    3    3    0    0  0.10111160591E+02 -0.17676401741E+02 -0.10940096415E+02  0.23116584022E+02  0.51100000000E-03 0.  1.
         12    1    3    3    0    0  0.21799327339E+00 -0.72614817417E+01  0.40226074537E+01  0.83040959098E+01  0.00000000000E+00 0. -1.
</event>
<event>
 7    1  0.4011333E-009  0.4778727E+02  0.7816164E-02  0.1312668E+00
        -11   -1    0    0    0    0  0.00000000000E+00  0.00000000000E+00  0.45593999997E+02  0.45594000000E+02  0.51100000000E-03 0. -1.
         11   -1    0    0    0    0 -0.00000000000E+00 -0.00000000000E+00 -0.45593999997E+02  0.45594000000E+02  0.51100000000E-03 0.  1.
    9900012    2    1    2    0    0 -0.51030900683E+01 -0.32445009024E+01  0.42977377961E+02  0.47787270389E+02  0.19999997012E+02 0.  0.
        -12    1    1    2    0    0  0.51030900683E+01  0.32445009024E+01 -0.42977377961E+02  0.43400729611E+02  0.00000000000E+00 0.  1.
         11    1    3    3    0    0  0.31718149110E+01  0.32501233067E+00  0.14588112763E+01  0.35063048136E+01  0.51100000000E-03 0. -1.
        -11    1    3    3    0    0 -0.19703797635E+01  0.42898728559E+01  0.19553133710E+02  0.20114930864E+02  0.51100000000E-03 0.  1.
         12    1    3    3    0    0 -0.63045252158E+01 -0.78593860889E+01  0.21965432975E+02  0.24166034711E+02  0.00000000000E+00 0. -1.
</event>
<event>
 7    1  0.4011333E-009  0.4778727E+02  0.7816164E-02  0.1312668E+00
        -11   -1    0    0    0    0  0.00000000000E+00  0.00000000000E+00  0.45593999997E+02  0.45594000000E+02  0.51100000000E-03 0.  1.
         11   -1    0    0    0    0 -0.00000000000E+00 -0.00000000000E+00 -0.45593999997E+02  0.45594000000E+02  0.51100000000E-03 0. -1.
    9900012    2    1    2    0    0 -0.92217995783E+00 -0.21382984310E+02 -0.37756332193E+02  0.47787273571E+02  0.20000011520E+02 0.  0.
        -12    1    1    2    0    0  0.92217995783E+00  0.21382984310E+02  0.37756332193E+02  0.43400726429E+02  0.00000000000E+00 0.  1.
         11    1    3    3    0    0  0.35810394833E+01 -0.15284160398E+01 -0.76105062204E+01  0.85486668296E+01  0.51100000000E-03 0. -1.
        -11    1    3    3    0    0  0.98014151712E+00  0.18258010271E+01 -0.55021344207E+00  0.21440526759E+01  0.51100000000E-03 0.  1.
        -12    1    3    3    0    0 -0.54833609583E+01 -0.21680369297E+02 -0.29595612531E+02  0.37094554066E+02  0.00000000000E+00 0.  1.
</event>
<event>
 7    1  0.4011333E-009  0.4778727E+02  0.7816164E-02  0.1312668E+00
        -11   -1    0    0    0    0  0.00000000000E+00  0.00000000000E+00  0.45593999997E+02  0.45594000000E+02  0.51100000000E-03 0.  1.
         11   -1    0    0    0    0 -0.00000000000E+00 -0.00000000000E+00 -0.45593999997E+02  0.45594000000E+02  0.51100000000E-03 0. -1.
    9900012    2    1    2    0    0  0.28929085939E+01  0.42326489304E+02 -0.91499948952E+01  0.47787273929E+02  0.20000013151E+02 0.  0.
        -12    1    1    2    0    0 -0.28929085939E+01 -0.42326489304E+02  0.91499948952E+01  0.43400726071E+02  0.00000000000E+00 0.  1.
         11    1    3    3    0    0  0.96958553352E+01  0.26019549970E+02 -0.84575909614E+01  0.29026839932E+02  0.51100000000E-03 0. -1.
        -11    1    3    3    0    0 -0.26319489839E+00 -0.51523683539E+00 -0.41081105684E+00  0.70958194496E+00  0.51100000000E-03 0.  1.
        -12    1    3    3    0    0 -0.65397518430E+01  0.16822176170E+02 -0.28159287698E+00  0.18050852052E+02  0.00000000000E+00 0.  1.
</event>
<event>
 7    1  0.4011333E-009  0.4778727E+02  0.7816164E-02  0.1312668E+00
        -11   -1    0    0    0    0  0.00000000000E+00  0.00000000000E+00  0.45593999997E+02  0.45594000000E+02  0.51100000000E-03 0. -1.
         11   -1    0    0    0    0 -0.00000000000E+00 -0.00000000000E+00 -0.45593999997E+02  0.45594000000E+02  0.51100000000E-03 0.  1.
    9900012    2    1    2    0    0 -0.42523064333E+02 -0.81381702052E+01  0.30302740946E+01  0.47787269872E+02  0.19999994654E+02 0.  0.
        -12    1    1    2    0    0  0.42523064333E+02  0.81381702052E+01 -0.30302740946E+01  0.43400730128E+02  0.00000000000E+00 0.  1.
         11    1    3    3    0    0 -0.76776198886E+01 -0.65159741599E+01  0.16225039306E+01  0.10199817923E+02  0.51100000000E-03 0. -1.
        -11    1    3    3    0    0 -0.24295694788E+02 -0.73599471791E+01  0.26024193255E+01  0.25519055513E+02  0.51100000000E-03 0.  1.
        -12    1    3    3    0    0 -0.10549749657E+02  0.57377511338E+01 -0.11946491614E+01  0.12068396435E+02  0.00000000000E+00 0.  1.
</event>
<event>
 7    1  0.4011333E-009  0.4778727E+02  0.7816164E-02  0.1312668E+00
        -11   -1    0    0    0    0  0.00000000000E+00  0.00000000000E+00  0.45593999997E+02  0.45594000000E+02  0.51100000000E-03 0. -1.
         11   -1    0    0    0    0 -0.00000000000E+00 -0.00000000000E+00 -0.45593999997E+02  0.45594000000E+02  0.51100000000E-03 0.  1.
    9900012    2    1    2    0    0  0.32919441891E+01 -0.30816167444E+02  0.30383383944E+02  0.47787273135E+02  0.20000009531E+02 0.  0.
        -12    1    1    2    0    0 -0.32919441891E+01  0.30816167444E+02 -0.30383383944E+02  0.43400726865E+02  0.00000000000E+00 0.  1.
         11    1    3    3    0    0 -0.39662384252E+01 -0.14335272423E+02  0.23274704101E+02  0.27621421650E+02  0.51100000000E-03 0. -1.
        -11    1    3    3    0    0  0.62750487294E+01 -0.10331604643E+02  0.69350636511E+01  0.13936046755E+02  0.51100000000E-03 0.  1.
        -12    1    3    3    0    0  0.98313388491E+00 -0.61492903786E+01  0.17361619215E+00  0.62298047303E+01  0.00000000000E+00 0.  1.
</event>
<event>
 7    1  0.4011333E-009  0.4778727E+02  0.7816164E-02  0.1312668E+00
        -11   -1    0    0    0    0  0.00000000000E+00  0.00000000000E+00  0.45593999997E+02  0.45594000000E+02  0.51100000000E-03 0.  1.
         11   -1    0    0    0    0 -0.00000000000E+00 -0.00000000000E+00 -0.45593999997E+02  0.45594000000E+02  0.51100000000E-03 0. -1.
    9900012    2    1    2    0    0 -0.32199710818E+02  0.26237777797E+02 -0.12584934368E+02  0.47787274965E+02  0.20000017877E+02 0.  0.
        -12    1    1    2    0    0  0.32199710818E+02 -0.26237777797E+02  0.12584934368E+02  0.43400725035E+02  0.00000000000E+00 0.  1.
         11    1    3    3    0    0 -0.11386967476E+02  0.99430621367E+00 -0.82453321530E+00  0.11459996878E+02  0.51100000000E-03 0. -1.
        -11    1    3    3    0    0 -0.20321646369E+01  0.46364066274E+01  0.17355398668E+01  0.53514538601E+01  0.51100000000E-03 0.  1.
        -12    1    3    3    0    0 -0.18780578705E+02  0.20607064956E+02 -0.13495941019E+02  0.30975824227E+02  0.00000000000E+00 0.  1.
</event>
<event>
 7    1  0.4011333E-009  0.4778727E+02  0.7816164E-02  0.1312668E+00
        -11   -1    0    0    0    0  0.00000000000E+00  0.00000000000E+00  0.45593999997E+02  0.45594000000E+02  0.51100000000E-03 0.  1.
         11   -1    0    0    0    0 -0.00000000000E+00 -0.00000000000E+00 -0.45593999997E+02  0.45594000000E+02  0.51100000000E-03 0. -1.
    9900012    2    1    2    0    0 -0.78991320030E+01  0.34802586229E+02 -0.24698314813E+02  0.47787273632E+02  0.20000011799E+02 0.  0.
        -12    1    1    2    0    0  0.78991320030E+01 -0.34802586229E+02  0.24698314813E+02  0.43400726368E+02  0.00000000000E+00 0.  1.
         11    1    3    3    0    0 -0.90427563352E+01  0.97707754132E+01 -0.58158496565E+01  0.14528028146E+02  0.51100000000E-03 0. -1.
        -11    1    3    3    0    0 -0.18438936088E+01  0.56267308544E+01  0.13858352377E+00  0.59227737930E+01  0.51100000000E-03 0.  1.
        -12    1    3    3    0    0  0.29875179410E+01  0.19405079961E+02 -0.19021048681E+02  0.27336471694E+02  0.00000000000E+00 0.  1.
</event>
<event>
 7    1  0.4011333E-009  0.4778727E+02  0.7816164E-02  0.1312668E+00
        -11   -1    0    0    0    0  0.00000000000E+00  0.00000000000E+00  0.45593999997E+02  0.45594000000E+02  0.51100000000E-03 0.  1.
         11   -1    0    0    0    0 -0.00000000000E+00 -0.00000000000E+00 -0.45593999997E+02  0.45594000000E+02  0.51100000000E-03 0. -1.
    9900012    2    1    2    0    0  0.11025069273E+02 -0.18115302337E+02 -0.37866964978E+02  0.47787269961E+02  0.19999995060E+02 0.  0.
        -12    1    1    2    0    0 -0.11025069273E+02  0.18115302337E+02  0.37866964978E+02  0.43400730039E+02  0.00000000000E+00 0.  1.
         11    1    3    3    0    0  0.15365415236E+01  0.10109658216E+01 -0.12680409390E+01  0.22340411433E+01  0.51100000000E-03 0. -1.
        -11    1    3    3    0    0  0.41628815759E+01 -0.19972715345E+02 -0.33793714982E+02  0.39474727533E+02  0.51100000000E-03 0.  1.
        -12    1    3    3    0    0  0.53256461739E+01  0.84644718655E+00 -0.28052090580E+01  0.60785012847E+01  0.00000000000E+00 0.  1.
</event>
<event>
 7    1  0.4011333E-009  0.4778727E+02  0.7816164E-02  0.1312668E+00
        -11   -1    0    0    0    0  0.00000000000E+00  0.00000000000E+00  0.45593999997E+02  0.45594000000E+02  0.51100000000E-03 0. -1.
         11   -1    0    0    0    0 -0.00000000000E+00 -0.00000000000E+00 -0.45593999997E+02  0.45594000000E+02  0.51100000000E-03 0.  1.
    9900012    2    1    2    0    0  0.37071078749E+02  0.22269381772E+02  0.36650877343E+01  0.47787272907E+02  0.20000008491E+02 0.  0.
        -12    1    1    2    0    0 -0.37071078749E+02 -0.22269381772E+02 -0.36650877343E+01  0.43400727093E+02  0.00000000000E+00 0.  1.
         11    1    3    3    0    0  0.23372111324E+02  0.17762630174E+02  0.70286689591E+01  0.30185572813E+02  0.51100000000E-03 0. -1.
        -11    1    3    3    0    0  0.13602814879E+02  0.19928506928E+01 -0.45426095254E+00  0.13755521793E+02  0.51100000000E-03 0.  1.
         12    1    3    3    0    0  0.96152545597E-01  0.25139009058E+01 -0.29093202722E+01  0.38461783009E+01  0.00000000000E+00 0. -1.
</event>
<event>
 7    1  0.4011333E-009  0.4778727E+02  0.7816164E-02  0.1312668E+00
        -11   -1    0    0    0    0  0.00000000000E+00  0.00000000000E+00  0.45593999997E+02  0.45594000000E+02  0.51100000000E-03 0.  1.
         11   -1    0    0    0    0 -0.00000000000E+00 -0.00000000000E+00 -0.45593999997E+02  0.45594000000E+02  0.51100000000E-03 0. -1.
    9900012    2    1    2    0    0  0.18858997914E+02  0.13512646274E+02 -0.36679284169E+02  0.47787270757E+02  0.19999998689E+02 0.  0.
        -12    1    1    2    0    0 -0.18858997914E+02 -0.13512646274E+02  0.36679284169E+02  0.43400729243E+02  0.00000000000E+00 0.  1.
         11    1    3    3    0    0  0.28835516462E+01  0.70402242352E+01 -0.59662744989E+01  0.96683017659E+01  0.51100000000E-03 0. -1.
        -11    1    3    3    0    0  0.55318286345E+01  0.10041679398E+02 -0.14076698341E+02  0.18154610698E+02  0.51100000000E-03 0.  1.
        -12    1    3    3    0    0  0.10443617633E+02 -0.35692573592E+01 -0.16636311330E+02  0.19964358293E+02  0.00000000000E+00 0.  1.
</event>
<event>
 7    1  0.4011333E-009  0.4778727E+02  0.7816164E-02  0.1312668E+00
        -11   -1    0    0    0    0  0.00000000000E+00  0.00000000000E+00  0.45593999997E+02  0.45594000000E+02  0.51100000000E-03 0.  1.
         11   -1    0    0    0    0 -0.00000000000E+00 -0.00000000000E+00 -0.45593999997E+02  0.45594000000E+02  0.51100000000E-03 0. -1.
    9900012    2    1    2    0    0  0.32082072219E+02 -0.23929695865E+02 -0.16784925948E+02  0.47787269118E+02  0.19999991216E+02 0.  0.
        -12    1    1    2    0    0 -0.32082072219E+02  0.23929695865E+02  0.16784925948E+02  0.43400730882E+02  0.00000000000E+00 0.  1.
         11    1    3    3    0    0  0.43635610065E+01 -0.32607567854E+01  0.13202341677E+01  0.56050172158E+01  0.51100000000E-03 0.  1.
        -11    1    3    3    0    0  0.23540158064E+02 -0.12814043565E+02 -0.65354019034E+01  0.27587138896E+02  0.51100000000E-03 0. -1.
         12    1    3    3    0    0  0.41783531483E+01 -0.78548955149E+01 -0.11569758212E+02  0.14595113006E+02  0.00000000000E+00 0. -1.
</event>
<event>
 7    1  0.4011333E-009  0.4778726E+02  0.7816164E-02  0.1312668E+00
        -11   -1    0    0    0    0  0.00000000000E+00  0.00000000000E+00  0.45593999997E+02  0.45594000000E+02  0.51100000000E-03 0.  1.
         11   -1    0    0    0    0 -0.00000000000E+00 -0.00000000000E+00 -0.45593999997E+02  0.45594000000E+02  0.51100000000E-03 0. -1.
    9900012    2    1    2    0    0 -0.28600147758E+02  0.77414494369E+01 -0.31713174251E+02  0.47787263690E+02  0.19999966470E+02 0.  0.
        -12    1    1    2    0    0  0.28600147758E+02 -0.77414494369E+01  0.31713174251E+02  0.43400736310E+02  0.00000000000E+00 0.  1.
         11    1    3    3    0    0 -0.96705127562E+01  0.66097593557E+01 -0.51881912175E+01  0.12811130476E+02  0.51100000000E-03 0. -1.
        -11    1    3    3    0    0 -0.19165295178E+01  0.49919613708E+01 -0.59046373161E+01  0.79660219568E+01  0.51100000000E-03 0.  1.
         12    1    3    3    0    0 -0.17013105484E+02 -0.38602712897E+01 -0.20620345717E+02  0.27010111257E+02  0.00000000000E+00 0. -1.
</event>
<event>
 7    1  0.4011333E-009  0.4778725E+02  0.7816164E-02  0.1312668E+00
        -11   -1    0    0    0    0  0.00000000000E+00  0.00000000000E+00  0.45593999997E+02  0.45594000000E+02  0.51100000000E-03 0.  1.
         11   -1    0    0    0    0 -0.00000000000E+00 -0.00000000000E+00 -0.45593999997E+02  0.45594000000E+02  0.51100000000E-03 0. -1.
    9900012    2    1    2    0    0  0.42063710361E+01  0.15204449412E+02 -0.40432122671E+02  0.47787246747E+02  0.19999889219E+02 0.  0.
        -12    1    1    2    0    0 -0.42063710361E+01 -0.15204449412E+02  0.40432122671E+02  0.43400753253E+02  0.00000000000E+00 0.  1.
         11    1    3    3    0    0  0.24373353718E+01 -0.70395256964E+00 -0.35134912262E+01  0.43336790136E+01  0.51100000000E-03 0. -1.
        -11    1    3    3    0    0  0.49823481295E+01  0.43170210771E+01 -0.25976291402E+01  0.70857703374E+01  0.51100000000E-03 0.  1.
         12    1    3    3    0    0 -0.32133124651E+01  0.11591380905E+02 -0.34321002304E+02  0.36367797396E+02  0.00000000000E+00 0. -1.
</event>
<event>
 7    1  0.4011333E-009  0.4778727E+02  0.7816164E-02  0.1312668E+00
        -11   -1    0    0    0    0  0.00000000000E+00  0.00000000000E+00  0.45593999997E+02  0.45594000000E+02  0.51100000000E-03 0.  1.
         11   -1    0    0    0    0 -0.00000000000E+00 -0.00000000000E+00 -0.45593999997E+02  0.45594000000E+02  0.51100000000E-03 0. -1.
    9900012    2    1    2    0    0 -0.26667055056E+02  0.32708076788E+02 -0.10132786842E+02  0.47787268650E+02  0.19999989083E+02 0.  0.
        -12    1    1    2    0    0  0.26667055056E+02 -0.32708076788E+02  0.10132786842E+02  0.43400731350E+02  0.00000000000E+00 0.  1.
         11    1    3    3    0    0 -0.19376713818E+01  0.13332348680E+02 -0.88497055058E+00  0.13501454176E+02  0.51100000000E-03 0. -1.
        -11    1    3    3    0    0 -0.12297231812E+02  0.15910089076E+02 -0.55521658447E+01  0.20860953729E+02  0.51100000000E-03 0.  1.
        -12    1    3    3    0    0 -0.12432151862E+02  0.34656390317E+01 -0.36956504469E+01  0.13424860746E+02  0.00000000000E+00 0.  1.
</event>
<event>
 7    1  0.4011333E-009  0.4778727E+02  0.7816164E-02  0.1312668E+00
        -11   -1    0    0    0    0  0.00000000000E+00  0.00000000000E+00  0.45593999997E+02  0.45594000000E+02  0.51100000000E-03 0.  1.
         11   -1    0    0    0    0 -0.00000000000E+00 -0.00000000000E+00 -0.45593999997E+02  0.45594000000E+02  0.51100000000E-03 0. -1.
    9900012    2    1    2    0    0 -0.23465935429E+02 -0.13751955919E+02 -0.33820949822E+02  0.47787273462E+02  0.20000011023E+02 0.  0.
        -12    1    1    2    0    0  0.23465935429E+02  0.13751955919E+02  0.33820949822E+02  0.43400726538E+02  0.00000000000E+00 0.  1.
         11    1    3    3    0    0 -0.90852610596E+01  0.19158022731E+01 -0.16099614226E+02  0.18585205013E+02  0.51100000000E-03 0. -1.
        -11    1    3    3    0    0  0.26624710935E+00  0.86409840864E+00 -0.32273286116E-01  0.90476262587E+00  0.51100000000E-03 0.  1.
        -12    1    3    3    0    0 -0.14646921479E+02 -0.16531856601E+02 -0.17689062310E+02  0.28297305824E+02  0.00000000000E+00 0.  1.
</event>
<event>
 7    1  0.4011333E-009  0.4778727E+02  0.7816164E-02  0.1312668E+00
        -11   -1    0    0    0    0  0.00000000000E+00  0.00000000000E+00  0.45593999997E+02  0.45594000000E+02  0.51100000000E-03 0.  1.
         11   -1    0    0    0    0 -0.00000000000E+00 -0.00000000000E+00 -0.45593999997E+02  0.45594000000E+02  0.51100000000E-03 0. -1.
    9900012    2    1    2    0    0  0.23841425519E+01 -0.18396785338E+02 -0.39236429610E+02  0.47787271262E+02  0.20000000992E+02 0.  0.
        -12    1    1    2    0    0 -0.23841425519E+01  0.18396785338E+02  0.39236429610E+02  0.43400728738E+02  0.00000000000E+00 0.  1.
         11    1    3    3    0    0 -0.68034747105E+01 -0.10457557316E+02 -0.16913732089E+02  0.21017185982E+02  0.51100000000E-03 0. -1.
        -11    1    3    3    0    0 -0.10922069497E+01 -0.37583817829E+00 -0.56854371790E+01  0.58015831059E+01  0.51100000000E-03 0.  1.
         12    1    3    3    0    0  0.10279824212E+02 -0.75633898442E+01 -0.16637260341E+02  0.20968502174E+02  0.00000000000E+00 0. -1.
</event>
<event>
 7    1  0.4011333E-009  0.4778727E+02  0.7816164E-02  0.1312668E+00
        -11   -1    0    0    0    0  0.00000000000E+00  0.00000000000E+00  0.45593999997E+02  0.45594000000E+02  0.51100000000E-03 0.  1.
         11   -1    0    0    0    0 -0.00000000000E+00 -0.00000000000E+00 -0.45593999997E+02  0.45594000000E+02  0.51100000000E-03 0. -1.
    9900012    2    1    2    0    0 -0.30665720562E+02  0.28392476900E+02 -0.11709149597E+02  0.47787270209E+02  0.19999996189E+02 0.  0.
        -12    1    1    2    0    0  0.30665720562E+02 -0.28392476900E+02  0.11709149597E+02  0.43400729791E+02  0.00000000000E+00 0.  1.
         11    1    3    3    0    0 -0.63045344242E+01  0.15925779189E+01 -0.60225263683E+01  0.88630854025E+01  0.51100000000E-03 0. -1.
        -11    1    3    3    0    0 -0.54130477108E+01  0.41288087954E+01 -0.64350993736E+01  0.93679587850E+01  0.51100000000E-03 0.  1.
         12    1    3    3    0    0 -0.18948138427E+02  0.22671090186E+02  0.74847614440E+00  0.29556226021E+02  0.00000000000E+00 0. -1.
</event>
<event>
 7    1  0.4011333E-009  0.4778727E+02  0.7816164E-02  0.1312668E+00
        -11   -1    0    0    0    0  0.00000000000E+00  0.00000000000E+00  0.45593999997E+02  0.45594000000E+02  0.51100000000E-03 0. -1.
         11   -1    0    0    0    0 -0.00000000000E+00 -0.00000000000E+00 -0.45593999997E+02  0.45594000000E+02  0.51100000000E-03 0.  1.
    9900012    2    1    2    0    0  0.13561324214E+02  0.40781508089E+02 -0.60483322261E+01  0.47787271444E+02  0.20000001823E+02 0.  0.
        -12    1    1    2    0    0 -0.13561324214E+02 -0.40781508089E+02  0.60483322261E+01  0.43400728556E+02  0.00000000000E+00 0.  1.
         11    1    3    3    0    0 -0.27321630102E+01  0.10700127769E+02 -0.25010336286E+01  0.11323101098E+02  0.51100000000E-03 0. -1.
        -11    1    3    3    0    0  0.93366621512E+01  0.26090642729E+02 -0.54014699636E+01  0.28232441910E+02  0.51100000000E-03 0.  1.
        -12    1    3    3    0    0  0.69568250726E+01  0.39907375904E+01  0.18541713661E+01  0.82317284371E+01  0.00000000000E+00 0.  1.
</event>
<event>
 7    1  0.4011333E-009  0.4778726E+02  0.7816164E-02  0.1312668E+00
        -11   -1    0    0    0    0  0.00000000000E+00  0.00000000000E+00  0.45593999997E+02  0.45594000000E+02  0.51100000000E-03 0.  1.
         11   -1    0    0    0    0 -0.00000000000E+00 -0.00000000000E+00 -0.45593999997E+02  0.45594000000E+02  0.51100000000E-03 0. -1.
    9900012    2    1    2    0    0  0.13684217851E+02 -0.27046237431E+02 -0.31062310373E+02  0.47787263796E+02  0.19999966950E+02 0.  0.
        -12    1    1    2    0    0 -0.13684217851E+02  0.27046237431E+02  0.31062310373E+02  0.43400736204E+02  0.00000000000E+00 0.  1.
         11    1    3    3    0    0  0.87858961509E+00 -0.92817253070E+00  0.67001491662E-01  0.12798099154E+01  0.51100000000E-03 0.  1.
        -11    1    3    3    0    0 -0.30417412147E+01  0.70602433867E+00 -0.13262898513E+01  0.33925956162E+01  0.51100000000E-03 0. -1.
         12    1    3    3    0    0  0.15847369450E+02 -0.26824089239E+02 -0.29803022013E+02  0.43114858264E+02  0.00000000000E+00 0. -1.
</event>
<event>
 7    1  0.4011333E-009  0.4778727E+02  0.7816164E-02  0.1312668E+00
        -11   -1    0    0    0    0  0.00000000000E+00  0.00000000000E+00  0.45593999997E+02  0.45594000000E+02  0.51100000000E-03 0.  1.
         11   -1    0    0    0    0 -0.00000000000E+00 -0.00000000000E+00 -0.45593999997E+02  0.45594000000E+02  0.51100000000E-03 0. -1.
    9900012    2    1    2    0    0 -0.26067995092E+01  0.41964469187E+02 -0.10761547212E+02  0.47787274474E+02  0.20000015635E+02 0.  0.
        -12    1    1    2    0    0  0.26067995092E+01 -0.41964469187E+02  0.10761547212E+02  0.43400725526E+02  0.00000000000E+00 0.  1.
         11    1    3    3    0    0 -0.44615123353E+01  0.28402525338E+02 -0.56417753915E+01  0.29299115476E+02  0.51100000000E-03 0. -1.
        -11    1    3    3    0    0 -0.38732731673E+01  0.10222293004E+02 -0.45251518673E+01  0.11831082747E+02  0.51100000000E-03 0.  1.
         12    1    3    3    0    0  0.57279859934E+01  0.33396508450E+01 -0.59461995342E+00  0.66570762498E+01  0.00000000000E+00 0. -1.
</event>
<event>
 7    1  0.4011333E-009  0.4778727E+02  0.7816164E-02  0.1312668E+00
        -11   -1    0    0    0    0  0.00000000000E+00  0.00000000000E+00  0.45593999997E+02  0.45594000000E+02  0.51100000000E-03 0.  1.
         11   -1    0    0    0    0 -0.00000000000E+00 -0.00000000000E+00 -0.45593999997E+02  0.45594000000E+02  0.51100000000E-03 0. -1.
    9900012    2    1    2    0    0 -0.32703867689E+01  0.38796086618E+02 -0.19177899217E+02  0.47787267461E+02  0.19999983663E+02 0.  0.
        -12    1    1    2    0    0  0.32703867689E+01 -0.38796086618E+02  0.19177899217E+02  0.43400732539E+02  0.00000000000E+00 0.  1.
         11    1    3    3    0    0 -0.36436754553E+01  0.21205909458E+02 -0.17474937732E+02  0.27718954089E+02  0.51100000000E-03 0. -1.
        -11    1    3    3    0    0 -0.39139289838E+01  0.34564175652E+01 -0.63401249494E+00  0.52600032871E+01  0.51100000000E-03 0.  1.
         12    1    3    3    0    0  0.42872176701E+01  0.14133759595E+02 -0.10689489896E+01  0.14808310085E+02  0.00000000000E+00 0. -1.
</event>
<event>
 7    1  0.4011333E-009  0.4778727E+02  0.7816164E-02  0.1312668E+00
        -11   -1    0    0    0    0  0.00000000000E+00  0.00000000000E+00  0.45593999997E+02  0.45594000000E+02  0.51100000000E-03 0.  1.
         11   -1    0    0    0    0 -0.00000000000E+00 -0.00000000000E+00 -0.45593999997E+02  0.45594000000E+02  0.51100000000E-03 0. -1.
    9900012    2    1    2    0    0  0.24101507098E+02 -0.18496119840E+01 -0.36046075278E+02  0.47787271298E+02  0.20000001157E+02 0.  0.
        -12    1    1    2    0    0 -0.24101507098E+02  0.18496119840E+01  0.36046075278E+02  0.43400728702E+02  0.00000000000E+00 0.  1.
         11    1    3    3    0    0  0.13117779508E+02  0.43345975741E+01 -0.29983011285E+02  0.33012813290E+02  0.51100000000E-03 0. -1.
        -11    1    3    3    0    0  0.99313463271E+00 -0.21773917480E+01 -0.24379809433E+01  0.34162995425E+01  0.51100000000E-03 0.  1.
         12    1    3    3    0    0  0.99905929574E+01 -0.40068178101E+01 -0.36250830495E+01  0.11358158465E+02  0.00000000000E+00 0. -1.
</event>
<event>
 7    1  0.4011333E-009  0.4778727E+02  0.7816164E-02  0.1312668E+00
        -11   -1    0    0    0    0  0.00000000000E+00  0.00000000000E+00  0.45593999997E+02  0.45594000000E+02  0.51100000000E-03 0.  1.
         11   -1    0    0    0    0 -0.00000000000E+00 -0.00000000000E+00 -0.45593999997E+02  0.45594000000E+02  0.51100000000E-03 0. -1.
    9900012    2    1    2    0    0  0.17325455355E+02 -0.39587290875E+02 -0.40371361387E+01  0.47787268781E+02  0.19999989682E+02 0.  0.
        -12    1    1    2    0    0 -0.17325455355E+02  0.39587290875E+02  0.40371361387E+01  0.43400731219E+02  0.00000000000E+00 0.  1.
         11    1    3    3    0    0  0.10681740783E+02 -0.34517374286E+02 -0.18675682176E+01  0.36180609794E+02  0.51100000000E-03 0. -1.
        -11    1    3    3    0    0  0.22689488252E+01 -0.62664349227E+01 -0.21512922931E+00  0.66680294134E+01  0.51100000000E-03 0.  1.
        -12    1    3    3    0    0  0.43747657473E+01  0.11965183338E+01 -0.19544386918E+01  0.49386295737E+01  0.00000000000E+00 0.  1.
</event>
<event>
 7    1  0.4011333E-009  0.4778727E+02  0.7816164E-02  0.1312668E+00
        -11   -1    0    0    0    0  0.00000000000E+00  0.00000000000E+00  0.45593999997E+02  0.45594000000E+02  0.51100000000E-03 0.  1.
         11   -1    0    0    0    0 -0.00000000000E+00 -0.00000000000E+00 -0.45593999997E+02  0.45594000000E+02  0.51100000000E-03 0. -1.
    9900012    2    1    2    0    0  0.12089766628E+02 -0.53525921096E+01 -0.41337765548E+02  0.47787267749E+02  0.19999984977E+02 0.  0.
        -12    1    1    2    0    0 -0.12089766628E+02  0.53525921096E+01  0.41337765548E+02  0.43400732251E+02  0.00000000000E+00 0.  1.
         11    1    3    3    0    0  0.88688961134E-02  0.40780197090E+01 -0.46630451170E+01  0.61947004309E+01  0.51100000000E-03 0. -1.
        -11    1    3    3    0    0  0.34874934495E+01  0.23418388278E+01 -0.39388789690E+01  0.57586098539E+01  0.51100000000E-03 0.  1.
        -12    1    3    3    0    0  0.85934042823E+01 -0.11772450646E+02 -0.32735841462E+02  0.35833957465E+02  0.00000000000E+00 0.  1.
</event>
<event>
 7    1  0.4011333E-009  0.4778727E+02  0.7816164E-02  0.1312668E+00
        -11   -1    0    0    0    0  0.00000000000E+00  0.00000000000E+00  0.45593999997E+02  0.45594000000E+02  0.51100000000E-03 0.  1.
         11   -1    0    0    0    0 -0.00000000000E+00 -0.00000000000E+00 -0.45593999997E+02  0.45594000000E+02  0.51100000000E-03 0. -1.
    9900012    2    1    2    0    0  0.11425186014E+01 -0.68379687274E+01 -0.42843437164E+02  0.47787271054E+02  0.20000000042E+02 0.  0.
        -12    1    1    2    0    0 -0.11425186014E+01  0.68379687274E+01  0.42843437164E+02  0.43400728946E+02  0.00000000000E+00 0.  1.
         11    1    3    3    0    0  0.26353440995E+01  0.10138638750E+01 -0.36896457185E+01  0.46461214222E+01  0.51100000000E-03 0. -1.
        -11    1    3    3    0    0  0.92531955904E+00  0.46256241321E+01 -0.59840848731E+01  0.76198350984E+01  0.51100000000E-03 0.  1.
         12    1    3    3    0    0 -0.24181450572E+01 -0.12477456735E+02 -0.33169706572E+02  0.35521314533E+02  0.00000000000E+00 0. -1.
</event>
<event>
 7    1  0.4011333E-009  0.4778727E+02  0.7816164E-02  0.1312668E+00
        -11   -1    0    0    0    0  0.00000000000E+00  0.00000000000E+00  0.45593999997E+02  0.45594000000E+02  0.51100000000E-03 0. -1.
         11   -1    0    0    0    0 -0.00000000000E+00 -0.00000000000E+00 -0.45593999997E+02  0.45594000000E+02  0.51100000000E-03 0.  1.
    9900012    2    1    2    0    0  0.38986591333E+02  0.18337864039E+02  0.52337174772E+01  0.47787270053E+02  0.19999995481E+02 0.  0.
        -12    1    1    2    0    0 -0.38986591333E+02 -0.18337864039E+02 -0.52337174772E+01  0.43400729947E+02  0.00000000000E+00 0.  1.
         11    1    3    3    0    0  0.12389611115E+02  0.41140878453E+01  0.62931899097E+01  0.14492495364E+02  0.51100000000E-03 0. -1.
        -11    1    3    3    0    0  0.28742708703E+01  0.16625455551E+01  0.47836137267E+01  0.58230963676E+01  0.51100000000E-03 0.  1.
        -12    1    3    3    0    0  0.23722709347E+02  0.12561230639E+02 -0.58430861592E+01  0.27471678322E+02  0.00000000000E+00 0.  1.
</event>
<event>
 7    1  0.4011333E-009  0.4778727E+02  0.7816164E-02  0.1312668E+00
        -11   -1    0    0    0    0  0.00000000000E+00  0.00000000000E+00  0.45593999997E+02  0.45594000000E+02  0.51100000000E-03 0. -1.
         11   -1    0    0    0    0 -0.00000000000E+00 -0.00000000000E+00 -0.45593999997E+02  0.45594000000E+02  0.51100000000E-03 0.  1.
    9900012    2    1    2    0    0  0.32601611969E+02 -0.24130883775E+02  0.15442109901E+02  0.47787269442E+02  0.19999992696E+02 0.  0.
        -12    1    1    2    0    0 -0.32601611969E+02  0.24130883775E+02 -0.15442109901E+02  0.43400730558E+02  0.00000000000E+00 0.  1.
         11    1    3    3    0    0  0.57968301420E+01 -0.11465216273E+02  0.50813402690E+01  0.13815731724E+02  0.51100000000E-03 0. -1.
        -11    1    3    3    0    0  0.15300688772E+01  0.23644689430E+01  0.18087548917E+01  0.33471508288E+01  0.51100000000E-03 0.  1.
         12    1    3    3    0    0  0.25274712950E+02 -0.15030136445E+02  0.85520147406E+01  0.30624386890E+02  0.00000000000E+00 0. -1.
</event>
<event>
 7    1  0.4011333E-009  0.4778727E+02  0.7816164E-02  0.1312668E+00
        -11   -1    0    0    0    0  0.00000000000E+00  0.00000000000E+00  0.45593999997E+02  0.45594000000E+02  0.51100000000E-03 0.  1.
         11   -1    0    0    0    0 -0.00000000000E+00 -0.00000000000E+00 -0.45593999997E+02  0.45594000000E+02  0.51100000000E-03 0. -1.
    9900012    2    1    2    0    0  0.39396693217E+02 -0.95645826715E+01 -0.15493313310E+02  0.47787269183E+02  0.19999991514E+02 0.  0.
        -12    1    1    2    0    0 -0.39396693217E+02  0.95645826715E+01  0.15493313310E+02  0.43400730817E+02  0.00000000000E+00 0.  1.
         11    1    3    3    0    0  0.25633267917E+01 -0.11967094904E+01  0.12550714343E+01  0.30948283331E+01  0.51100000000E-03 0. -1.
        -11    1    3    3    0    0 -0.92889596995E-01 -0.11144288905E+01 -0.52139261626E+01  0.53325047135E+01  0.51100000000E-03 0.  1.
         12    1    3    3    0    0  0.36926256022E+02 -0.72534442906E+01 -0.11534458582E+02  0.39359936137E+02  0.00000000000E+00 0. -1.
</event>
<event>
 7    1  0.4011333E-009  0.4778728E+02  0.7816164E-02  0.1312668E+00
        -11   -1    0    0    0    0  0.00000000000E+00  0.00000000000E+00  0.45593999997E+02  0.45594000000E+02  0.51100000000E-03 0.  1.
         11   -1    0    0    0    0 -0.00000000000E+00 -0.00000000000E+00 -0.45593999997E+02  0.45594000000E+02  0.51100000000E-03 0. -1.
    9900012    2    1    2    0    0 -0.13358195560E+02 -0.34203019699E+02 -0.23137304991E+02  0.47787276188E+02  0.20000023452E+02 0.  0.
        -12    1    1    2    0    0  0.13358195560E+02  0.34203019699E+02  0.23137304991E+02  0.43400723812E+02  0.00000000000E+00 0.  1.
         11    1    3    3    0    0 -0.90535521172E+00 -0.35617790299E+01 -0.24652620820E+01  0.44253197976E+01  0.51100000000E-03 0. -1.
        -11    1    3    3    0    0 -0.17391442711E+02 -0.26337708567E+02 -0.17383212808E+02  0.36032114286E+02  0.51100000000E-03 0.  1.
        -12    1    3    3    0    0  0.49386023620E+01 -0.43035321016E+01 -0.32888301012E+01  0.73298421043E+01  0.00000000000E+00 0.  1.
</event>
<event>
 7    1  0.4011333E-009  0.4778727E+02  0.7816164E-02  0.1312668E+00
        -11   -1    0    0    0    0  0.00000000000E+00  0.00000000000E+00  0.45593999997E+02  0.45594000000E+02  0.51100000000E-03 0. -1.
         11   -1    0    0    0    0 -0.00000000000E+00 -0.00000000000E+00 -0.45593999997E+02  0.45594000000E+02  0.51100000000E-03 0.  1.
    9900012    2    1    2    0    0  0.32512730538E+02 -0.27752497853E+02  0.75062996589E+01  0.47787270528E+02  0.19999997645E+02 0.  0.
        -12    1    1    2    0    0 -0.32512730538E+02  0.27752497853E+02 -0.75062996589E+01  0.43400729472E+02  0.00000000000E+00 0.  1.
         11    1    3    3    0    0  0.69235214613E+01 -0.67875694217E+00  0.39458543090E+01  0.79978513928E+01  0.51100000000E-03 0. -1.
        -11    1    3    3    0    0 -0.16407833835E+01 -0.14979515336E+01 -0.26024127970E+00  0.22369073949E+01  0.51100000000E-03 0.  1.
         12    1    3    3    0    0  0.27229992460E+02 -0.25575789377E+02  0.38206866296E+01  0.37552511740E+02  0.00000000000E+00 0. -1.
</event>
<event>
 7    1  0.4011333E-009  0.4778727E+02  0.7816164E-02  0.1312668E+00
        -11   -1    0    0    0    0  0.00000000000E+00  0.00000000000E+00  0.45593999997E+02  0.45594000000E+02  0.51100000000E-03 0.  1.
         11   -1    0    0    0    0 -0.00000000000E+00 -0.00000000000E+00 -0.45593999997E+02  0.45594000000E+02  0.51100000000E-03 0. -1.
    9900012    2    1    2    0    0 -0.36144393740E+02  0.17452923064E+01 -0.23961629893E+02  0.47787274761E+02  0.20000016947E+02 0.  0.
        -12    1    1    2    0    0  0.36144393740E+02 -0.17452923064E+01  0.23961629893E+02  0.43400725239E+02  0.00000000000E+00 0.  1.
         11    1    3    3    0    0 -0.17740410574E+02  0.51625766156E+01 -0.15558123152E+02  0.24154286595E+02  0.51100000000E-03 0. -1.
        -11    1    3    3    0    0 -0.91836498188E+01  0.49218950612E+00 -0.98934470459E+01  0.13507848430E+02  0.51100000000E-03 0.  1.
         12    1    3    3    0    0 -0.92203333478E+01 -0.39094738153E+01  0.14899403052E+01  0.10125139736E+02  0.00000000000E+00 0. -1.
</event>
<event>
 7    1  0.4011333E-009  0.4778727E+02  0.7816164E-02  0.1312668E+00
        -11   -1    0    0    0    0  0.00000000000E+00  0.00000000000E+00  0.45593999997E+02  0.45594000000E+02  0.51100000000E-03 0.  1.
         11   -1    0    0    0    0 -0.00000000000E+00 -0.00000000000E+00 -0.45593999997E+02  0.45594000000E+02  0.51100000000E-03 0. -1.
    9900012    2    1    2    0    0  0.17200072485E+02 -0.72402542376E+01 -0.39183668615E+02  0.47787266584E+02  0.19999979665E+02 0.  0.
        -12    1    1    2    0    0 -0.17200072485E+02  0.72402542376E+01  0.39183668615E+02  0.43400733416E+02  0.00000000000E+00 0.  1.
         11    1    3    3    0    0  0.10462636253E+02 -0.83319695809E+01 -0.26536580962E+02  0.29716638502E+02  0.51100000000E-03 0. -1.
        -11    1    3    3    0    0  0.51242333623E+01 -0.22485782543E+01 -0.79556338640E+00  0.56521494212E+01  0.51100000000E-03 0.  1.
        -12    1    3    3    0    0  0.16132028696E+01  0.33402935976E+01 -0.11851524267E+02  0.12418478661E+02  0.00000000000E+00 0.  1.
</event>
<event>
 7    1  0.4534290E-009  0.4778728E+02  0.7816164E-02  0.1312668E+00
        -11   -1    0    0    0    0  0.00000000000E+00  0.00000000000E+00  0.45593999997E+02  0.45594000000E+02  0.51100000000E-03 0.  1.
         11   -1    0    0    0    0 -0.00000000000E+00 -0.00000000000E+00 -0.45593999997E+02  0.45594000000E+02  0.51100000000E-03 0. -1.
    9900012    2    1    2    0    0  0.93874562834E+01  0.29430802733E+02 -0.30484854009E+02  0.47787276401E+02  0.20000024421E+02 0.  0.
        -12    1    1    2    0    0 -0.93874562834E+01 -0.29430802733E+02  0.30484854009E+02  0.43400723599E+02  0.00000000000E+00 0.  1.
         11    1    3    3    0    0  0.92592453720E+00  0.16528783089E+02 -0.19578525470E+02  0.25639357763E+02  0.51100000000E-03 0. -1.
        -11    1    3    3    0    0  0.26400187762E+00 -0.10767334245E+01 -0.46446632548E+01  0.47751386232E+01  0.51100000000E-03 0.  1.
        -12    1    3    3    0    0  0.81975298686E+01  0.13978753068E+02 -0.62616652842E+01  0.17372780014E+02  0.00000000000E+00 0.  1.
</event>
<event>
 7    1  0.4011333E-009  0.4778724E+02  0.7816164E-02  0.1312668E+00
        -11   -1    0    0    0    0  0.00000000000E+00  0.00000000000E+00  0.45593999997E+02  0.45594000000E+02  0.51100000000E-03 0.  1.
         11   -1    0    0    0    0 -0.00000000000E+00 -0.00000000000E+00 -0.45593999997E+02  0.45594000000E+02  0.51100000000E-03 0. -1.
    9900012    2    1    2    0    0 -0.54428741348E+01  0.36850241056E+02 -0.22272413715E+02  0.47787244736E+02  0.19999880050E+02 0.  0.
        -12    1    1    2    0    0  0.54428741348E+01 -0.36850241056E+02  0.22272413715E+02  0.43400755264E+02  0.00000000000E+00 0.  1.
         11    1    3    3    0    0 -0.52651096568E+01  0.92378369373E+01 -0.97905158350E+01  0.14453830342E+02  0.51100000000E-03 0.  1.
        -11    1    3    3    0    0  0.63476295842E+01  0.86750475884E+01 -0.29250819263E+01  0.11140240416E+02  0.51100000000E-03 0. -1.
         12    1    3    3    0    0 -0.65253940621E+01  0.18937356531E+02 -0.95568159541E+01  0.22193173978E+02  0.00000000000E+00 0. -1.
</event>
<event>
 7    1  0.4011333E-009  0.4778727E+02  0.7816164E-02  0.1312668E+00
        -11   -1    0    0    0    0  0.00000000000E+00  0.00000000000E+00  0.45593999997E+02  0.45594000000E+02  0.51100000000E-03 0.  1.
         11   -1    0    0    0    0 -0.00000000000E+00 -0.00000000000E+00 -0.45593999997E+02  0.45594000000E+02  0.51100000000E-03 0. -1.
    9900012    2    1    2    0    0 -0.34809143830E+02 -0.89904099883E+01 -0.24312946868E+02  0.47787270152E+02  0.19999995931E+02 0.  0.
        -12    1    1    2    0    0  0.34809143830E+02  0.89904099883E+01  0.24312946868E+02  0.43400729848E+02  0.00000000000E+00 0.  1.
         11    1    3    3    0    0 -0.30221548963E+02 -0.12322599036E+02 -0.21820341485E+02  0.39259594643E+02  0.51100000000E-03 0. -1.
        -11    1    3    3    0    0 -0.39589548054E+01  0.28467113241E+01 -0.43330066341E+01  0.65231921072E+01  0.51100000000E-03 0.  1.
         12    1    3    3    0    0 -0.62864006111E+00  0.48547772340E+00  0.18404012506E+01  0.20044834022E+01  0.00000000000E+00 0. -1.
</event>
<event>
 7    1  0.4011333E-009  0.4778727E+02  0.7816164E-02  0.1312668E+00
        -11   -1    0    0    0    0  0.00000000000E+00  0.00000000000E+00  0.45593999997E+02  0.45594000000E+02  0.51100000000E-03 0.  1.
         11   -1    0    0    0    0 -0.00000000000E+00 -0.00000000000E+00 -0.45593999997E+02  0.45594000000E+02  0.51100000000E-03 0. -1.
    9900012    2    1    2    0    0 -0.41093460737E+02 -0.50354403273E+01 -0.13022865454E+02  0.47787271904E+02  0.20000003919E+02 0.  0.
        -12    1    1    2    0    0  0.41093460737E+02  0.50354403273E+01  0.13022865454E+02  0.43400728096E+02  0.00000000000E+00 0.  1.
         11    1    3    3    0    0 -0.82180162963E+01 -0.29980304537E+01  0.32846457174E+01  0.93441359257E+01  0.51100000000E-03 0. -1.
        -11    1    3    3    0    0  0.59201299137E+00 -0.66114548909E+00  0.44376939531E+00  0.99223196735E+00  0.51100000000E-03 0.  1.
         12    1    3    3    0    0 -0.33467457432E+02 -0.13762643846E+01 -0.16751280567E+02  0.37450904011E+02  0.00000000000E+00 0. -1.
</event>
<event>
 7    1  0.4011333E-009  0.4778729E+02  0.7816164E-02  0.1312668E+00
        -11   -1    0    0    0    0  0.00000000000E+00  0.00000000000E+00  0.45593999997E+02  0.45594000000E+02  0.51100000000E-03 0.  1.
         11   -1    0    0    0    0 -0.00000000000E+00 -0.00000000000E+00 -0.45593999997E+02  0.45594000000E+02  0.51100000000E-03 0. -1.
    9900012    2    1    2    0    0  0.29222178354E+02 -0.27294424884E+02 -0.16873073474E+02  0.47787286343E+02  0.20000069750E+02 0.  0.
        -12    1    1    2    0    0 -0.29222178354E+02  0.27294424884E+02  0.16873073474E+02  0.43400713657E+02  0.00000000000E+00 0.  1.
         11    1    3    3    0    0  0.12121550785E+02 -0.70552625410E+01 -0.75225286614E+01  0.15915312145E+02  0.51100000000E-03 0. -1.
        -11    1    3    3    0    0  0.72471892900E+01  0.70979266491E+00 -0.29140681200E+01  0.78432997840E+01  0.51100000000E-03 0.  1.
         12    1    3    3    0    0  0.98534382794E+01 -0.20948955008E+02 -0.64364766927E+01  0.24028674414E+02  0.00000000000E+00 0. -1.
</event>
<event>
 7    1  0.4011333E-009  0.4778727E+02  0.7816164E-02  0.1312668E+00
        -11   -1    0    0    0    0  0.00000000000E+00  0.00000000000E+00  0.45593999997E+02  0.45594000000E+02  0.51100000000E-03 0.  1.
         11   -1    0    0    0    0 -0.00000000000E+00 -0.00000000000E+00 -0.45593999997E+02  0.45594000000E+02  0.51100000000E-03 0. -1.
    9900012    2    1    2    0    0  0.12867576461E+02 -0.28156704874E+02 -0.30417900027E+02  0.47787271948E+02  0.20000004122E+02 0.  0.
        -12    1    1    2    0    0 -0.12867576461E+02  0.28156704874E+02  0.30417900027E+02  0.43400728052E+02  0.00000000000E+00 0.  1.
         11    1    3    3    0    0  0.71757010959E+01 -0.22272153529E+02 -0.11118098857E+02  0.25906594363E+02  0.51100000000E-03 0. -1.
        -11    1    3    3    0    0  0.49093055285E+01 -0.58026223765E+01 -0.10065580695E+02  0.12612994181E+02  0.51100000000E-03 0.  1.
         12    1    3    3    0    0  0.78256983695E+00 -0.81928968479E-01 -0.92342204748E+01  0.92676834044E+01  0.00000000000E+00 0. -1.
</event>
<event>
 7    1  0.4011333E-009  0.4778727E+02  0.7816164E-02  0.1312668E+00
        -11   -1    0    0    0    0  0.00000000000E+00  0.00000000000E+00  0.45593999997E+02  0.45594000000E+02  0.51100000000E-03 0. -1.
         11   -1    0    0    0    0 -0.00000000000E+00 -0.00000000000E+00 -0.45593999997E+02  0.45594000000E+02  0.51100000000E-03 0.  1.
    9900012    2    1    2    0    0 -0.20862295434E+02  0.17106077412E+02  0.33996620259E+02  0.47787269081E+02  0.19999991050E+02 0.  0.
        -12    1    1    2    0    0  0.20862295434E+02 -0.17106077412E+02 -0.33996620259E+02  0.43400730919E+02  0.00000000000E+00 0.  1.
         11    1    3    3    0    0 -0.90261631102E+00  0.40393749999E+01  0.11832044448E+02  0.12535092448E+02  0.51100000000E-03 0. -1.
        -11    1    3    3    0    0 -0.76843766287E+00 -0.46993974844E+00  0.75233917795E+01  0.75771210851E+01  0.51100000000E-03 0.  1.
        -12    1    3    3    0    0 -0.19191241460E+02  0.13536642161E+02  0.14641184032E+02  0.27675055549E+02  0.00000000000E+00 0.  1.
</event>
<event>
 7    1  0.4011333E-009  0.4778727E+02  0.7816164E-02  0.1312668E+00
        -11   -1    0    0    0    0  0.00000000000E+00  0.00000000000E+00  0.45593999997E+02  0.45594000000E+02  0.51100000000E-03 0. -1.
         11   -1    0    0    0    0 -0.00000000000E+00 -0.00000000000E+00 -0.45593999997E+02  0.45594000000E+02  0.51100000000E-03 0.  1.
    9900012    2    1    2    0    0  0.10950847094E+02  0.40947382757E+02  0.93281243928E+01  0.47787272916E+02  0.20000008535E+02 0.  0.
        -12    1    1    2    0    0 -0.10950847094E+02 -0.40947382757E+02 -0.93281243928E+01  0.43400727084E+02  0.00000000000E+00 0.  1.
         11    1    3    3    0    0  0.49000594849E+01  0.24189633863E+01  0.39283493539E+01  0.67300739764E+01  0.51100000000E-03 0.  1.
        -11    1    3    3    0    0  0.26174479355E+01  0.13312117452E+02  0.75346597227E+01  0.15518846675E+02  0.51100000000E-03 0. -1.
         12    1    3    3    0    0  0.34333396735E+01  0.25216301919E+02 -0.21348846839E+01  0.25538352265E+02  0.00000000000E+00 0. -1.
</event>
<event>
 7    1  0.4011333E-009  0.4778727E+02  0.7816164E-02  0.1312668E+00
        -11   -1    0    0    0    0  0.00000000000E+00  0.00000000000E+00  0.45593999997E+02  0.45594000000E+02  0.51100000000E-03 0.  1.
         11   -1    0    0    0    0 -0.00000000000E+00 -0.00000000000E+00 -0.45593999997E+02  0.45594000000E+02  0.51100000000E-03 0. -1.
    9900012    2    1    2    0    0 -0.25782139726E+00  0.68053552368E+00 -0.43394628330E+02  0.47787269956E+02  0.19999995038E+02 0.  0.
        -12    1    1    2    0    0  0.25782139726E+00 -0.68053552368E+00  0.43394628330E+02  0.43400730044E+02  0.00000000000E+00 0.  1.
         11    1    3    3    0    0  0.72630558659E+01  0.53698926524E+01 -0.26300929921E+02  0.27808751187E+02  0.51100000000E-03 0. -1.
        -11    1    3    3    0    0 -0.25446135205E+00 -0.22005240083E+01 -0.17621438982E+01  0.28305843690E+01  0.51100000000E-03 0.  1.
         12    1    3    3    0    0 -0.72664159111E+01 -0.24888331204E+01 -0.15331554510E+02  0.17147934400E+02  0.00000000000E+00 0. -1.
</event>
<event>
 7    1  0.4011333E-009  0.4778727E+02  0.7816164E-02  0.1312668E+00
        -11   -1    0    0    0    0  0.00000000000E+00  0.00000000000E+00  0.45593999997E+02  0.45594000000E+02  0.51100000000E-03 0.  1.
         11   -1    0    0    0    0 -0.00000000000E+00 -0.00000000000E+00 -0.45593999997E+02  0.45594000000E+02  0.51100000000E-03 0. -1.
    9900012    2    1    2    0    0  0.29318939045E+02 -0.25011954783E+02  0.19960595773E+02  0.47787268988E+02  0.19999990622E+02 0.  0.
        -12    1    1    2    0    0 -0.29318939045E+02  0.25011954783E+02 -0.19960595773E+02  0.43400731012E+02  0.00000000000E+00 0.  1.
         11    1    3    3    0    0  0.17207942595E+01 -0.68490874688E+00 -0.18308332577E+01  0.26042625738E+01  0.51100000000E-03 0. -1.
        -11    1    3    3    0    0  0.19540692714E+02 -0.14007451970E+02  0.62109676657E+01  0.24831904922E+02  0.51100000000E-03 0.  1.
        -12    1    3    3    0    0  0.80574520707E+01 -0.10319594066E+02  0.15580461365E+02  0.20351101492E+02  0.00000000000E+00 0.  1.
</event>
<event>
 7    1  0.4011333E-009  0.4778727E+02  0.7816164E-02  0.1312668E+00
        -11   -1    0    0    0    0  0.00000000000E+00  0.00000000000E+00  0.45593999997E+02  0.45594000000E+02  0.51100000000E-03 0. -1.
         11   -1    0    0    0    0 -0.00000000000E+00 -0.00000000000E+00 -0.45593999997E+02  0.45594000000E+02  0.51100000000E-03 0.  1.
    9900012    2    1    2    0    0 -0.39769255898E+02 -0.13323234064E+02 -0.11158898176E+02  0.47787270869E+02  0.19999999200E+02 0.  0.
        -12    1    1    2    0    0  0.39769255898E+02  0.13323234064E+02  0.11158898176E+02  0.43400729131E+02  0.00000000000E+00 0.  1.
         11    1    3    3    0    0 -0.20041627259E+02  0.27430709567E+00 -0.48086794765E+01  0.20612264944E+02  0.51100000000E-03 0. -1.
        -11    1    3    3    0    0 -0.11467022583E+02 -0.22988366357E+01  0.25584119293E+00  0.11697978961E+02  0.51100000000E-03 0.  1.
        -12    1    3    3    0    0 -0.82606060565E+01 -0.11298704524E+02 -0.66060598924E+01  0.15477026964E+02  0.00000000000E+00 0.  1.
</event>
<event>
 7    1  0.4011333E-009  0.4778727E+02  0.7816164E-02  0.1312668E+00
        -11   -1    0    0    0    0  0.00000000000E+00  0.00000000000E+00  0.45593999997E+02  0.45594000000E+02  0.51100000000E-03 0. -1.
         11   -1    0    0    0    0 -0.00000000000E+00 -0.00000000000E+00 -0.45593999997E+02  0.45594000000E+02  0.51100000000E-03 0.  1.
    9900012    2    1    2    0    0  0.19012249955E+02  0.20309708593E+02  0.33311757746E+02  0.47787272867E+02  0.20000008310E+02 0.  0.
        -12    1    1    2    0    0 -0.19012249955E+02 -0.20309708593E+02 -0.33311757746E+02  0.43400727133E+02  0.00000000000E+00 0.  1.
         11    1    3    3    0    0  0.10825643858E+02  0.56200304470E+01  0.16638275115E+02  0.20630354002E+02  0.51100000000E-03 0. -1.
        -11    1    3    3    0    0  0.78086309135E+01  0.12478771624E+01  0.50514959617E+01  0.93834708859E+01  0.51100000000E-03 0.  1.
         12    1    3    3    0    0  0.37797518388E+00  0.13441800984E+02  0.11621986670E+02  0.17773447980E+02  0.00000000000E+00 0. -1.
</event>
<event>
 7    1  0.4011333E-009  0.4778727E+02  0.7816164E-02  0.1312668E+00
        -11   -1    0    0    0    0  0.00000000000E+00  0.00000000000E+00  0.45593999997E+02  0.45594000000E+02  0.51100000000E-03 0. -1.
         11   -1    0    0    0    0 -0.00000000000E+00 -0.00000000000E+00 -0.45593999997E+02  0.45594000000E+02  0.51100000000E-03 0.  1.
    9900012    2    1    2    0    0  0.32775207993E+02  0.27858801990E+02  0.57703070252E+01  0.47787267858E+02  0.19999985472E+02 0.  0.
        -12    1    1    2    0    0 -0.32775207993E+02 -0.27858801990E+02 -0.57703070252E+01  0.43400732142E+02  0.00000000000E+00 0.  1.
         11    1    3    3    0    0  0.31533634781E+01  0.86840943398E+01  0.21147121367E+01  0.94778269350E+01  0.51100000000E-03 0. -1.
        -11    1    3    3    0    0  0.79937494092E+01  0.50784801179E+01  0.76649864343E+01  0.12183718941E+02  0.51100000000E-03 0.  1.
        -12    1    3    3    0    0  0.21628095106E+02  0.14096227532E+02 -0.40093915459E+01  0.26125721983E+02  0.00000000000E+00 0.  1.
</event>
<event>
 7    1  0.4011333E-009  0.4778727E+02  0.7816164E-02  0.1312668E+00
        -11   -1    0    0    0    0  0.00000000000E+00  0.00000000000E+00  0.45593999997E+02  0.45594000000E+02  0.51100000000E-03 0.  1.
         11   -1    0    0    0    0 -0.00000000000E+00 -0.00000000000E+00 -0.45593999997E+02  0.45594000000E+02  0.51100000000E-03 0. -1.
    9900012    2    1    2    0    0  0.12626161964E+02 -0.37366006555E+02 -0.18110351384E+02  0.47787271445E+02  0.20000001828E+02 0.  0.
        -12    1    1    2    0    0 -0.12626161964E+02  0.37366006555E+02  0.18110351384E+02  0.43400728555E+02  0.00000000000E+00 0.  1.
         11    1    3    3    0    0  0.69632167462E+01 -0.13697085140E+02 -0.14122940195E+02  0.20869929775E+02  0.51100000000E-03 0. -1.
        -11    1    3    3    0    0  0.60219877195E+01 -0.12383186680E+02 -0.66870542707E+01  0.15307656370E+02  0.51100000000E-03 0.  1.
        -12    1    3    3    0    0 -0.35904250201E+00 -0.11285734735E+02  0.26996430811E+01  0.11609685301E+02  0.00000000000E+00 0.  1.
</event>
<event>
 7    1  0.4011333E-009  0.4778727E+02  0.7816164E-02  0.1312668E+00
        -11   -1    0    0    0    0  0.00000000000E+00  0.00000000000E+00  0.45593999997E+02  0.45594000000E+02  0.51100000000E-03 0.  1.
         11   -1    0    0    0    0 -0.00000000000E+00 -0.00000000000E+00 -0.45593999997E+02  0.45594000000E+02  0.51100000000E-03 0. -1.
    9900012    2    1    2    0    0  0.34004347483E+02  0.12234922611E+01 -0.26941241881E+02  0.47787273103E+02  0.20000009387E+02 0.  0.
        -12    1    1    2    0    0 -0.34004347483E+02 -0.12234922611E+01  0.26941241881E+02  0.43400726897E+02  0.00000000000E+00 0.  1.
         11    1    3    3    0    0  0.16468412738E+02  0.29256795658E+01 -0.85553009233E+01  0.18787266783E+02  0.51100000000E-03 0. -1.
        -11    1    3    3    0    0  0.13975378310E+02  0.44723344822E+01 -0.15402498479E+02  0.21273221061E+02  0.51100000000E-03 0.  1.
         12    1    3    3    0    0  0.35605564356E+01 -0.61745217869E+01 -0.29834424786E+01  0.77267852598E+01  0.00000000000E+00 0. -1.
</event>
<event>
 7    1  0.4011333E-009  0.4778727E+02  0.7816164E-02  0.1312668E+00
        -11   -1    0    0    0    0  0.00000000000E+00  0.00000000000E+00  0.45593999997E+02  0.45594000000E+02  0.51100000000E-03 0.  1.
         11   -1    0    0    0    0 -0.00000000000E+00 -0.00000000000E+00 -0.45593999997E+02  0.45594000000E+02  0.51100000000E-03 0. -1.
    9900012    2    1    2    0    0  0.13227693467E+02  0.36878783547E+02 -0.18671012494E+02  0.47787271229E+02  0.20000000839E+02 0.  0.
        -12    1    1    2    0    0 -0.13227693467E+02 -0.36878783547E+02  0.18671012494E+02  0.43400728771E+02  0.00000000000E+00 0.  1.
         11    1    3    3    0    0  0.23088048617E+01  0.22281399951E+01 -0.58011701595E+01  0.66293863371E+01  0.51100000000E-03 0. -1.
        -11    1    3    3    0    0  0.28669273179E+01  0.16105317083E+02  0.13894766270E+01  0.16417404063E+02  0.51100000000E-03 0.  1.
         12    1    3    3    0    0  0.80519612875E+01  0.18545326469E+02 -0.14259318961E+02  0.24740480829E+02  0.00000000000E+00 0. -1.
</event>
<event>
 7    1  0.4011333E-009  0.4778727E+02  0.7816164E-02  0.1312668E+00
        -11   -1    0    0    0    0  0.00000000000E+00  0.00000000000E+00  0.45593999997E+02  0.45594000000E+02  0.51100000000E-03 0.  1.
         11   -1    0    0    0    0 -0.00000000000E+00 -0.00000000000E+00 -0.45593999997E+02  0.45594000000E+02  0.51100000000E-03 0. -1.
    9900012    2    1    2    0    0 -0.83413895167E+01  0.35336960329E+02 -0.23776957831E+02  0.47787271112E+02  0.20000000307E+02 0.  0.
        -12    1    1    2    0    0  0.83413895167E+01 -0.35336960329E+02  0.23776957831E+02  0.43400728888E+02  0.00000000000E+00 0.  1.
         11    1    3    3    0    0 -0.71294298354E+01  0.23556968925E+02 -0.96850668233E+01  0.26449197991E+02  0.51100000000E-03 0. -1.
        -11    1    3    3    0    0 -0.14152158147E+01  0.83841438518E+01 -0.19430760518E+01  0.87219406519E+01  0.51100000000E-03 0.  1.
         12    1    3    3    0    0  0.20325613337E+00  0.33958475518E+01 -0.12148814956E+02  0.12616132469E+02  0.00000000000E+00 0. -1.
</event>
<event>
 7    1  0.4011333E-009  0.4778725E+02  0.7816164E-02  0.1312668E+00
        -11   -1    0    0    0    0  0.00000000000E+00  0.00000000000E+00  0.45593999997E+02  0.45594000000E+02  0.51100000000E-03 0.  1.
         11   -1    0    0    0    0 -0.00000000000E+00 -0.00000000000E+00 -0.45593999997E+02  0.45594000000E+02  0.51100000000E-03 0. -1.
    9900012    2    1    2    0    0 -0.23858154584E+02 -0.31103675036E+02  0.18627268909E+02  0.47787247842E+02  0.19999894210E+02 0.  0.
        -12    1    1    2    0    0  0.23858154584E+02  0.31103675036E+02 -0.18627268909E+02  0.43400752158E+02  0.00000000000E+00 0.  1.
         11    1    3    3    0    0 -0.53393749924E+01 -0.84189975942E+01 -0.21577876858E+01  0.10200220280E+02  0.51100000000E-03 0. -1.
        -11    1    3    3    0    0 -0.30930639762E+01  0.13489743265E+00  0.26023752334E-01  0.30961136243E+01  0.51100000000E-03 0.  1.
         12    1    3    3    0    0 -0.15425715615E+02 -0.22819574874E+02  0.20759032843E+02  0.34490913938E+02  0.00000000000E+00 0. -1.
</event>
<event>
 7    1  0.4011333E-009  0.4778727E+02  0.7816164E-02  0.1312668E+00
        -11   -1    0    0    0    0  0.00000000000E+00  0.00000000000E+00  0.45593999997E+02  0.45594000000E+02  0.51100000000E-03 0.  1.
         11   -1    0    0    0    0 -0.00000000000E+00 -0.00000000000E+00 -0.45593999997E+02  0.45594000000E+02  0.51100000000E-03 0. -1.
    9900012    2    1    2    0    0  0.26178209518E+02  0.11378335794E+02 -0.32693394155E+02  0.47787271891E+02  0.20000003862E+02 0.  0.
        -12    1    1    2    0    0 -0.26178209518E+02 -0.11378335794E+02  0.32693394155E+02  0.43400728109E+02  0.00000000000E+00 0.  1.
         11    1    3    3    0    0  0.99640594955E+01  0.30842391401E+01 -0.17153454575E+02  0.20075756943E+02  0.51100000000E-03 0. -1.
        -11    1    3    3    0    0  0.11295642986E+02  0.62191811413E+01 -0.17745440936E+02  0.21935597525E+02  0.51100000000E-03 0.  1.
        -12    1    3    3    0    0  0.49185070363E+01  0.20749155123E+01  0.22055013560E+01  0.57759174233E+01  0.00000000000E+00 0.  1.
</event>
<event>
 7    1  0.4011333E-009  0.4778727E+02  0.7816164E-02  0.1312668E+00
        -11   -1    0    0    0    0  0.00000000000E+00  0.00000000000E+00  0.45593999997E+02  0.45594000000E+02  0.51100000000E-03 0.  1.
         11   -1    0    0    0    0 -0.00000000000E+00 -0.00000000000E+00 -0.45593999997E+02  0.45594000000E+02  0.51100000000E-03 0. -1.
    9900012    2    1    2    0    0  0.46781771754E+01 -0.25244446654E+01 -0.43073948125E+02  0.47787272246E+02  0.20000005477E+02 0.  0.
        -12    1    1    2    0    0 -0.46781771754E+01  0.25244446654E+01  0.43073948125E+02  0.43400727754E+02  0.00000000000E+00 0.  1.
         11    1    3    3    0    0  0.14597102511E+01 -0.12608662709E+01 -0.19969865077E+02  0.20062802626E+02  0.51100000000E-03 0. -1.
        -11    1    3    3    0    0  0.71073365944E+00  0.64332384805E+01 -0.14668952604E+02  0.16033398593E+02  0.51100000000E-03 0.  1.
         12    1    3    3    0    0  0.25077332648E+01 -0.76968168750E+01 -0.84351304435E+01  0.11691071026E+02  0.00000000000E+00 0. -1.
</event>
<event>
 7    1  0.4011333E-009  0.4778727E+02  0.7816164E-02  0.1312668E+00
        -11   -1    0    0    0    0  0.00000000000E+00  0.00000000000E+00  0.45593999997E+02  0.45594000000E+02  0.51100000000E-03 0.  1.
         11   -1    0    0    0    0 -0.00000000000E+00 -0.00000000000E+00 -0.45593999997E+02  0.45594000000E+02  0.51100000000E-03 0. -1.
    9900012    2    1    2    0    0  0.20576209839E+02  0.26895861345E+02 -0.27145084368E+02  0.47787269889E+02  0.19999994730E+02 0.  0.
        -12    1    1    2    0    0 -0.20576209839E+02 -0.26895861345E+02  0.27145084368E+02  0.43400730111E+02  0.00000000000E+00 0.  1.
         11    1    3    3    0    0  0.90904456866E+01  0.98036903161E+01 -0.41228803020E+00  0.13376043072E+02  0.51100000000E-03 0. -1.
        -11    1    3    3    0    0  0.18088235621E+01 -0.22781750750E+00 -0.20571877740E+01  0.27487752353E+01  0.51100000000E-03 0.  1.
        -12    1    3    3    0    0  0.96769405905E+01  0.17319988537E+02 -0.24675608564E+02  0.31662451581E+02  0.00000000000E+00 0.  1.
</event>
<event>
 7    1  0.4011333E-009  0.4778727E+02  0.7816164E-02  0.1312668E+00
        -11   -1    0    0    0    0  0.00000000000E+00  0.00000000000E+00  0.45593999997E+02  0.45594000000E+02  0.51100000000E-03 0.  1.
         11   -1    0    0    0    0 -0.00000000000E+00 -0.00000000000E+00 -0.45593999997E+02  0.45594000000E+02  0.51100000000E-03 0. -1.
    9900012    2    1    2    0    0 -0.14047893694E+02  0.58968507214E+00 -0.41060106949E+02  0.47787269265E+02  0.19999991885E+02 0.  0.
        -12    1    1    2    0    0  0.14047893694E+02 -0.58968507214E+00  0.41060106949E+02  0.43400730735E+02  0.00000000000E+00 0.  1.
         11    1    3    3    0    0 -0.12637995026E+02  0.40714533210E+01 -0.25419117577E+02  0.28677991371E+02  0.51100000000E-03 0. -1.
        -11    1    3    3    0    0 -0.49970918162E+01 -0.75473051736E+00 -0.34685122499E+01  0.61295287145E+01  0.51100000000E-03 0.  1.
        -12    1    3    3    0    0  0.35871931482E+01 -0.27270377315E+01 -0.12172477121E+02  0.12979749179E+02  0.00000000000E+00 0.  1.
</event>
<event>
 7    1  0.4011333E-009  0.4778727E+02  0.7816164E-02  0.1312668E+00
        -11   -1    0    0    0    0  0.00000000000E+00  0.00000000000E+00  0.45593999997E+02  0.45594000000E+02  0.51100000000E-03 0.  1.
         11   -1    0    0    0    0 -0.00000000000E+00 -0.00000000000E+00 -0.45593999997E+02  0.45594000000E+02  0.51100000000E-03 0. -1.
    9900012    2    1    2    0    0 -0.26554851201E+02  0.22632557741E+01 -0.34254067233E+02  0.47787267621E+02  0.19999984393E+02 0.  0.
        -12    1    1    2    0    0  0.26554851201E+02 -0.22632557741E+01  0.34254067233E+02  0.43400732379E+02  0.00000000000E+00 0.  1.
         11    1    3    3    0    0 -0.15128248010E+02  0.88513372413E+00 -0.20801611217E+02  0.25736246405E+02  0.51100000000E-03 0. -1.
        -11    1    3    3    0    0 -0.13089354436E+02 -0.24137433614E+01 -0.97833925687E+01  0.16518841575E+02  0.51100000000E-03 0.  1.
        -12    1    3    3    0    0  0.16627512447E+01  0.37918654114E+01 -0.36690634471E+01  0.55321796409E+01  0.00000000000E+00 0.  1.
</event>
<event>
 7    1  0.4011333E-009  0.4778727E+02  0.7816164E-02  0.1312668E+00
        -11   -1    0    0    0    0  0.00000000000E+00  0.00000000000E+00  0.45593999997E+02  0.45594000000E+02  0.51100000000E-03 0. -1.
         11   -1    0    0    0    0 -0.00000000000E+00 -0.00000000000E+00 -0.45593999997E+02  0.45594000000E+02  0.51100000000E-03 0.  1.
    9900012    2    1    2    0    0 -0.91277817923E+01  0.40196976325E+02  0.13583445312E+02  0.47787270828E+02  0.19999999015E+02 0.  0.
        -12    1    1    2    0    0  0.91277817923E+01 -0.40196976325E+02 -0.13583445312E+02  0.43400729172E+02  0.00000000000E+00 0.  1.
         11    1    3    3    0    0 -0.60697752656E+01  0.51827303673E+01  0.58502322348E+01  0.98958619280E+01  0.51100000000E-03 0. -1.
        -11    1    3    3    0    0  0.24995870746E+00  0.98136873443E+01  0.76971247259E+01  0.12474640995E+02  0.51100000000E-03 0.  1.
         12    1    3    3    0    0 -0.33079652342E+01  0.25200558613E+02  0.36088351082E-01  0.25416767906E+02  0.00000000000E+00 0. -1.
</event>
<event>
 7    1  0.4011333E-009  0.4778727E+02  0.7816164E-02  0.1312668E+00
        -11   -1    0    0    0    0  0.00000000000E+00  0.00000000000E+00  0.45593999997E+02  0.45594000000E+02  0.51100000000E-03 0.  1.
         11   -1    0    0    0    0 -0.00000000000E+00 -0.00000000000E+00 -0.45593999997E+02  0.45594000000E+02  0.51100000000E-03 0. -1.
    9900012    2    1    2    0    0  0.11332875746E+02  0.15513100802E+02 -0.38916997642E+02  0.47787273340E+02  0.20000010466E+02 0.  0.
        -12    1    1    2    0    0 -0.11332875746E+02 -0.15513100802E+02  0.38916997642E+02  0.43400726660E+02  0.00000000000E+00 0.  1.
         11    1    3    3    0    0  0.41389313263E+01  0.11811946687E+02 -0.14464904432E+02  0.19128154577E+02  0.51100000000E-03 0. -1.
        -11    1    3    3    0    0  0.38019404449E+01  0.82335026405E+01 -0.12599047993E+02  0.15523573283E+02  0.51100000000E-03 0.  1.
        -12    1    3    3    0    0  0.33920039746E+01 -0.45323485258E+01 -0.11853045218E+02  0.13135545480E+02  0.00000000000E+00 0.  1.
</event>
<event>
 7    1  0.4011333E-009  0.4778727E+02  0.7816164E-02  0.1312668E+00
        -11   -1    0    0    0    0  0.00000000000E+00  0.00000000000E+00  0.45593999997E+02  0.45594000000E+02  0.51100000000E-03 0. -1.
         11   -1    0    0    0    0 -0.00000000000E+00 -0.00000000000E+00 -0.45593999997E+02  0.45594000000E+02  0.51100000000E-03 0.  1.
    9900012    2    1    2    0    0  0.55587285167E+01 -0.47235156804E+01  0.42783315741E+02  0.47787272254E+02  0.20000005513E+02 0.  0.
        -12    1    1    2    0    0 -0.55587285167E+01  0.47235156804E+01 -0.42783315741E+02  0.43400727746E+02  0.00000000000E+00 0.  1.
         11    1    3    3    0    0 -0.16337836059E+01 -0.53081390834E+01  0.58588233567E+01  0.80728805754E+01  0.51100000000E-03 0.  1.
        -11    1    3    3    0    0  0.65484289438E+01 -0.44135812194E+01  0.12575917386E+02  0.14849758220E+02  0.51100000000E-03 0. -1.
        -12    1    3    3    0    0  0.64408317871E+00  0.49982046224E+01  0.24348574998E+02  0.24864633458E+02  0.00000000000E+00 0.  1.
</event>
<event>
 7    1  0.4011333E-009  0.4778726E+02  0.7816164E-02  0.1312668E+00
        -11   -1    0    0    0    0  0.00000000000E+00  0.00000000000E+00  0.45593999997E+02  0.45594000000E+02  0.51100000000E-03 0.  1.
         11   -1    0    0    0    0 -0.00000000000E+00 -0.00000000000E+00 -0.45593999997E+02  0.45594000000E+02  0.51100000000E-03 0. -1.
    9900012    2    1    2    0    0 -0.11450936709E+02 -0.40319239164E+02 -0.11263161520E+02  0.47787264917E+02  0.19999972063E+02 0.  0.
        -12    1    1    2    0    0  0.11450936709E+02  0.40319239164E+02  0.11263161520E+02  0.43400735083E+02  0.00000000000E+00 0.  1.
         11    1    3    3    0    0 -0.51985754830E+01 -0.18064282055E+02 -0.75933748475E+01  0.20273204361E+02  0.51100000000E-03 0. -1.
        -11    1    3    3    0    0 -0.40862177662E+01 -0.23980678175E+02 -0.23305019849E+01  0.24437703270E+02  0.51100000000E-03 0.  1.
        -12    1    3    3    0    0 -0.21661434597E+01  0.17257210650E+01 -0.13392846872E+01  0.30763572867E+01  0.00000000000E+00 0.  1.
</event>
<event>
 7    1  0.4011333E-009  0.4778726E+02  0.7816164E-02  0.1312668E+00
        -11   -1    0    0    0    0  0.00000000000E+00  0.00000000000E+00  0.45593999997E+02  0.45594000000E+02  0.51100000000E-03 0.  1.
         11   -1    0    0    0    0 -0.00000000000E+00 -0.00000000000E+00 -0.45593999997E+02  0.45594000000E+02  0.51100000000E-03 0. -1.
    9900012    2    1    2    0    0 -0.11137394664E+02  0.40156327677E+02  0.12126486333E+02  0.47787264025E+02  0.19999967994E+02 0.  0.
        -12    1    1    2    0    0  0.11137394664E+02 -0.40156327677E+02 -0.12126486333E+02  0.43400735975E+02  0.00000000000E+00 0.  1.
         11    1    3    3    0    0 -0.22682675907E+01  0.11486932451E+02  0.17185086357E+01  0.11834184687E+02  0.51100000000E-03 0. -1.
        -11    1    3    3    0    0 -0.42601865769E+01  0.10009075763E+02 -0.43544558754E+01  0.11717170031E+02  0.51100000000E-03 0.  1.
         12    1    3    3    0    0 -0.46089404959E+01  0.18660319463E+02  0.14762433573E+02  0.24235909307E+02  0.00000000000E+00 0. -1.
</event>
<event>
 7    1  0.4011333E-009  0.4778729E+02  0.7816164E-02  0.1312668E+00
        -11   -1    0    0    0    0  0.00000000000E+00  0.00000000000E+00  0.45593999997E+02  0.45594000000E+02  0.51100000000E-03 0.  1.
         11   -1    0    0    0    0 -0.00000000000E+00 -0.00000000000E+00 -0.45593999997E+02  0.45594000000E+02  0.51100000000E-03 0. -1.
    9900012    2    1    2    0    0  0.16398428476E+02 -0.19543813899E+02 -0.35110578540E+02  0.47787287522E+02  0.20000075127E+02 0.  0.
        -12    1    1    2    0    0 -0.16398428476E+02  0.19543813899E+02  0.35110578540E+02  0.43400712478E+02  0.00000000000E+00 0.  1.
         11    1    3    3    0    0  0.13319531317E+02 -0.20592616362E+02 -0.30397437899E+02  0.39057265575E+02  0.51100000000E-03 0. -1.
        -11    1    3    3    0    0 -0.58796396972E+00  0.15369810153E+00 -0.49127702655E+01  0.49502158215E+01  0.51100000000E-03 0.  1.
        -12    1    3    3    0    0  0.36668611292E+01  0.89510436109E+00  0.19962962456E+00  0.37798061253E+01  0.00000000000E+00 0.  1.
</event>
<event>
 7    1  0.4011333E-009  0.4778727E+02  0.7816164E-02  0.1312668E+00
        -11   -1    0    0    0    0  0.00000000000E+00  0.00000000000E+00  0.45593999997E+02  0.45594000000E+02  0.51100000000E-03 0.  1.
         11   -1    0    0    0    0 -0.00000000000E+00 -0.00000000000E+00 -0.45593999997E+02  0.45594000000E+02  0.51100000000E-03 0. -1.
    9900012    2    1    2    0    0  0.23593566029E+02  0.26348563993E+02 -0.25153928616E+02  0.47787270660E+02  0.19999998245E+02 0.  0.
        -12    1    1    2    0    0 -0.23593566029E+02 -0.26348563993E+02  0.25153928616E+02  0.43400729340E+02  0.00000000000E+00 0.  1.
         11    1    3    3    0    0  0.23685373492E+02  0.26214704967E+02 -0.17769711046E+02  0.39547064428E+02  0.51100000000E-03 0. -1.
        -11    1    3    3    0    0  0.32970998667E+00  0.18467412303E+01 -0.34060734662E+01  0.38885085271E+01  0.51100000000E-03 0.  1.
         12    1    3    3    0    0 -0.42151744948E+00 -0.17128822040E+01 -0.39781441029E+01  0.43516977042E+01  0.00000000000E+00 0. -1.
</event>
<event>
 7    1  0.4011333E-009  0.4778727E+02  0.7816164E-02  0.1312668E+00
        -11   -1    0    0    0    0  0.00000000000E+00  0.00000000000E+00  0.45593999997E+02  0.45594000000E+02  0.51100000000E-03 0.  1.
         11   -1    0    0    0    0 -0.00000000000E+00 -0.00000000000E+00 -0.45593999997E+02  0.45594000000E+02  0.51100000000E-03 0. -1.
    9900012    2    1    2    0    0  0.36679922891E+02 -0.92879338896E+01 -0.21258906673E+02  0.47787267609E+02  0.19999984335E+02 0.  0.
        -12    1    1    2    0    0 -0.36679922891E+02  0.92879338896E+01  0.21258906673E+02  0.43400732391E+02  0.00000000000E+00 0.  1.
         11    1    3    3    0    0  0.11717875565E+02 -0.86943139226E+01 -0.46799914132E+01  0.15323251033E+02  0.51100000000E-03 0. -1.
        -11    1    3    3    0    0  0.17537542658E+01 -0.35970966921E+01 -0.48486800539E+01  0.62868479513E+01  0.51100000000E-03 0.  1.
         12    1    3    3    0    0  0.23208293060E+02  0.30034767251E+01 -0.11730235206E+02  0.26177168624E+02  0.00000000000E+00 0. -1.
</event>
<event>
 7    1  0.4011333E-009  0.4778727E+02  0.7816164E-02  0.1312668E+00
        -11   -1    0    0    0    0  0.00000000000E+00  0.00000000000E+00  0.45593999997E+02  0.45594000000E+02  0.51100000000E-03 0.  1.
         11   -1    0    0    0    0 -0.00000000000E+00 -0.00000000000E+00 -0.45593999997E+02  0.45594000000E+02  0.51100000000E-03 0. -1.
    9900012    2    1    2    0    0  0.23520567518E+02  0.21432880480E+02 -0.29513352169E+02  0.47787269381E+02  0.19999992415E+02 0.  0.
        -12    1    1    2    0    0 -0.23520567518E+02 -0.21432880480E+02  0.29513352169E+02  0.43400730619E+02  0.00000000000E+00 0.  1.
         11    1    3    3    0    0  0.85943235313E+01  0.54132266281E+01 -0.83705012649E+01  0.13161713839E+02  0.51100000000E-03 0. -1.
        -11    1    3    3    0    0  0.11102707072E+02  0.97093425392E+01 -0.30158455530E+01  0.15054459855E+02  0.51100000000E-03 0.  1.
         12    1    3    3    0    0  0.38235369148E+01  0.63103113125E+01 -0.18127005351E+02  0.19571095687E+02  0.00000000000E+00 0. -1.
</event>
<event>
 7    1  0.4011333E-009  0.4778727E+02  0.7816164E-02  0.1312668E+00
        -11   -1    0    0    0    0  0.00000000000E+00  0.00000000000E+00  0.45593999997E+02  0.45594000000E+02  0.51100000000E-03 0.  1.
         11   -1    0    0    0    0 -0.00000000000E+00 -0.00000000000E+00 -0.45593999997E+02  0.45594000000E+02  0.51100000000E-03 0. -1.
    9900012    2    1    2    0    0  0.32703424902E+02 -0.11369158899E+02 -0.26169670437E+02  0.47787269302E+02  0.19999992054E+02 0.  0.
        -12    1    1    2    0    0 -0.32703424902E+02  0.11369158899E+02  0.26169670437E+02  0.43400730698E+02  0.00000000000E+00 0.  1.
         11    1    3    3    0    0 -0.96958962276E+00 -0.44154483968E+01 -0.43235240703E+01  0.62553296659E+01  0.51100000000E-03 0. -1.
        -11    1    3    3    0    0  0.32130933021E+01  0.46095335571E+00  0.12743938898E+00  0.32484900528E+01  0.51100000000E-03 0.  1.
        -12    1    3    3    0    0  0.30459921223E+02 -0.74146638575E+01 -0.21973585755E+02  0.38283449583E+02  0.00000000000E+00 0.  1.
</event>
<event>
 7    1  0.4011333E-009  0.4778727E+02  0.7816164E-02  0.1312668E+00
        -11   -1    0    0    0    0  0.00000000000E+00  0.00000000000E+00  0.45593999997E+02  0.45594000000E+02  0.51100000000E-03 0.  1.
         11   -1    0    0    0    0 -0.00000000000E+00 -0.00000000000E+00 -0.45593999997E+02  0.45594000000E+02  0.51100000000E-03 0. -1.
    9900012    2    1    2    0    0 -0.14074991057E+00 -0.43203631827E+02  0.41291393782E+01  0.47787269527E+02  0.19999993081E+02 0.  0.
        -12    1    1    2    0    0  0.14074991057E+00  0.43203631827E+02 -0.41291393782E+01  0.43400730473E+02  0.00000000000E+00 0.  1.
         11    1    3    3    0    0 -0.46617948043E+01 -0.23097662496E+02  0.15883533001E+01  0.23616884003E+02  0.51100000000E-03 0. -1.
        -11    1    3    3    0    0 -0.28108210588E+01 -0.14108149930E+01 -0.18020376463E+01  0.36247005268E+01  0.51100000000E-03 0.  1.
         12    1    3    3    0    0  0.73318659526E+01 -0.18695154339E+02  0.43428237243E+01  0.20545684997E+02  0.00000000000E+00 0. -1.
</event>
<event>
 7    1  0.4011333E-009  0.4778727E+02  0.7816164E-02  0.1312668E+00
        -11   -1    0    0    0    0  0.00000000000E+00  0.00000000000E+00  0.45593999997E+02  0.45594000000E+02  0.51100000000E-03 0. -1.
         11   -1    0    0    0    0 -0.00000000000E+00 -0.00000000000E+00 -0.45593999997E+02  0.45594000000E+02  0.51100000000E-03 0.  1.
    9900012    2    1    2    0    0 -0.69847758150E+01 -0.28789971342E+02  0.31717089021E+02  0.47787270986E+02  0.19999999732E+02 0.  0.
        -12    1    1    2    0    0  0.69847758150E+01  0.28789971342E+02 -0.31717089021E+02  0.43400729014E+02  0.00000000000E+00 0.  1.
         11    1    3    3    0    0 -0.31438833085E+01 -0.16437856561E+02  0.26466711724E+02  0.31314117588E+02  0.51100000000E-03 0. -1.
        -11    1    3    3    0    0  0.22098370478E+01 -0.27211962522E+01  0.35210771505E+01  0.49685282913E+01  0.51100000000E-03 0.  1.
        -12    1    3    3    0    0 -0.60507295543E+01 -0.96309185287E+01  0.17293001459E+01  0.11504625106E+02  0.00000000000E+00 0.  1.
</event>
<event>
 7    1  0.4011333E-009  0.4778727E+02  0.7816164E-02  0.1312668E+00
        -11   -1    0    0    0    0  0.00000000000E+00  0.00000000000E+00  0.45593999997E+02  0.45594000000E+02  0.51100000000E-03 0. -1.
         11   -1    0    0    0    0 -0.00000000000E+00 -0.00000000000E+00 -0.45593999997E+02  0.45594000000E+02  0.51100000000E-03 0.  1.
    9900012    2    1    2    0    0 -0.27327417685E+02 -0.33413322531E+02 -0.45150684997E+01  0.47787265865E+02  0.19999976386E+02 0.  0.
        -12    1    1    2    0    0  0.27327417685E+02  0.33413322531E+02  0.45150684997E+01  0.43400734135E+02  0.00000000000E+00 0.  1.
         11    1    3    3    0    0 -0.67037099477E+01 -0.10445555466E+02  0.43811352566E+01  0.13162207355E+02  0.51100000000E-03 0. -1.
        -11    1    3    3    0    0 -0.12568067498E+02 -0.14236405772E+02  0.12089886570E+01  0.19028747299E+02  0.51100000000E-03 0.  1.
        -12    1    3    3    0    0 -0.80556402384E+01 -0.87313612937E+01 -0.10105192413E+02  0.15596311211E+02  0.00000000000E+00 0.  1.
</event>
<event>
 7    1  0.4011333E-009  0.4778727E+02  0.7816164E-02  0.1312668E+00
        -11   -1    0    0    0    0  0.00000000000E+00  0.00000000000E+00  0.45593999997E+02  0.45594000000E+02  0.51100000000E-03 0.  1.
         11   -1    0    0    0    0 -0.00000000000E+00 -0.00000000000E+00 -0.45593999997E+02  0.45594000000E+02  0.51100000000E-03 0. -1.
    9900012    2    1    2    0    0 -0.39650545800E+02  0.17417540240E+02 -0.28436774124E+01  0.47787274298E+02  0.20000014834E+02 0.  0.
        -12    1    1    2    0    0  0.39650545800E+02 -0.17417540240E+02  0.28436774124E+01  0.43400725702E+02  0.00000000000E+00 0.  1.
         11    1    3    3    0    0 -0.30794651292E+02  0.10668724423E+02  0.23142836374E+01  0.32672436977E+02  0.51100000000E-03 0. -1.
        -11    1    3    3    0    0 -0.10157431157E+02  0.75478711770E+01 -0.43139448910E+01  0.13369887352E+02  0.51100000000E-03 0.  1.
        -12    1    3    3    0    0  0.13015366492E+01 -0.79905536012E+00 -0.84401615883E+00  0.17449499689E+01  0.00000000000E+00 0.  1.
</event>
<event>
 7    1  0.4011333E-009  0.4778727E+02  0.7816164E-02  0.1312668E+00
        -11   -1    0    0    0    0  0.00000000000E+00  0.00000000000E+00  0.45593999997E+02  0.45594000000E+02  0.51100000000E-03 0.  1.
         11   -1    0    0    0    0 -0.00000000000E+00 -0.00000000000E+00 -0.45593999997E+02  0.45594000000E+02  0.51100000000E-03 0. -1.
    9900012    2    1    2    0    0  0.30294352449E+02 -0.95625183390E+01 -0.29570827241E+02  0.47787269926E+02  0.19999994899E+02 0.  0.
        -12    1    1    2    0    0 -0.30294352449E+02  0.95625183390E+01  0.29570827241E+02  0.43400730074E+02  0.00000000000E+00 0.  1.
         11    1    3    3    0    0  0.22012592378E+02 -0.70494499827E+01 -0.18687740937E+02  0.29723402057E+02  0.51100000000E-03 0. -1.
        -11    1    3    3    0    0  0.87352432158E+01  0.23564704212E+01 -0.91697147267E+01  0.12881812579E+02  0.51100000000E-03 0.  1.
         12    1    3    3    0    0 -0.45348314435E+00 -0.48695387776E+01 -0.17133715766E+01  0.51820552900E+01  0.00000000000E+00 0. -1.
</event>
<event>
 7    1  0.4011333E-009  0.4778727E+02  0.7816164E-02  0.1312668E+00
        -11   -1    0    0    0    0  0.00000000000E+00  0.00000000000E+00  0.45593999997E+02  0.45594000000E+02  0.51100000000E-03 0.  1.
         11   -1    0    0    0    0 -0.00000000000E+00 -0.00000000000E+00 -0.45593999997E+02  0.45594000000E+02  0.51100000000E-03 0. -1.
    9900012    2    1    2    0    0  0.41002263742E+02  0.11664023787E+02 -0.81479040083E+01  0.47787269331E+02  0.19999992189E+02 0.  0.
        -12    1    1    2    0    0 -0.41002263742E+02 -0.11664023787E+02  0.81479040083E+01  0.43400730669E+02  0.00000000000E+00 0.  1.
         11    1    3    3    0    0  0.12801607371E+02  0.47289977721E+01 -0.89385633740E+00  0.13676386606E+02  0.51100000000E-03 0. -1.
        -11    1    3    3    0    0  0.25023279906E+02  0.26125551668E+01 -0.88245023997E-01  0.25159446917E+02  0.51100000000E-03 0.  1.
        -12    1    3    3    0    0  0.31773764652E+01  0.43224708485E+01 -0.71658026469E+01  0.89514358073E+01  0.00000000000E+00 0.  1.
</event>
<event>
 7    1  0.4011333E-009  0.4778727E+02  0.7816164E-02  0.1312668E+00
        -11   -1    0    0    0    0  0.00000000000E+00  0.00000000000E+00  0.45593999997E+02  0.45594000000E+02  0.51100000000E-03 0.  1.
         11   -1    0    0    0    0 -0.00000000000E+00 -0.00000000000E+00 -0.45593999997E+02  0.45594000000E+02  0.51100000000E-03 0. -1.
    9900012    2    1    2    0    0 -0.19873138122E+02  0.31212793691E+02 -0.22681342323E+02  0.47787269610E+02  0.19999993461E+02 0.  0.
        -12    1    1    2    0    0  0.19873138122E+02 -0.31212793691E+02  0.22681342323E+02  0.43400730390E+02  0.00000000000E+00 0.  1.
         11    1    3    3    0    0 -0.49085431595E+01  0.32531900267E+01 -0.11137505020E+01  0.59931195333E+01  0.51100000000E-03 0. -1.
        -11    1    3    3    0    0 -0.14894624977E+02  0.10242035719E+02 -0.10529139333E+02  0.20919175993E+02  0.51100000000E-03 0.  1.
         12    1    3    3    0    0 -0.69969985908E-01  0.17717567945E+02 -0.11038452489E+02  0.20874974084E+02  0.00000000000E+00 0. -1.
</event>
<event>
 7    1  0.4011333E-009  0.4778727E+02  0.7816164E-02  0.1312668E+00
        -11   -1    0    0    0    0  0.00000000000E+00  0.00000000000E+00  0.45593999997E+02  0.45594000000E+02  0.51100000000E-03 0. -1.
         11   -1    0    0    0    0 -0.00000000000E+00 -0.00000000000E+00 -0.45593999997E+02  0.45594000000E+02  0.51100000000E-03 0.  1.
    9900012    2    1    2    0    0  0.24657359400E+02 -0.35065911892E+02  0.67837801268E+01  0.47787271639E+02  0.20000002713E+02 0.  0.
        -12    1    1    2    0    0 -0.24657359400E+02  0.35065911892E+02 -0.67837801268E+01  0.43400728361E+02  0.00000000000E+00 0.  1.
         11    1    3    3    0    0  0.13597926464E+02 -0.92019812447E+01 -0.12587504779E+01  0.16467073692E+02  0.51100000000E-03 0. -1.
        -11    1    3    3    0    0  0.92927083877E+01 -0.19420180971E+02  0.91184147072E+00  0.21548301865E+02  0.51100000000E-03 0.  1.
         12    1    3    3    0    0  0.17667245484E+01 -0.64437496764E+01  0.71306891340E+01  0.97718960825E+01  0.00000000000E+00 0. -1.
</event>
<event>
 7    1  0.4011333E-009  0.4778727E+02  0.7816164E-02  0.1312668E+00
        -11   -1    0    0    0    0  0.00000000000E+00  0.00000000000E+00  0.45593999997E+02  0.45594000000E+02  0.51100000000E-03 0.  1.
         11   -1    0    0    0    0 -0.00000000000E+00 -0.00000000000E+00 -0.45593999997E+02  0.45594000000E+02  0.51100000000E-03 0. -1.
    9900012    2    1    2    0    0  0.54654811891E+00 -0.28734661487E+02 -0.32521438071E+02  0.47787269363E+02  0.19999992332E+02 0.  0.
        -12    1    1    2    0    0 -0.54654811891E+00  0.28734661487E+02  0.32521438071E+02  0.43400730637E+02  0.00000000000E+00 0.  1.
         11    1    3    3    0    0  0.11638986346E+01  0.49420883465E+00  0.58310029301E+00  0.13924469889E+01  0.51100000000E-03 0. -1.
        -11    1    3    3    0    0 -0.45600118959E+01 -0.34502371289E+01 -0.26558809825E+01  0.63048829323E+01  0.51100000000E-03 0.  1.
         12    1    3    3    0    0  0.39426613801E+01 -0.25778633193E+02 -0.30448657382E+02  0.40089939441E+02  0.00000000000E+00 0. -1.
</event>
<event>
 7    1  0.4011333E-009  0.4778727E+02  0.7816164E-02  0.1312668E+00
        -11   -1    0    0    0    0  0.00000000000E+00  0.00000000000E+00  0.45593999997E+02  0.45594000000E+02  0.51100000000E-03 0. -1.
         11   -1    0    0    0    0 -0.00000000000E+00 -0.00000000000E+00 -0.45593999997E+02  0.45594000000E+02  0.51100000000E-03 0.  1.
    9900012    2    1    2    0    0 -0.17132212554E+02  0.29288999989E+02  0.27060393092E+02  0.47787273029E+02  0.20000009047E+02 0.  0.
        -12    1    1    2    0    0  0.17132212554E+02 -0.29288999989E+02 -0.27060393092E+02  0.43400726971E+02  0.00000000000E+00 0.  1.
         11    1    3    3    0    0 -0.53667252162E+01  0.98877839910E+01  0.35724249249E+00  0.11256004365E+02  0.51100000000E-03 0. -1.
        -11    1    3    3    0    0  0.12524263660E+01  0.62851260099E+01  0.59805497741E+01  0.87657490624E+01  0.51100000000E-03 0.  1.
         12    1    3    3    0    0 -0.13017913704E+02  0.13116089988E+02  0.20722600826E+02  0.27765519602E+02  0.00000000000E+00 0. -1.
</event>
<event>
 7    1  0.4011333E-009  0.4778728E+02  0.7816164E-02  0.1312668E+00
        -11   -1    0    0    0    0  0.00000000000E+00  0.00000000000E+00  0.45593999997E+02  0.45594000000E+02  0.51100000000E-03 0. -1.
         11   -1    0    0    0    0 -0.00000000000E+00 -0.00000000000E+00 -0.45593999997E+02  0.45594000000E+02  0.51100000000E-03 0.  1.
    9900012    2    1    2    0    0  0.12776679391E+02 -0.40405703216E+02 -0.93679087080E+01  0.47787284543E+02  0.20000061544E+02 0.  0.
        -12    1    1    2    0    0 -0.12776679391E+02  0.40405703216E+02  0.93679087080E+01  0.43400715457E+02  0.00000000000E+00 0.  1.
         11    1    3    3    0    0  0.12936754952E+02 -0.19323052031E+02  0.48806976445E+00  0.23258937655E+02  0.51100000000E-03 0. -1.
        -11    1    3    3    0    0  0.21227818360E+01 -0.18241248545E+01 -0.26056544935E+01  0.38240122658E+01  0.51100000000E-03 0.  1.
        -12    1    3    3    0    0 -0.22828573976E+01 -0.19258526330E+02 -0.72503239789E+01  0.20704334621E+02  0.00000000000E+00 0.  1.
</event>
<event>
 7    1  0.4011333E-009  0.4778726E+02  0.7816164E-02  0.1312668E+00
        -11   -1    0    0    0    0  0.00000000000E+00  0.00000000000E+00  0.45593999997E+02  0.45594000000E+02  0.51100000000E-03 0. -1.
         11   -1    0    0    0    0 -0.00000000000E+00 -0.00000000000E+00 -0.45593999997E+02  0.45594000000E+02  0.51100000000E-03 0.  1.
    9900012    2    1    2    0    0  0.30975157667E+02 -0.19042536695E+02 -0.23696958014E+02  0.47787257894E+02  0.19999940040E+02 0.  0.
        -12    1    1    2    0    0 -0.30975157667E+02  0.19042536695E+02  0.23696958014E+02  0.43400742106E+02  0.00000000000E+00 0.  1.
         11    1    3    3    0    0  0.27780609897E+02 -0.13664441136E+02 -0.18245728796E+02  0.35935857544E+02  0.51100000000E-03 0.  1.
        -11    1    3    3    0    0  0.52033547683E+01 -0.31717588037E+01 -0.55690210876E+00  0.61192397382E+01  0.51100000000E-03 0. -1.
        -12    1    3    3    0    0 -0.20088069985E+01 -0.22063367549E+01 -0.48943271086E+01  0.57321606118E+01  0.00000000000E+00 0.  1.
</event>
<event>
 7    1  0.4011333E-009  0.4778727E+02  0.7816164E-02  0.1312668E+00
        -11   -1    0    0    0    0  0.00000000000E+00  0.00000000000E+00  0.45593999997E+02  0.45594000000E+02  0.51100000000E-03 0.  1.
         11   -1    0    0    0    0 -0.00000000000E+00 -0.00000000000E+00 -0.45593999997E+02  0.45594000000E+02  0.51100000000E-03 0. -1.
    9900012    2    1    2    0    0 -0.11647750822E+02  0.30219673021E+02 -0.28891597794E+02  0.47787272358E+02  0.20000005990E+02 0.  0.
        -12    1    1    2    0    0  0.11647750822E+02 -0.30219673021E+02  0.28891597794E+02  0.43400727642E+02  0.00000000000E+00 0.  1.
         11    1    3    3    0    0  0.36681089585E+00  0.26847677219E+00 -0.40066584239E+01  0.40323618387E+01  0.51100000000E-03 0. -1.
        -11    1    3    3    0    0  0.28436339167E+01  0.56038705852E+01 -0.93791497293E+01  0.11289732915E+02  0.51100000000E-03 0.  1.
         12    1    3    3    0    0 -0.14858195635E+02  0.24347325664E+02 -0.15505789641E+02  0.32465177605E+02  0.00000000000E+00 0. -1.
</event>
<event>
 7    1  0.4011333E-009  0.4778727E+02  0.7816164E-02  0.1312668E+00
        -11   -1    0    0    0    0  0.00000000000E+00  0.00000000000E+00  0.45593999997E+02  0.45594000000E+02  0.51100000000E-03 0.  1.
         11   -1    0    0    0    0 -0.00000000000E+00 -0.00000000000E+00 -0.45593999997E+02  0.45594000000E+02  0.51100000000E-03 0. -1.
    9900012    2    1    2    0    0  0.18355604868E+02 -0.15368744589E+02 -0.36200781074E+02  0.47787273155E+02  0.20000009623E+02 0.  0.
        -12    1    1    2    0    0 -0.18355604868E+02  0.15368744589E+02  0.36200781074E+02  0.43400726845E+02  0.00000000000E+00 0.  1.
         11    1    3    3    0    0  0.14572903151E+02 -0.10680145030E+02 -0.27359368432E+02  0.32786735815E+02  0.51100000000E-03 0. -1.
        -11    1    3    3    0    0  0.31986070616E+01  0.21521507583E+01 -0.68357254215E+01  0.78479285369E+01  0.51100000000E-03 0.  1.
        -12    1    3    3    0    0  0.58409465516E+00 -0.68407503173E+01 -0.20056872200E+01  0.71526088034E+01  0.00000000000E+00 0.  1.
</event>
<event>
 7    1  0.4011333E-009  0.4778727E+02  0.7816164E-02  0.1312668E+00
        -11   -1    0    0    0    0  0.00000000000E+00  0.00000000000E+00  0.45593999997E+02  0.45594000000E+02  0.51100000000E-03 0.  1.
         11   -1    0    0    0    0 -0.00000000000E+00 -0.00000000000E+00 -0.45593999997E+02  0.45594000000E+02  0.51100000000E-03 0. -1.
    9900012    2    1    2    0    0 -0.13238472488E+02  0.14771321675E+02 -0.38602779083E+02  0.47787266702E+02  0.19999980202E+02 0.  0.
        -12    1    1    2    0    0  0.13238472488E+02 -0.14771321675E+02  0.38602779083E+02  0.43400733298E+02  0.00000000000E+00 0.  1.
         11    1    3    3    0    0 -0.82262704303E+00 -0.62433988946E+00 -0.41006647831E+01  0.42287075418E+01  0.51100000000E-03 0. -1.
        -11    1    3    3    0    0 -0.64061849118E+01  0.18922796151E+01 -0.76207328374E+00  0.67231453366E+01  0.51100000000E-03 0.  1.
         12    1    3    3    0    0 -0.60096605333E+01  0.13503381949E+02 -0.33740041016E+02  0.36835413824E+02  0.00000000000E+00 0. -1.
</event>
<event>
 7    1  0.4011333E-009  0.4778727E+02  0.7816164E-02  0.1312668E+00
        -11   -1    0    0    0    0  0.00000000000E+00  0.00000000000E+00  0.45593999997E+02  0.45594000000E+02  0.51100000000E-03 0.  1.
         11   -1    0    0    0    0 -0.00000000000E+00 -0.00000000000E+00 -0.45593999997E+02  0.45594000000E+02  0.51100000000E-03 0. -1.
    9900012    2    1    2    0    0  0.97596561590E+01  0.27941956664E+02 -0.31743028010E+02  0.47787266621E+02  0.19999979833E+02 0.  0.
        -12    1    1    2    0    0 -0.97596561590E+01 -0.27941956664E+02  0.31743028010E+02  0.43400733379E+02  0.00000000000E+00 0.  1.
         11    1    3    3    0    0  0.55660830393E+01  0.86820718119E+01 -0.22150696787E+02  0.24433849876E+02  0.51100000000E-03 0. -1.
        -11    1    3    3    0    0  0.62545001351E-01  0.10388074376E+02 -0.86566705772E+01  0.13522349902E+02  0.51100000000E-03 0.  1.
        -12    1    3    3    0    0  0.41310281184E+01  0.88718104763E+01 -0.93566064572E+00  0.98310668437E+01  0.00000000000E+00 0.  1.
</event>
<event>
 7    1  0.4011333E-009  0.4778727E+02  0.7816164E-02  0.1312668E+00
        -11   -1    0    0    0    0  0.00000000000E+00  0.00000000000E+00  0.45593999997E+02  0.45594000000E+02  0.51100000000E-03 0.  1.
         11   -1    0    0    0    0 -0.00000000000E+00 -0.00000000000E+00 -0.45593999997E+02  0.45594000000E+02  0.51100000000E-03 0. -1.
    9900012    2    1    2    0    0  0.10252276269E+01  0.25075560271E+02 -0.35408877905E+02  0.47787269026E+02  0.19999990798E+02 0.  0.
        -12    1    1    2    0    0 -0.10252276269E+01 -0.25075560271E+02  0.35408877905E+02  0.43400730974E+02  0.00000000000E+00 0.  1.
         11    1    3    3    0    0  0.33590126282E+01  0.10364818215E+02 -0.63279301471E+01  0.12599806454E+02  0.51100000000E-03 0. -1.
        -11    1    3    3    0    0 -0.85538615048E+00 -0.14139741448E+01  0.26205764350E+00  0.16732252742E+01  0.51100000000E-03 0.  1.
        -12    1    3    3    0    0 -0.14783988508E+01  0.16124716201E+02 -0.29343005401E+02  0.33514237298E+02  0.00000000000E+00 0.  1.
</event>
<event>
 7    1  0.4011333E-009  0.4778727E+02  0.7816164E-02  0.1312668E+00
        -11   -1    0    0    0    0  0.00000000000E+00  0.00000000000E+00  0.45593999997E+02  0.45594000000E+02  0.51100000000E-03 0.  1.
         11   -1    0    0    0    0 -0.00000000000E+00 -0.00000000000E+00 -0.45593999997E+02  0.45594000000E+02  0.51100000000E-03 0. -1.
    9900012    2    1    2    0    0 -0.42703581309E+02  0.58174277023E+01 -0.51171262400E+01  0.47787270714E+02  0.19999998491E+02 0.  0.
        -12    1    1    2    0    0  0.42703581309E+02 -0.58174277023E+01  0.51171262400E+01  0.43400729286E+02  0.00000000000E+00 0.  1.
         11    1    3    3    0    0 -0.23409712231E+02  0.61418230953E+01 -0.95064990535E+01  0.26002118032E+02  0.51100000000E-03 0. -1.
        -11    1    3    3    0    0 -0.18204574019E+02  0.10579645321E+01  0.13654331614E+01  0.18286339496E+02  0.51100000000E-03 0.  1.
        -12    1    3    3    0    0 -0.10892950587E+01 -0.13823599251E+01  0.30239396521E+01  0.34988131855E+01  0.00000000000E+00 0.  1.
</event>
<event>
 7    1  0.4011333E-009  0.4778727E+02  0.7816164E-02  0.1312668E+00
        -11   -1    0    0    0    0  0.00000000000E+00  0.00000000000E+00  0.45593999997E+02  0.45594000000E+02  0.51100000000E-03 0.  1.
         11   -1    0    0    0    0 -0.00000000000E+00 -0.00000000000E+00 -0.45593999997E+02  0.45594000000E+02  0.51100000000E-03 0. -1.
    9900012    2    1    2    0    0 -0.14258720709E+02  0.39019059674E+02 -0.12562866815E+02  0.47787265482E+02  0.19999974639E+02 0.  0.
        -12    1    1    2    0    0  0.14258720709E+02 -0.39019059674E+02  0.12562866815E+02  0.43400734518E+02  0.00000000000E+00 0.  1.
         11    1    3    3    0    0 -0.34053429529E+01  0.15663178426E+02 -0.59678380321E+01  0.17103993980E+02  0.51100000000E-03 0. -1.
        -11    1    3    3    0    0 -0.46776330616E+01  0.22908804013E+02 -0.71921599131E+01  0.24462639205E+02  0.51100000000E-03 0.  1.
        -12    1    3    3    0    0 -0.61757446949E+01  0.44707723391E+00  0.59713112980E+00  0.62206322971E+01  0.00000000000E+00 0.  1.
</event>
<event>
 7    1  0.4011333E-009  0.4778727E+02  0.7816164E-02  0.1312668E+00
        -11   -1    0    0    0    0  0.00000000000E+00  0.00000000000E+00  0.45593999997E+02  0.45594000000E+02  0.51100000000E-03 0.  1.
         11   -1    0    0    0    0 -0.00000000000E+00 -0.00000000000E+00 -0.45593999997E+02  0.45594000000E+02  0.51100000000E-03 0. -1.
    9900012    2    1    2    0    0  0.21916409484E+02 -0.23552635390E+02 -0.29130185611E+02  0.47787270142E+02  0.19999995886E+02 0.  0.
        -12    1    1    2    0    0 -0.21916409484E+02  0.23552635390E+02  0.29130185611E+02  0.43400729858E+02  0.00000000000E+00 0.  1.
         11    1    3    3    0    0  0.89306286896E+01 -0.12539399630E+02 -0.17321387994E+02  0.23173760035E+02  0.51100000000E-03 0. -1.
        -11    1    3    3    0    0 -0.21992949869E+01  0.79729232823E+00 -0.96643316505E+00  0.25311196770E+01  0.51100000000E-03 0.  1.
         12    1    3    3    0    0  0.15185075781E+02 -0.11810528088E+02 -0.10842364452E+02  0.22082390430E+02  0.00000000000E+00 0. -1.
</event>
<event>
 7    1  0.4011333E-009  0.4778727E+02  0.7816164E-02  0.1312668E+00
        -11   -1    0    0    0    0  0.00000000000E+00  0.00000000000E+00  0.45593999997E+02  0.45594000000E+02  0.51100000000E-03 0.  1.
         11   -1    0    0    0    0 -0.00000000000E+00 -0.00000000000E+00 -0.45593999997E+02  0.45594000000E+02  0.51100000000E-03 0. -1.
    9900012    2    1    2    0    0  0.28459527075E+00  0.41939424773E+02 -0.11163638744E+02  0.47787272186E+02  0.20000005206E+02 0.  0.
        -12    1    1    2    0    0 -0.28459527075E+00 -0.41939424773E+02  0.11163638744E+02  0.43400727814E+02  0.00000000000E+00 0.  1.
         11    1    3    3    0    0  0.92390152675E+00  0.23988554655E+02 -0.37124558745E+01  0.24291699762E+02  0.51100000000E-03 0. -1.
        -11    1    3    3    0    0  0.57300896646E+01  0.12527750901E+02 -0.33427304297E+01  0.14175765136E+02  0.51100000000E-03 0.  1.
        -12    1    3    3    0    0 -0.63693959206E+01  0.54231192171E+01 -0.41084524397E+01  0.93198072880E+01  0.00000000000E+00 0.  1.
</event>
<event>
 7    1  0.4011333E-009  0.4778727E+02  0.7816164E-02  0.1312668E+00
        -11   -1    0    0    0    0  0.00000000000E+00  0.00000000000E+00  0.45593999997E+02  0.45594000000E+02  0.51100000000E-03 0.  1.
         11   -1    0    0    0    0 -0.00000000000E+00 -0.00000000000E+00 -0.45593999997E+02  0.45594000000E+02  0.51100000000E-03 0. -1.
    9900012    2    1    2    0    0 -0.13943277650E+02  0.32998595990E+02 -0.24501040013E+02  0.47787270852E+02  0.19999999121E+02 0.  0.
        -12    1    1    2    0    0  0.13943277650E+02 -0.32998595990E+02  0.24501040013E+02  0.43400729148E+02  0.00000000000E+00 0.  1.
         11    1    3    3    0    0 -0.12654048206E+02  0.32572199037E+02 -0.23515498916E+02  0.42119494010E+02  0.51100000000E-03 0. -1.
        -11    1    3    3    0    0 -0.33716949054E+01 -0.19453110355E+00 -0.89004705835E+00  0.34926140515E+01  0.51100000000E-03 0.  1.
        -12    1    3    3    0    0  0.20824654621E+01  0.62092805609E+00 -0.95494038198E-01  0.21751627900E+01  0.00000000000E+00 0.  1.
</event>
<event>
 7    1  0.4011333E-009  0.4778727E+02  0.7816164E-02  0.1312668E+00
        -11   -1    0    0    0    0  0.00000000000E+00  0.00000000000E+00  0.45593999997E+02  0.45594000000E+02  0.51100000000E-03 0.  1.
         11   -1    0    0    0    0 -0.00000000000E+00 -0.00000000000E+00 -0.45593999997E+02  0.45594000000E+02  0.51100000000E-03 0. -1.
    9900012    2    1    2    0    0  0.26795117437E+02 -0.14594729192E+02 -0.30864846383E+02  0.47787272115E+02  0.20000004882E+02 0.  0.
        -12    1    1    2    0    0 -0.26795117437E+02  0.14594729192E+02  0.30864846383E+02  0.43400727885E+02  0.00000000000E+00 0.  1.
         11    1    3    3    0    0  0.15302165362E+01 -0.57390529110E+01 -0.12863798508E+02  0.14168825049E+02  0.51100000000E-03 0.  1.
        -11    1    3    3    0    0  0.40278520734E+01 -0.39873542883E+01 -0.53291169790E+00  0.56926779010E+01  0.51100000000E-03 0. -1.
        -12    1    3    3    0    0  0.21237048828E+02 -0.48683219925E+01 -0.17468136177E+02  0.27925769165E+02  0.00000000000E+00 0.  1.
</event>
<event>
 7    1  0.4011333E-009  0.4778727E+02  0.7816164E-02  0.1312668E+00
        -11   -1    0    0    0    0  0.00000000000E+00  0.00000000000E+00  0.45593999997E+02  0.45594000000E+02  0.51100000000E-03 0.  1.
         11   -1    0    0    0    0 -0.00000000000E+00 -0.00000000000E+00 -0.45593999997E+02  0.45594000000E+02  0.51100000000E-03 0. -1.
    9900012    2    1    2    0    0  0.42822980301E+02 -0.36129860018E+01  0.60631800569E+01  0.47787268876E+02  0.19999990113E+02 0.  0.
        -12    1    1    2    0    0 -0.42822980301E+02  0.36129860018E+01 -0.60631800569E+01  0.43400731124E+02  0.00000000000E+00 0.  1.
         11    1    3    3    0    0  0.14186917795E+02  0.49744408494E+01 -0.97973634967E+00  0.15065642431E+02  0.51100000000E-03 0. -1.
        -11    1    3    3    0    0  0.20558644948E+02 -0.31735425751E+01  0.15043915677E+00  0.20802689412E+02  0.51100000000E-03 0.  1.
        -12    1    3    3    0    0  0.80774175583E+01 -0.54138842762E+01  0.68924772498E+01  0.11918937033E+02  0.00000000000E+00 0.  1.
</event>
<event>
 7    1  0.4011333E-009  0.4778727E+02  0.7816164E-02  0.1312668E+00
        -11   -1    0    0    0    0  0.00000000000E+00  0.00000000000E+00  0.45593999997E+02  0.45594000000E+02  0.51100000000E-03 0.  1.
         11   -1    0    0    0    0 -0.00000000000E+00 -0.00000000000E+00 -0.45593999997E+02  0.45594000000E+02  0.51100000000E-03 0. -1.
    9900012    2    1    2    0    0 -0.77215610323E+01 -0.36372080432E+02 -0.22384654251E+02  0.47787268604E+02  0.19999988875E+02 0.  0.
        -12    1    1    2    0    0  0.77215610323E+01  0.36372080432E+02  0.22384654251E+02  0.43400731396E+02  0.00000000000E+00 0.  1.
         11    1    3    3    0    0 -0.96445324997E+00 -0.11539587489E+02 -0.39999510692E+01  0.12251198239E+02  0.51100000000E-03 0. -1.
        -11    1    3    3    0    0 -0.11030148428E+01 -0.24575250096E+02 -0.13506178020E+02  0.28063791690E+02  0.51100000000E-03 0.  1.
        -12    1    3    3    0    0 -0.56540929396E+01 -0.25724284734E+00 -0.48785251618E+01  0.74722786756E+01  0.00000000000E+00 0.  1.
</event>
<event>
 7    1  0.4011333E-009  0.4778727E+02  0.7816164E-02  0.1312668E+00
        -11   -1    0    0    0    0  0.00000000000E+00  0.00000000000E+00  0.45593999997E+02  0.45594000000E+02  0.51100000000E-03 0.  1.
         11   -1    0    0    0    0 -0.00000000000E+00 -0.00000000000E+00 -0.45593999997E+02  0.45594000000E+02  0.51100000000E-03 0. -1.
    9900012    2    1    2    0    0 -0.86466700735E+00  0.42858978736E+02 -0.67811022692E+01  0.47787273562E+02  0.20000011479E+02 0.  0.
        -12    1    1    2    0    0  0.86466700735E+00 -0.42858978736E+02  0.67811022692E+01  0.43400726438E+02  0.00000000000E+00 0.  1.
         11    1    3    3    0    0  0.11284221465E+01  0.62813621189E+01  0.57658170444E+00  0.64079086551E+01  0.51100000000E-03 0. -1.
        -11    1    3    3    0    0 -0.70771732030E+01  0.48466011312E+01 -0.12469632195E+01  0.86678048318E+01  0.51100000000E-03 0.  1.
        -12    1    3    3    0    0  0.50840840492E+01  0.31731015486E+02 -0.61107207542E+01  0.32711560075E+02  0.00000000000E+00 0.  1.
</event>
<event>
 7    1  0.4011333E-009  0.4778727E+02  0.7816164E-02  0.1312668E+00
        -11   -1    0    0    0    0  0.00000000000E+00  0.00000000000E+00  0.45593999997E+02  0.45594000000E+02  0.51100000000E-03 0. -1.
         11   -1    0    0    0    0 -0.00000000000E+00 -0.00000000000E+00 -0.45593999997E+02  0.45594000000E+02  0.51100000000E-03 0.  1.
    9900012    2    1    2    0    0  0.23082616019E+02  0.28471885880E+02  0.23241505478E+02  0.47787273915E+02  0.20000013086E+02 0.  0.
        -12    1    1    2    0    0 -0.23082616019E+02 -0.28471885880E+02 -0.23241505478E+02  0.43400726085E+02  0.00000000000E+00 0.  1.
         11    1    3    3    0    0  0.20369443993E+01 -0.68606503476E-01  0.14614816243E+01  0.25079430092E+01  0.51100000000E-03 0.  1.
        -11    1    3    3    0    0  0.13856547370E+02  0.95830664147E+01  0.18001418559E+02  0.24655428151E+02  0.51100000000E-03 0. -1.
         12    1    3    3    0    0  0.71891242503E+01  0.18957425969E+02  0.37786052945E+01  0.20623902754E+02  0.00000000000E+00 0. -1.
</event>
<event>
 7    1  0.4011333E-009  0.4778727E+02  0.7816164E-02  0.1312668E+00
        -11   -1    0    0    0    0  0.00000000000E+00  0.00000000000E+00  0.45593999997E+02  0.45594000000E+02  0.51100000000E-03 0.  1.
         11   -1    0    0    0    0 -0.00000000000E+00 -0.00000000000E+00 -0.45593999997E+02  0.45594000000E+02  0.51100000000E-03 0. -1.
    9900012    2    1    2    0    0  0.93479540073E+01  0.16369115127E+02 -0.39093366972E+02  0.47787268262E+02  0.19999987316E+02 0.  0.
        -12    1    1    2    0    0 -0.93479540073E+01 -0.16369115127E+02  0.39093366972E+02  0.43400731738E+02  0.00000000000E+00 0.  1.
         11    1    3    3    0    0  0.35991857131E+01  0.87005421228E+01 -0.92517222438E+01  0.13200300594E+02  0.51100000000E-03 0. -1.
        -11    1    3    3    0    0  0.10366580085E+02  0.32778068845E+01 -0.15944636299E+02  0.19298741607E+02  0.51100000000E-03 0.  1.
         12    1    3    3    0    0 -0.46178117907E+01  0.43907661198E+01 -0.13897008429E+02  0.15288226062E+02  0.00000000000E+00 0. -1.
</event>
<event>
 7    1  0.4011333E-009  0.4778730E+02  0.7816164E-02  0.1312668E+00
        -11   -1    0    0    0    0  0.00000000000E+00  0.00000000000E+00  0.45593999997E+02  0.45594000000E+02  0.51100000000E-03 0.  1.
         11   -1    0    0    0    0 -0.00000000000E+00 -0.00000000000E+00 -0.45593999997E+02  0.45594000000E+02  0.51100000000E-03 0. -1.
    9900012    2    1    2    0    0  0.22665291913E+02  0.23396400440E+01 -0.36938205508E+02  0.47787304162E+02  0.20000150996E+02 0.  0.
        -12    1    1    2    0    0 -0.22665291913E+02 -0.23396400440E+01  0.36938205508E+02  0.43400695838E+02  0.00000000000E+00 0.  1.
         11    1    3    3    0    0  0.15814284228E+01  0.21368483030E+01 -0.15221385731E+02  0.15451783727E+02  0.51100000000E-03 0. -1.
        -11    1    3    3    0    0  0.86071079797E+01 -0.52295243354E+00 -0.16841020598E+02  0.18920247411E+02  0.51100000000E-03 0.  1.
        -12    1    3    3    0    0  0.12476755511E+02  0.72574417447E+00 -0.48757991789E+01  0.13415273024E+02  0.00000000000E+00 0.  1.
</event>
<event>
 7    1  0.4011333E-009  0.4778727E+02  0.7816164E-02  0.1312668E+00
        -11   -1    0    0    0    0  0.00000000000E+00  0.00000000000E+00  0.45593999997E+02  0.45594000000E+02  0.51100000000E-03 0.  1.
         11   -1    0    0    0    0 -0.00000000000E+00 -0.00000000000E+00 -0.45593999997E+02  0.45594000000E+02  0.51100000000E-03 0. -1.
    9900012    2    1    2    0    0 -0.59540838184E+01  0.15483981869E+02 -0.40105094613E+02  0.47787269331E+02  0.19999992190E+02 0.  0.
        -12    1    1    2    0    0  0.59540838184E+01 -0.15483981869E+02  0.40105094613E+02  0.43400730669E+02  0.00000000000E+00 0.  1.
         11    1    3    3    0    0 -0.66230404881E+01  0.46953788626E+01 -0.58731455169E+01  0.10020233854E+02  0.51100000000E-03 0. -1.
        -11    1    3    3    0    0 -0.23359597504E+01  0.40666709862E+01 -0.27523919048E+01  0.54378472141E+01  0.51100000000E-03 0.  1.
        -12    1    3    3    0    0  0.30049164201E+01  0.67219320203E+01 -0.31479557191E+02  0.32329188263E+02  0.00000000000E+00 0.  1.
</event>
<event>
 7    1  0.4011333E-009  0.4778727E+02  0.7816164E-02  0.1312668E+00
        -11   -1    0    0    0    0  0.00000000000E+00  0.00000000000E+00  0.45593999997E+02  0.45594000000E+02  0.51100000000E-03 0.  1.
         11   -1    0    0    0    0 -0.00000000000E+00 -0.00000000000E+00 -0.45593999997E+02  0.45594000000E+02  0.51100000000E-03 0. -1.
    9900012    2    1    2    0    0  0.59674468485E+01  0.17617647106E+02 -0.39212647064E+02  0.47787267273E+02  0.19999982805E+02 0.  0.
        -12    1    1    2    0    0 -0.59674468485E+01 -0.17617647106E+02  0.39212647064E+02  0.43400732727E+02  0.00000000000E+00 0.  1.
         11    1    3    3    0    0  0.54272772376E+00  0.54685638023E+01 -0.18847687501E+02  0.19632500295E+02  0.51100000000E-03 0. -1.
        -11    1    3    3    0    0 -0.10259193108E+01  0.12640361579E+02 -0.15682987941E+02  0.20168970284E+02  0.51100000000E-03 0.  1.
        -12    1    3    3    0    0  0.64506384356E+01 -0.49127827581E+00 -0.46819716218E+01  0.79857966940E+01  0.00000000000E+00 0.  1.
</event>
<event>
 7    1  0.4011333E-009  0.4778728E+02  0.7816164E-02  0.1312668E+00
        -11   -1    0    0    0    0  0.00000000000E+00  0.00000000000E+00  0.45593999997E+02  0.45594000000E+02  0.51100000000E-03 0.  1.
         11   -1    0    0    0    0 -0.00000000000E+00 -0.00000000000E+00 -0.45593999997E+02  0.45594000000E+02  0.51100000000E-03 0. -1.
    9900012    2    1    2    0    0 -0.11067821889E+01  0.15442782731E+02 -0.40545262510E+02  0.47787276304E+02  0.20000023982E+02 0.  0.
        -12    1    1    2    0    0  0.11067821889E+01 -0.15442782731E+02  0.40545262510E+02  0.43400723696E+02  0.00000000000E+00 0.  1.
         11    1    3    3    0    0 -0.79414765045E+00  0.42312775396E+01 -0.24890408819E+02  0.25259984789E+02  0.51100000000E-03 0. -1.
        -11    1    3    3    0    0 -0.26502008180E+01 -0.77559315250E+00 -0.70947924274E+01  0.76132246101E+01  0.51100000000E-03 0.  1.
        -12    1    3    3    0    0  0.23375662796E+01  0.11987098343E+02 -0.85600612640E+01  0.14914066905E+02  0.00000000000E+00 0.  1.
</event>
<event>
 7    1  0.4011333E-009  0.4778727E+02  0.7816164E-02  0.1312668E+00
        -11   -1    0    0    0    0  0.00000000000E+00  0.00000000000E+00  0.45593999997E+02  0.45594000000E+02  0.51100000000E-03 0.  1.
         11   -1    0    0    0    0 -0.00000000000E+00 -0.00000000000E+00 -0.45593999997E+02  0.45594000000E+02  0.51100000000E-03 0. -1.
    9900012    2    1    2    0    0  0.12743619937E+02  0.18046921198E+02 -0.37356820070E+02  0.47787271670E+02  0.20000002853E+02 0.  0.
        -12    1    1    2    0    0 -0.12743619937E+02 -0.18046921198E+02  0.37356820070E+02  0.43400728330E+02  0.00000000000E+00 0.  1.
         11    1    3    3    0    0  0.19870548852E+00 -0.33012391542E+01 -0.26075022983E+01  0.42115000085E+01  0.51100000000E-03 0. -1.
        -11    1    3    3    0    0  0.38439743993E+01  0.11703425475E+02 -0.22854185351E+02  0.25962667338E+02  0.51100000000E-03 0.  1.
        -12    1    3    3    0    0  0.87009400490E+01  0.96447348775E+01 -0.11895132421E+02  0.17613104323E+02  0.00000000000E+00 0.  1.
</event>
<event>
 7    1  0.4011333E-009  0.4778728E+02  0.7816164E-02  0.1312668E+00
        -11   -1    0    0    0    0  0.00000000000E+00  0.00000000000E+00  0.45593999997E+02  0.45594000000E+02  0.51100000000E-03 0.  1.
         11   -1    0    0    0    0 -0.00000000000E+00 -0.00000000000E+00 -0.45593999997E+02  0.45594000000E+02  0.51100000000E-03 0. -1.
    9900012    2    1    2    0    0  0.29527145974E+02  0.23485524235E+01 -0.31721520068E+02  0.47787275544E+02  0.20000020516E+02 0.  0.
        -12    1    1    2    0    0 -0.29527145974E+02 -0.23485524235E+01  0.31721520068E+02  0.43400724456E+02  0.00000000000E+00 0.  1.
         11    1    3    3    0    0  0.30339535383E+01 -0.34384042308E+01 -0.57272269791E+01  0.73367994970E+01  0.51100000000E-03 0. -1.
        -11    1    3    3    0    0  0.20377795282E+02  0.28286040691E+01 -0.26602899384E+02  0.33629894401E+02  0.51100000000E-03 0.  1.
        -12    1    3    3    0    0  0.61153971538E+01  0.29583525852E+01  0.60860629506E+00  0.68205816460E+01  0.00000000000E+00 0.  1.
</event>
<event>
 7    1  0.4011333E-009  0.4778726E+02  0.7816164E-02  0.1312668E+00
        -11   -1    0    0    0    0  0.00000000000E+00  0.00000000000E+00  0.45593999997E+02  0.45594000000E+02  0.51100000000E-03 0.  1.
         11   -1    0    0    0    0 -0.00000000000E+00 -0.00000000000E+00 -0.45593999997E+02  0.45594000000E+02  0.51100000000E-03 0. -1.
    9900012    2    1    2    0    0  0.38536695130E+02  0.19924058156E+02 -0.12565492686E+01  0.47787264050E+02  0.19999968110E+02 0.  0.
        -12    1    1    2    0    0 -0.38536695130E+02 -0.19924058156E+02  0.12565492686E+01  0.43400735950E+02  0.00000000000E+00 0.  1.
         11    1    3    3    0    0  0.13000076636E+02  0.10030239947E+02  0.50001754574E+01  0.17164191236E+02  0.51100000000E-03 0. -1.
        -11    1    3    3    0    0  0.42502770574E+01 -0.20524010196E+01  0.15946850499E+01  0.49819901324E+01  0.51100000000E-03 0.  1.
         12    1    3    3    0    0  0.21286341436E+02  0.11946219229E+02 -0.78514097758E+01  0.25641082682E+02  0.00000000000E+00 0. -1.
</event>
<event>
 7    1 -0.4011333E-009  0.4778727E+02  0.7816164E-02  0.1312668E+00
        -11   -1    0    0    0    0  0.00000000000E+00  0.00000000000E+00  0.45593999997E+02  0.45594000000E+02  0.51100000000E-03 0.  1.
         11   -1    0    0    0    0 -0.00000000000E+00 -0.00000000000E+00 -0.45593999997E+02  0.45594000000E+02  0.51100000000E-03 0. -1.
    9900012    2    1    2    0    0  0.47340830453E+01  0.30427670701E+02 -0.30583796487E+02  0.47787270811E+02  0.19999998935E+02 0.  0.
        -12    1    1    2    0    0 -0.47340830453E+01 -0.30427670701E+02  0.30583796487E+02  0.43400729189E+02  0.00000000000E+00 0.  1.
         11    1    3    3    0    0 -0.54185423209E+00  0.14786975861E+02 -0.41348639954E+01  0.15363767821E+02  0.51100000000E-03 0. -1.
        -11    1    3    3    0    0  0.51102659366E+01  0.78937061033E+01 -0.77602319851E+01  0.12192071797E+02  0.51100000000E-03 0.  1.
         12    1    3    3    0    0  0.16567134081E+00  0.77469887370E+01 -0.18688700507E+02  0.20231431193E+02  0.00000000000E+00 0. -1.
</event>
<event>
 7    1  0.4011333E-009  0.4778728E+02  0.7816164E-02  0.1312668E+00
        -11   -1    0    0    0    0  0.00000000000E+00  0.00000000000E+00  0.45593999997E+02  0.45594000000E+02  0.51100000000E-03 0. -1.
         11   -1    0    0    0    0 -0.00000000000E+00 -0.00000000000E+00 -0.45593999997E+02  0.45594000000E+02  0.51100000000E-03 0.  1.
    9900012    2    1    2    0    0  0.38634234146E+02  0.16329775794E+02  0.11151556155E+02  0.47787276155E+02  0.20000023303E+02 0.  0.
        -12    1    1    2    0    0 -0.38634234146E+02 -0.16329775794E+02 -0.11151556155E+02  0.43400723845E+02  0.00000000000E+00 0.  1.
         11    1    3    3    0    0  0.79056197930E+01  0.10912459792E+02  0.57262950485E+01  0.14641415856E+02  0.51100000000E-03 0. -1.
        -11    1    3    3    0    0  0.57997912593E+01  0.25345637560E+01 -0.25356644832E+01  0.68184445966E+01  0.51100000000E-03 0.  1.
        -12    1    3    3    0    0  0.24928823094E+02  0.28827522467E+01  0.79609255901E+01  0.26327415703E+02  0.00000000000E+00 0.  1.
</event>
<event>
 7    1  0.4011333E-009  0.4778725E+02  0.7816164E-02  0.1312668E+00
        -11   -1    0    0    0    0  0.00000000000E+00  0.00000000000E+00  0.45593999997E+02  0.45594000000E+02  0.51100000000E-03 0.  1.
         11   -1    0    0    0    0 -0.00000000000E+00 -0.00000000000E+00 -0.45593999997E+02  0.45594000000E+02  0.51100000000E-03 0. -1.
    9900012    2    1    2    0    0  0.90997585520E+01  0.38855984824E+02 -0.17059662282E+02  0.47787248399E+02  0.19999896749E+02 0.  0.
        -12    1    1    2    0    0 -0.90997585520E+01 -0.38855984824E+02  0.17059662282E+02  0.43400751601E+02  0.00000000000E+00 0.  1.
         11    1    3    3    0    0  0.47408331078E+01  0.22468029656E+02 -0.17035362292E+01  0.23025852668E+02  0.51100000000E-03 0.  1.
        -11    1    3    3    0    0  0.10363521867E+01  0.88057225918E+01 -0.20661898815E+01  0.91040604735E+01  0.51100000000E-03 0. -1.
        -12    1    3    3    0    0  0.33225732575E+01  0.75822325767E+01 -0.13289936172E+02  0.15657335257E+02  0.00000000000E+00 0.  1.
</event>
<event>
 7    1  0.4011333E-009  0.4778727E+02  0.7816164E-02  0.1312668E+00
        -11   -1    0    0    0    0  0.00000000000E+00  0.00000000000E+00  0.45593999997E+02  0.45594000000E+02  0.51100000000E-03 0.  1.
         11   -1    0    0    0    0 -0.00000000000E+00 -0.00000000000E+00 -0.45593999997E+02  0.45594000000E+02  0.51100000000E-03 0. -1.
    9900012    2    1    2    0    0  0.17606235935E+02 -0.39420738853E+02  0.44327303742E+01  0.47787270812E+02  0.19999998938E+02 0.  0.
        -12    1    1    2    0    0 -0.17606235935E+02  0.39420738853E+02 -0.44327303742E+01  0.43400729188E+02  0.00000000000E+00 0.  1.
         11    1    3    3    0    0  0.71988696313E+01 -0.19962647379E+02  0.71801941236E+00  0.21233147823E+02  0.51100000000E-03 0. -1.
        -11    1    3    3    0    0  0.11877242589E+02 -0.12888024487E+02 -0.21085164282E+01  0.17652645934E+02  0.51100000000E-03 0.  1.
         12    1    3    3    0    0 -0.14698762851E+01 -0.65700669869E+01  0.58232273900E+01  0.89014770539E+01  0.00000000000E+00 0. -1.
</event>
<event>
 7    1  0.4011333E-009  0.4778727E+02  0.7816164E-02  0.1312668E+00
        -11   -1    0    0    0    0  0.00000000000E+00  0.00000000000E+00  0.45593999997E+02  0.45594000000E+02  0.51100000000E-03 0.  1.
         11   -1    0    0    0    0 -0.00000000000E+00 -0.00000000000E+00 -0.45593999997E+02  0.45594000000E+02  0.51100000000E-03 0. -1.
    9900012    2    1    2    0    0  0.12899788119E+02 -0.37024861619E+02 -0.18611239902E+02  0.47787272333E+02  0.20000005873E+02 0.  0.
        -12    1    1    2    0    0 -0.12899788119E+02  0.37024861619E+02  0.18611239902E+02  0.43400727667E+02  0.00000000000E+00 0.  1.
         11    1    3    3    0    0  0.53745547868E+01 -0.62373016179E+01 -0.45749922328E+01  0.94191467140E+01  0.51100000000E-03 0. -1.
        -11    1    3    3    0    0  0.14250667305E+01 -0.25644132937E+02 -0.47405279275E+01  0.26117522366E+02  0.51100000000E-03 0.  1.
        -12    1    3    3    0    0  0.61001666020E+01 -0.51434270640E+01 -0.92957197414E+01  0.12250603252E+02  0.00000000000E+00 0.  1.
</event>
<event>
 7    1  0.4011333E-009  0.4778726E+02  0.7816164E-02  0.1312668E+00
        -11   -1    0    0    0    0  0.00000000000E+00  0.00000000000E+00  0.45593999997E+02  0.45594000000E+02  0.51100000000E-03 0.  1.
         11   -1    0    0    0    0 -0.00000000000E+00 -0.00000000000E+00 -0.45593999997E+02  0.45594000000E+02  0.51100000000E-03 0. -1.
    9900012    2    1    2    0    0  0.16761112197E+01 -0.42994263394E+02 -0.56840522378E+01  0.47787257109E+02  0.19999936463E+02 0.  0.
        -12    1    1    2    0    0 -0.16761112197E+01  0.42994263394E+02  0.56840522378E+01  0.43400742891E+02  0.00000000000E+00 0.  1.
         11    1    3    3    0    0 -0.27920027554E+00 -0.18053314841E+01  0.28887102263E+01  0.34178679896E+01  0.51100000000E-03 0. -1.
        -11    1    3    3    0    0  0.32346630804E+00 -0.12577236203E+02  0.38169543635E+01  0.13147647768E+02  0.51100000000E-03 0.  1.
        -12    1    3    3    0    0  0.16318451872E+01 -0.28611695707E+02 -0.12389716828E+02  0.31221741351E+02  0.00000000000E+00 0.  1.
</event>
<event>
 7    1  0.4011333E-009  0.4778727E+02  0.7816164E-02  0.1312668E+00
        -11   -1    0    0    0    0  0.00000000000E+00  0.00000000000E+00  0.45593999997E+02  0.45594000000E+02  0.51100000000E-03 0. -1.
         11   -1    0    0    0    0 -0.00000000000E+00 -0.00000000000E+00 -0.45593999997E+02  0.45594000000E+02  0.51100000000E-03 0.  1.
    9900012    2    1    2    0    0 -0.12030625008E+02  0.41439795918E+02  0.46508830568E+01  0.47787270317E+02  0.19999996682E+02 0.  0.
        -12    1    1    2    0    0  0.12030625008E+02 -0.41439795918E+02 -0.46508830568E+01  0.43400729683E+02  0.00000000000E+00 0.  1.
         11    1    3    3    0    0 -0.12213673330E+01  0.18499500145E+02  0.73602315047E+00  0.18554378839E+02  0.51100000000E-03 0. -1.
        -11    1    3    3    0    0  0.16661891961E+01  0.74939035369E-01 -0.19167122709E+01  0.25407850139E+01  0.51100000000E-03 0.  1.
         12    1    3    3    0    0 -0.12475446871E+02  0.22865356738E+02  0.58315721772E+01  0.26692106463E+02  0.00000000000E+00 0. -1.
</event>
<event>
 7    1  0.4011333E-009  0.4778727E+02  0.7816164E-02  0.1312668E+00
        -11   -1    0    0    0    0  0.00000000000E+00  0.00000000000E+00  0.45593999997E+02  0.45594000000E+02  0.51100000000E-03 0.  1.
         11   -1    0    0    0    0 -0.00000000000E+00 -0.00000000000E+00 -0.45593999997E+02  0.45594000000E+02  0.51100000000E-03 0. -1.
    9900012    2    1    2    0    0 -0.19625353894E+01 -0.63477491504E+01 -0.42889139138E+02  0.47787265900E+02  0.19999976545E+02 0.  0.
        -12    1    1    2    0    0  0.19625353894E+01  0.63477491504E+01  0.42889139138E+02  0.43400734100E+02  0.00000000000E+00 0.  1.
         11    1    3    3    0    0  0.18070811902E+01  0.25171668796E+01 -0.16857874039E+02  0.17140291389E+02  0.51100000000E-03 0. -1.
        -11    1    3    3    0    0  0.41976806068E+01 -0.12996565349E+01 -0.12299035237E+02  0.13060470803E+02  0.51100000000E-03 0.  1.
        -12    1    3    3    0    0 -0.79672971864E+01 -0.75652594951E+01 -0.13732229862E+02  0.17586503708E+02  0.00000000000E+00 0.  1.
</event>
<event>
 7    1  0.4011333E-009  0.4778727E+02  0.7816164E-02  0.1312668E+00
        -11   -1    0    0    0    0  0.00000000000E+00  0.00000000000E+00  0.45593999997E+02  0.45594000000E+02  0.51100000000E-03 0.  1.
         11   -1    0    0    0    0 -0.00000000000E+00 -0.00000000000E+00 -0.45593999997E+02  0.45594000000E+02  0.51100000000E-03 0. -1.
    9900012    2    1    2    0    0 -0.30052616850E+02 -0.26848983647E+02 -0.16111968186E+02  0.47787271651E+02  0.20000002768E+02 0.  0.
        -12    1    1    2    0    0  0.30052616850E+02  0.26848983647E+02  0.16111968186E+02  0.43400728349E+02  0.00000000000E+00 0.  1.
         11    1    3    3    0    0 -0.18890193527E+00 -0.17858414338E+01  0.59121240958E+00  0.18906205177E+01  0.51100000000E-03 0.  1.
        -11    1    3    3    0    0 -0.23498800343E+02 -0.12739114466E+02 -0.38858009909E+01  0.27010703518E+02  0.51100000000E-03 0. -1.
         12    1    3    3    0    0 -0.63649145709E+01 -0.12324027747E+02 -0.12817379604E+02  0.18885947616E+02  0.00000000000E+00 0. -1.
</event>
<event>
 7    1  0.4011333E-009  0.4778726E+02  0.7816164E-02  0.1312668E+00
        -11   -1    0    0    0    0  0.00000000000E+00  0.00000000000E+00  0.45593999997E+02  0.45594000000E+02  0.51100000000E-03 0. -1.
         11   -1    0    0    0    0 -0.00000000000E+00 -0.00000000000E+00 -0.45593999997E+02  0.45594000000E+02  0.51100000000E-03 0.  1.
    9900012    2    1    2    0    0 -0.18488167753E+02 -0.35911668057E+02  0.15879658631E+02  0.47787264894E+02  0.19999971959E+02 0.  0.
        -12    1    1    2    0    0  0.18488167753E+02  0.35911668057E+02 -0.15879658631E+02  0.43400735106E+02  0.00000000000E+00 0.  1.
         11    1    3    3    0    0 -0.10550576962E+02 -0.18236867519E+02  0.29343929112E-01  0.21068907719E+02  0.51100000000E-03 0.  1.
        -11    1    3    3    0    0 -0.45701740519E+01 -0.13895474220E+02  0.63353915051E+01  0.15940761602E+02  0.51100000000E-03 0. -1.
        -12    1    3    3    0    0 -0.33674167388E+01 -0.37793263183E+01  0.95149231969E+01  0.10777595574E+02  0.00000000000E+00 0.  1.
</event>
<event>
 7    1  0.4011333E-009  0.4778727E+02  0.7816164E-02  0.1312668E+00
        -11   -1    0    0    0    0  0.00000000000E+00  0.00000000000E+00  0.45593999997E+02  0.45594000000E+02  0.51100000000E-03 0.  1.
         11   -1    0    0    0    0 -0.00000000000E+00 -0.00000000000E+00 -0.45593999997E+02  0.45594000000E+02  0.51100000000E-03 0. -1.
    9900012    2    1    2    0    0 -0.24322789877E+02  0.15205945225E+02 -0.32569990787E+02  0.47787272155E+02  0.20000005065E+02 0.  0.
        -12    1    1    2    0    0  0.24322789877E+02 -0.15205945225E+02  0.32569990787E+02  0.43400727845E+02  0.00000000000E+00 0.  1.
         11    1    3    3    0    0 -0.61586594242E+01 -0.48385698349E+00 -0.10176805051E+02  0.11905064669E+02  0.51100000000E-03 0. -1.
        -11    1    3    3    0    0  0.34533265175E+00 -0.20851813816E+01 -0.32062706405E+01  0.38402353724E+01  0.51100000000E-03 0.  1.
        -12    1    3    3    0    0 -0.18509463104E+02  0.17774983590E+02 -0.19186915096E+02  0.32041972114E+02  0.00000000000E+00 0.  1.
</event>
<event>
 7    1  0.4011333E-009  0.4778726E+02  0.7816164E-02  0.1312668E+00
        -11   -1    0    0    0    0  0.00000000000E+00  0.00000000000E+00  0.45593999997E+02  0.45594000000E+02  0.51100000000E-03 0. -1.
         11   -1    0    0    0    0 -0.00000000000E+00 -0.00000000000E+00 -0.45593999997E+02  0.45594000000E+02  0.51100000000E-03 0.  1.
    9900012    2    1    2    0    0 -0.37435587609E+02  0.19086059459E+02 -0.10859242747E+02  0.47787262237E+02  0.19999959845E+02 0.  0.
        -12    1    1    2    0    0  0.37435587609E+02 -0.19086059459E+02  0.10859242747E+02  0.43400737763E+02  0.00000000000E+00 0.  1.
         11    1    3    3    0    0 -0.19453341901E+02  0.39515280879E+01 -0.34111696484E+00  0.19853549969E+02  0.51100000000E-03 0. -1.
        -11    1    3    3    0    0 -0.10790673396E+02  0.33880002284E+01 -0.81928125488E+01  0.13965649130E+02  0.51100000000E-03 0.  1.
        -12    1    3    3    0    0 -0.71915723120E+01  0.11746531143E+02 -0.23253132337E+01  0.13968063138E+02  0.00000000000E+00 0.  1.
</event>
<event>
 7    1  0.4011333E-009  0.4778727E+02  0.7816164E-02  0.1312668E+00
        -11   -1    0    0    0    0  0.00000000000E+00  0.00000000000E+00  0.45593999997E+02  0.45594000000E+02  0.51100000000E-03 0.  1.
         11   -1    0    0    0    0 -0.00000000000E+00 -0.00000000000E+00 -0.45593999997E+02  0.45594000000E+02  0.51100000000E-03 0. -1.
    9900012    2    1    2    0    0 -0.38842197757E+02 -0.15603432820E+02 -0.11464721956E+02  0.47787270836E+02  0.19999999052E+02 0.  0.
        -12    1    1    2    0    0  0.38842197757E+02  0.15603432820E+02  0.11464721956E+02  0.43400729164E+02  0.00000000000E+00 0.  1.
         11    1    3    3    0    0 -0.10896587763E+01 -0.43847064417E+01  0.55485766747E+00  0.45520186864E+01  0.51100000000E-03 0. -1.
        -11    1    3    3    0    0 -0.11574300023E+02 -0.19149819360E+01 -0.99377529161E+01  0.15374996264E+02  0.51100000000E-03 0.  1.
         12    1    3    3    0    0 -0.26178238958E+02 -0.93037444428E+01 -0.20818267078E+01  0.27860255886E+02  0.00000000000E+00 0. -1.
</event>
<event>
 7    1  0.4011333E-009  0.4778727E+02  0.7816164E-02  0.1312668E+00
        -11   -1    0    0    0    0  0.00000000000E+00  0.00000000000E+00  0.45593999997E+02  0.45594000000E+02  0.51100000000E-03 0.  1.
         11   -1    0    0    0    0 -0.00000000000E+00 -0.00000000000E+00 -0.45593999997E+02  0.45594000000E+02  0.51100000000E-03 0. -1.
    9900012    2    1    2    0    0  0.16745817093E+01  0.60871221179E-01 -0.43368368414E+02  0.47787270650E+02  0.19999998201E+02 0.  0.
        -12    1    1    2    0    0 -0.16745817093E+01 -0.60871221179E-01  0.43368368414E+02  0.43400729350E+02  0.00000000000E+00 0.  1.
         11    1    3    3    0    0 -0.16231262386E+01 -0.15507713974E+01 -0.24898875373E+02  0.24999868516E+02  0.51100000000E-03 0. -1.
        -11    1    3    3    0    0  0.16856851752E+01 -0.34218397873E+01 -0.16825249249E+02  0.17252232742E+02  0.51100000000E-03 0.  1.
         12    1    3    3    0    0  0.16120227727E+01  0.50334824059E+01 -0.16442437925E+01  0.55351693921E+01  0.00000000000E+00 0. -1.
</event>
<event>
 7    1  0.4011333E-009  0.4778727E+02  0.7816164E-02  0.1312668E+00
        -11   -1    0    0    0    0  0.00000000000E+00  0.00000000000E+00  0.45593999997E+02  0.45594000000E+02  0.51100000000E-03 0.  1.
         11   -1    0    0    0    0 -0.00000000000E+00 -0.00000000000E+00 -0.45593999997E+02  0.45594000000E+02  0.51100000000E-03 0. -1.
    9900012    2    1    2    0    0 -0.28918831512E+02 -0.22566120604E+01 -0.32283621779E+02  0.47787270177E+02  0.19999996046E+02 0.  0.
        -12    1    1    2    0    0  0.28918831512E+02  0.22566120604E+01  0.32283621779E+02  0.43400729823E+02  0.00000000000E+00 0.  1.
         11    1    3    3    0    0 -0.38959585747E+01  0.17735008269E+01 -0.62748256068E+01  0.75958696050E+01  0.51100000000E-03 0. -1.
        -11    1    3    3    0    0 -0.74933245019E+01 -0.73711260343E+01 -0.27303095501E+01  0.10859926409E+02  0.51100000000E-03 0.  1.
        -12    1    3    3    0    0 -0.17529548435E+02  0.33410131470E+01 -0.23278486622E+02  0.29331474163E+02  0.00000000000E+00 0.  1.
</event>
<event>
 7    1  0.4011333E-009  0.4778727E+02  0.7816164E-02  0.1312668E+00
        -11   -1    0    0    0    0  0.00000000000E+00  0.00000000000E+00  0.45593999997E+02  0.45594000000E+02  0.51100000000E-03 0. -1.
         11   -1    0    0    0    0 -0.00000000000E+00 -0.00000000000E+00 -0.45593999997E+02  0.45594000000E+02  0.51100000000E-03 0.  1.
    9900012    2    1    2    0    0 -0.95962808409E+01  0.17104811712E+02  0.38716406947E+02  0.47787270091E+02  0.19999995654E+02 0.  0.
        -12    1    1    2    0    0  0.95962808409E+01 -0.17104811712E+02 -0.38716406947E+02  0.43400729909E+02  0.00000000000E+00 0.  1.
         11    1    3    3    0    0 -0.22813428504E+01  0.12453664043E+02  0.70738757624E+01  0.14503033884E+02  0.51100000000E-03 0. -1.
        -11    1    3    3    0    0 -0.47815115960E+01  0.40414908663E+00  0.10107992953E+02  0.11189178318E+02  0.51100000000E-03 0.  1.
         12    1    3    3    0    0 -0.25334263945E+01  0.42469985828E+01  0.21534538232E+02  0.22095057889E+02  0.00000000000E+00 0. -1.
</event>
<event>
 7    1  0.4011333E-009  0.4778728E+02  0.7816164E-02  0.1312668E+00
        -11   -1    0    0    0    0  0.00000000000E+00  0.00000000000E+00  0.45593999997E+02  0.45594000000E+02  0.51100000000E-03 0.  1.
         11   -1    0    0    0    0 -0.00000000000E+00 -0.00000000000E+00 -0.45593999997E+02  0.45594000000E+02  0.51100000000E-03 0. -1.
    9900012    2    1    2    0    0 -0.19324788827E+02  0.34033785662E+02 -0.18758371858E+02  0.47787279448E+02  0.20000038313E+02 0.  0.
        -12    1    1    2    0    0  0.19324788827E+02 -0.34033785662E+02  0.18758371858E+02  0.43400720552E+02  0.00000000000E+00 0.  1.
         11    1    3    3    0    0 -0.52341748883E+01  0.12196898859E+02 -0.30109711871E+01  0.13609808091E+02  0.51100000000E-03 0. -1.
        -11    1    3    3    0    0 -0.21868492861E+01  0.16491481903E+02 -0.52941818662E+01  0.17457939370E+02  0.51100000000E-03 0.  1.
        -12    1    3    3    0    0 -0.11903764653E+02  0.53454049002E+01 -0.10453218804E+02  0.16719531986E+02  0.00000000000E+00 0.  1.
</event>
<event>
 7    1  0.4011333E-009  0.4778727E+02  0.7816164E-02  0.1312668E+00
        -11   -1    0    0    0    0  0.00000000000E+00  0.00000000000E+00  0.45593999997E+02  0.45594000000E+02  0.51100000000E-03 0.  1.
         11   -1    0    0    0    0 -0.00000000000E+00 -0.00000000000E+00 -0.45593999997E+02  0.45594000000E+02  0.51100000000E-03 0. -1.
    9900012    2    1    2    0    0 -0.43339320744E+02 -0.15670464984E+01 -0.16944688987E+01  0.47787267493E+02  0.19999983807E+02 0.  0.
        -12    1    1    2    0    0  0.43339320744E+02  0.15670464984E+01  0.16944688987E+01  0.43400732507E+02  0.00000000000E+00 0.  1.
         11    1    3    3    0    0 -0.94583729579E-01 -0.28908138679E+01 -0.72097231984E+00  0.29808643458E+01  0.51100000000E-03 0. -1.
        -11    1    3    3    0    0 -0.20605104730E+02 -0.51684864677E+01 -0.53948035293E+00  0.21250285471E+02  0.51100000000E-03 0.  1.
         12    1    3    3    0    0 -0.22639632285E+02  0.64922538372E+01 -0.43401622591E+00  0.23556117676E+02  0.00000000000E+00 0. -1.
</event>
<event>
 7    1  0.4011333E-009  0.4778726E+02  0.7816164E-02  0.1312668E+00
        -11   -1    0    0    0    0  0.00000000000E+00  0.00000000000E+00  0.45593999997E+02  0.45594000000E+02  0.51100000000E-03 0.  1.
         11   -1    0    0    0    0 -0.00000000000E+00 -0.00000000000E+00 -0.45593999997E+02  0.45594000000E+02  0.51100000000E-03 0. -1.
    9900012    2    1    2    0    0 -0.22846901929E+02  0.71538121367E+01 -0.36200367914E+02  0.47787255848E+02  0.19999930713E+02 0.  0.
        -12    1    1    2    0    0  0.22846901929E+02 -0.71538121367E+01  0.36200367914E+02  0.43400744152E+02  0.00000000000E+00 0.  1.
         11    1    3    3    0    0 -0.13379488408E+02  0.56834879617E+01 -0.98082366589E+01  0.17536084286E+02  0.51100000000E-03 0. -1.
        -11    1    3    3    0    0 -0.11994943562E+02  0.16520535611E+01 -0.20062556195E+02  0.23433184021E+02  0.51100000000E-03 0.  1.
        -12    1    3    3    0    0  0.25275300400E+01 -0.18172938611E+00 -0.63295750597E+01  0.68179875410E+01  0.00000000000E+00 0.  1.
</event>
<event>
 7    1  0.4011333E-009  0.4778727E+02  0.7816164E-02  0.1312668E+00
        -11   -1    0    0    0    0  0.00000000000E+00  0.00000000000E+00  0.45593999997E+02  0.45594000000E+02  0.51100000000E-03 0.  1.
         11   -1    0    0    0    0 -0.00000000000E+00 -0.00000000000E+00 -0.45593999997E+02  0.45594000000E+02  0.51100000000E-03 0. -1.
    9900012    2    1    2    0    0 -0.34291558374E+02  0.14159676372E+02 -0.22521458679E+02  0.47787268304E+02  0.19999987507E+02 0.  0.
        -12    1    1    2    0    0  0.34291558374E+02 -0.14159676372E+02  0.22521458679E+02  0.43400731696E+02  0.00000000000E+00 0.  1.
         11    1    3    3    0    0  0.89686718602E+00 -0.14323802849E+00 -0.15414251016E+01  0.17891001893E+01  0.51100000000E-03 0. -1.
        -11    1    3    3    0    0 -0.83157978126E+01  0.10910037450E+02 -0.88133358365E+01  0.16305100406E+02  0.51100000000E-03 0.  1.
        -12    1    3    3    0    0 -0.26872627748E+02  0.33928769508E+01 -0.12166697740E+02  0.29693067709E+02  0.00000000000E+00 0.  1.
</event>
<event>
 7    1  0.4011333E-009  0.4778727E+02  0.7816164E-02  0.1312668E+00
        -11   -1    0    0    0    0  0.00000000000E+00  0.00000000000E+00  0.45593999997E+02  0.45594000000E+02  0.51100000000E-03 0.  1.
         11   -1    0    0    0    0 -0.00000000000E+00 -0.00000000000E+00 -0.45593999997E+02  0.45594000000E+02  0.51100000000E-03 0. -1.
    9900012    2    1    2    0    0  0.38073898280E+01  0.24022357310E+02 -0.35945140282E+02  0.47787274454E+02  0.20000015544E+02 0.  0.
        -12    1    1    2    0    0 -0.38073898280E+01 -0.24022357310E+02  0.35945140282E+02  0.43400725546E+02  0.00000000000E+00 0.  1.
         11    1    3    3    0    0  0.46541898851E+01  0.17628858580E+02 -0.19739508368E+02  0.26871664057E+02  0.51100000000E-03 0. -1.
        -11    1    3    3    0    0  0.45382378307E+01  0.39694811973E+01 -0.36695139967E+01  0.70581666753E+01  0.51100000000E-03 0.  1.
        -12    1    3    3    0    0 -0.53850378878E+01  0.24240175335E+01 -0.12536117917E+02  0.13857443722E+02  0.00000000000E+00 0.  1.
</event>
<event>
 7    1  0.4011333E-009  0.4778726E+02  0.7816164E-02  0.1312668E+00
        -11   -1    0    0    0    0  0.00000000000E+00  0.00000000000E+00  0.45593999997E+02  0.45594000000E+02  0.51100000000E-03 0.  1.
         11   -1    0    0    0    0 -0.00000000000E+00 -0.00000000000E+00 -0.45593999997E+02  0.45594000000E+02  0.51100000000E-03 0. -1.
    9900012    2    1    2    0    0 -0.29915479583E+02  0.23923161695E+02 -0.20405152427E+02  0.47787264640E+02  0.19999970801E+02 0.  0.
        -12    1    1    2    0    0  0.29915479583E+02 -0.23923161695E+02  0.20405152427E+02  0.43400735360E+02  0.00000000000E+00 0.  1.
         11    1    3    3    0    0 -0.12581312588E+02  0.88705351127E+01 -0.44178276582E+01  0.16015399499E+02  0.51100000000E-03 0. -1.
        -11    1    3    3    0    0 -0.19327300110E+02  0.11982209919E+02 -0.10197780928E+02  0.24922131133E+02  0.51100000000E-03 0.  1.
        -12    1    3    3    0    0  0.19931331149E+01  0.30704166637E+01 -0.57895438410E+01  0.68497340087E+01  0.00000000000E+00 0.  1.
</event>
<event>
 7    1  0.4011333E-009  0.4778727E+02  0.7816164E-02  0.1312668E+00
        -11   -1    0    0    0    0  0.00000000000E+00  0.00000000000E+00  0.45593999997E+02  0.45594000000E+02  0.51100000000E-03 0.  1.
         11   -1    0    0    0    0 -0.00000000000E+00 -0.00000000000E+00 -0.45593999997E+02  0.45594000000E+02  0.51100000000E-03 0. -1.
    9900012    2    1    2    0    0  0.23532880588E+02  0.31653956355E+02 -0.18106735229E+02  0.47787270947E+02  0.19999999554E+02 0.  0.
        -12    1    1    2    0    0 -0.23532880588E+02 -0.31653956355E+02  0.18106735229E+02  0.43400729053E+02  0.00000000000E+00 0.  1.
         11    1    3    3    0    0  0.89169486727E+01  0.14130035062E+02 -0.48319955761E+01  0.17393045909E+02  0.51100000000E-03 0. -1.
        -11    1    3    3    0    0 -0.15259337671E+01  0.81969180252E+01 -0.18871883089E+01  0.85486501243E+01  0.51100000000E-03 0.  1.
        -12    1    3    3    0    0  0.16141865683E+02  0.93270032673E+01 -0.11387551344E+02  0.21845574913E+02  0.00000000000E+00 0.  1.
</event>
<event>
 7    1  0.4011333E-009  0.4778727E+02  0.7816164E-02  0.1312668E+00
        -11   -1    0    0    0    0  0.00000000000E+00  0.00000000000E+00  0.45593999997E+02  0.45594000000E+02  0.51100000000E-03 0. -1.
         11   -1    0    0    0    0 -0.00000000000E+00 -0.00000000000E+00 -0.45593999997E+02  0.45594000000E+02  0.51100000000E-03 0.  1.
    9900012    2    1    2    0    0 -0.44154763394E+01 -0.38244587496E+02  0.20036927049E+02  0.47787270172E+02  0.19999996021E+02 0.  0.
        -12    1    1    2    0    0  0.44154763394E+01  0.38244587496E+02 -0.20036927049E+02  0.43400729828E+02  0.00000000000E+00 0.  1.
         11    1    3    3    0    0  0.29624501358E+01 -0.66899613029E+01  0.56068292863E+00  0.73379873704E+01  0.51100000000E-03 0. -1.
        -11    1    3    3    0    0 -0.47309829218E+00 -0.24675651820E+02  0.93430757768E+01  0.26389480479E+02  0.51100000000E-03 0.  1.
        -12    1    3    3    0    0 -0.69048281830E+01 -0.68789743737E+01  0.10133168343E+02  0.14059802322E+02  0.00000000000E+00 0.  1.
</event>
<event>
 7    1  0.4011333E-009  0.4778727E+02  0.7816164E-02  0.1312668E+00
        -11   -1    0    0    0    0  0.00000000000E+00  0.00000000000E+00  0.45593999997E+02  0.45594000000E+02  0.51100000000E-03 0.  1.
         11   -1    0    0    0    0 -0.00000000000E+00 -0.00000000000E+00 -0.45593999997E+02  0.45594000000E+02  0.51100000000E-03 0. -1.
    9900012    2    1    2    0    0 -0.42739047602E+02  0.56082844599E+01 -0.50541446493E+01  0.47787269331E+02  0.19999992186E+02 0.  0.
        -12    1    1    2    0    0  0.42739047602E+02 -0.56082844599E+01  0.50541446493E+01  0.43400730669E+02  0.00000000000E+00 0.  1.
         11    1    3    3    0    0 -0.13614534078E+02  0.10309211611E+01  0.30231182035E+01  0.13984190378E+02  0.51100000000E-03 0. -1.
        -11    1    3    3    0    0 -0.71343418756E+01  0.30715782956E+01  0.39278661206E+01  0.87041116575E+01  0.51100000000E-03 0.  1.
        -12    1    3    3    0    0 -0.21990171649E+02  0.15057850032E+01 -0.12005128973E+02  0.25098967295E+02  0.00000000000E+00 0.  1.
</event>
<event>
 7    1  0.4011333E-009  0.4778727E+02  0.7816164E-02  0.1312668E+00
        -11   -1    0    0    0    0  0.00000000000E+00  0.00000000000E+00  0.45593999997E+02  0.45594000000E+02  0.51100000000E-03 0.  1.
         11   -1    0    0    0    0 -0.00000000000E+00 -0.00000000000E+00 -0.45593999997E+02  0.45594000000E+02  0.51100000000E-03 0. -1.
    9900012    2    1    2    0    0 -0.79530042587E+01  0.22356664782E+02 -0.36339408297E+02  0.47787270372E+02  0.19999996932E+02 0.  0.
        -12    1    1    2    0    0  0.79530042587E+01 -0.22356664782E+02  0.36339408297E+02  0.43400729628E+02  0.00000000000E+00 0.  1.
         11    1    3    3    0    0 -0.59957282914E+01  0.23143070122E+01 -0.41188194871E+01  0.76334427960E+01  0.51100000000E-03 0. -1.
        -11    1    3    3    0    0 -0.72310857848E+00  0.10699010015E+02 -0.59932221762E+01  0.12284559969E+02  0.51100000000E-03 0.  1.
         12    1    3    3    0    0 -0.12341673888E+01  0.93433477552E+01 -0.26227366633E+02  0.27869267607E+02  0.00000000000E+00 0. -1.
</event>
<event>
 7    1  0.4011333E-009  0.4778728E+02  0.7816164E-02  0.1312668E+00
        -11   -1    0    0    0    0  0.00000000000E+00  0.00000000000E+00  0.45593999997E+02  0.45594000000E+02  0.51100000000E-03 0.  1.
         11   -1    0    0    0    0 -0.00000000000E+00 -0.00000000000E+00 -0.45593999997E+02  0.45594000000E+02  0.51100000000E-03 0. -1.
    9900012    2    1    2    0    0 -0.20376867459E+02  0.19537967425E+02 -0.32964731928E+02  0.47787280540E+02  0.20000043295E+02 0.  0.
        -12    1    1    2    0    0  0.20376867459E+02 -0.19537967425E+02  0.32964731928E+02  0.43400719460E+02  0.00000000000E+00 0.  1.
         11    1    3    3    0    0  0.11738463780E+01 -0.52698425723E-01 -0.13295358383E+01  0.17743613639E+01  0.51100000000E-03 0. -1.
        -11    1    3    3    0    0 -0.69881549045E+01  0.16532957409E+02 -0.12983041718E+02  0.22152479820E+02  0.51100000000E-03 0.  1.
         12    1    3    3    0    0 -0.14562558933E+02  0.30577084421E+01 -0.18652154371E+02  0.23860439356E+02  0.00000000000E+00 0. -1.
</event>
<event>
 7    1  0.4011333E-009  0.4778726E+02  0.7816164E-02  0.1312668E+00
        -11   -1    0    0    0    0  0.00000000000E+00  0.00000000000E+00  0.45593999997E+02  0.45594000000E+02  0.51100000000E-03 0. -1.
         11   -1    0    0    0    0 -0.00000000000E+00 -0.00000000000E+00 -0.45593999997E+02  0.45594000000E+02  0.51100000000E-03 0.  1.
    9900012    2    1    2    0    0 -0.37858806643E+02  0.19148414687E+02 -0.91473055537E+01  0.47787260095E+02  0.19999950077E+02 0.  0.
        -12    1    1    2    0    0  0.37858806643E+02 -0.19148414687E+02  0.91473055537E+01  0.43400739905E+02  0.00000000000E+00 0.  1.
         11    1    3    3    0    0 -0.12910091173E+02  0.55503108150E+01 -0.70085139953E+01  0.15703365019E+02  0.51100000000E-03 0.  1.
        -11    1    3    3    0    0 -0.83673225550E+01 -0.25893014718E+01 -0.16075079270E+01  0.89050912880E+01  0.51100000000E-03 0. -1.
        -12    1    3    3    0    0 -0.16581392914E+02  0.16187405343E+02 -0.53128363147E+00  0.23178803788E+02  0.00000000000E+00 0.  1.
</event>
<event>
 7    1  0.4011333E-009  0.4778727E+02  0.7816164E-02  0.1312668E+00
        -11   -1    0    0    0    0  0.00000000000E+00  0.00000000000E+00  0.45593999997E+02  0.45594000000E+02  0.51100000000E-03 0. -1.
         11   -1    0    0    0    0 -0.00000000000E+00 -0.00000000000E+00 -0.45593999997E+02  0.45594000000E+02  0.51100000000E-03 0.  1.
    9900012    2    1    2    0    0 -0.16266490744E+01 -0.42982404375E+02 -0.57870703415E+01  0.47787271248E+02  0.20000000929E+02 0.  0.
        -12    1    1    2    0    0  0.16266490744E+01  0.42982404375E+02  0.57870703415E+01  0.43400728752E+02  0.00000000000E+00 0.  1.
         11    1    3    3    0    0  0.29807054856E+01 -0.32652676647E+02 -0.19296552557E+01  0.32845174182E+02  0.51100000000E-03 0.  1.
        -11    1    3    3    0    0  0.89752695311E+00 -0.86261482497E+01 -0.22609996549E+01  0.89625949344E+01  0.51100000000E-03 0. -1.
        -12    1    3    3    0    0 -0.55048815131E+01 -0.17035794785E+01 -0.15964154310E+01  0.59795021316E+01  0.00000000000E+00 0.  1.
</event>
<event>
 7    1  0.4011333E-009  0.4778729E+02  0.7816164E-02  0.1312668E+00
        -11   -1    0    0    0    0  0.00000000000E+00  0.00000000000E+00  0.45593999997E+02  0.45594000000E+02  0.51100000000E-03 0. -1.
         11   -1    0    0    0    0 -0.00000000000E+00 -0.00000000000E+00 -0.45593999997E+02  0.45594000000E+02  0.51100000000E-03 0.  1.
    9900012    2    1    2    0    0 -0.22355143840E+02 -0.36598316685E+02  0.66657639893E+01  0.47787289753E+02  0.20000085302E+02 0.  0.
        -12    1    1    2    0    0  0.22355143840E+02  0.36598316685E+02 -0.66657639893E+01  0.43400710247E+02  0.00000000000E+00 0.  1.
         11    1    3    3    0    0 -0.11173317165E+02 -0.22143429369E+02  0.12085992142E+01  0.24832140323E+02  0.51100000000E-03 0.  1.
        -11    1    3    3    0    0 -0.70758747173E+01 -0.16313511948E+02  0.46001073033E+01  0.18367353172E+02  0.51100000000E-03 0. -1.
        -12    1    3    3    0    0 -0.41059519579E+01  0.18586246312E+01  0.85705747173E+00  0.45877962586E+01  0.00000000000E+00 0.  1.
</event>
<event>
 7    1  0.4011333E-009  0.4778727E+02  0.7816164E-02  0.1312668E+00
        -11   -1    0    0    0    0  0.00000000000E+00  0.00000000000E+00  0.45593999997E+02  0.45594000000E+02  0.51100000000E-03 0. -1.
         11   -1    0    0    0    0 -0.00000000000E+00 -0.00000000000E+00 -0.45593999997E+02  0.45594000000E+02  0.51100000000E-03 0.  1.
    9900012    2    1    2    0    0 -0.33421438626E+02  0.19915926913E+02  0.19235035787E+02  0.47787270670E+02  0.19999998292E+02 0.  0.
        -12    1    1    2    0    0  0.33421438626E+02 -0.19915926913E+02 -0.19235035787E+02  0.43400729330E+02  0.00000000000E+00 0.  1.
         11    1    3    3    0    0 -0.10632617344E+02 -0.81137550162E+00  0.49585298058E+01  0.11760012750E+02  0.51100000000E-03 0. -1.
        -11    1    3    3    0    0 -0.56945678274E+01  0.28384186058E+01  0.85018513141E+01  0.10619143042E+02  0.51100000000E-03 0.  1.
        -12    1    3    3    0    0 -0.17094253455E+02  0.17888883809E+02  0.57746546676E+01  0.25408114878E+02  0.00000000000E+00 0.  1.
</event>
<event>
 7    1  0.4011333E-009  0.4778727E+02  0.7816164E-02  0.1312668E+00
        -11   -1    0    0    0    0  0.00000000000E+00  0.00000000000E+00  0.45593999997E+02  0.45594000000E+02  0.51100000000E-03 0.  1.
         11   -1    0    0    0    0 -0.00000000000E+00 -0.00000000000E+00 -0.45593999997E+02  0.45594000000E+02  0.51100000000E-03 0. -1.
    9900012    2    1    2    0    0  0.72538586777E+01 -0.31521616296E+01 -0.42673981881E+02  0.47787270533E+02  0.19999997669E+02 0.  0.
        -12    1    1    2    0    0 -0.72538586777E+01  0.31521616296E+01  0.42673981881E+02  0.43400729467E+02  0.00000000000E+00 0.  1.
         11    1    3    3    0    0 -0.22459922530E+01  0.17143480238E+01 -0.58101176325E+01  0.64607226772E+01  0.51100000000E-03 0. -1.
        -11    1    3    3    0    0  0.41134674136E+01  0.37231059045E+01 -0.37532911075E+01  0.66984569968E+01  0.51100000000E-03 0.  1.
         12    1    3    3    0    0  0.53863835171E+01 -0.85896155579E+01 -0.33110573141E+02  0.34628090859E+02  0.00000000000E+00 0. -1.
</event>
<event>
 7    1  0.4011333E-009  0.4778727E+02  0.7816164E-02  0.1312668E+00
        -11   -1    0    0    0    0  0.00000000000E+00  0.00000000000E+00  0.45593999997E+02  0.45594000000E+02  0.51100000000E-03 0. -1.
         11   -1    0    0    0    0 -0.00000000000E+00 -0.00000000000E+00 -0.45593999997E+02  0.45594000000E+02  0.51100000000E-03 0.  1.
    9900012    2    1    2    0    0  0.15519540181E+02  0.30180373713E+02  0.27053877775E+02  0.47787269735E+02  0.19999994028E+02 0.  0.
        -12    1    1    2    0    0 -0.15519540181E+02 -0.30180373713E+02 -0.27053877775E+02  0.43400730265E+02  0.00000000000E+00 0.  1.
         11    1    3    3    0    0  0.10297480311E+02  0.24334653913E+02  0.21822322622E+02  0.34269917518E+02  0.51100000000E-03 0. -1.
        -11    1    3    3    0    0  0.14851646974E+01  0.32419092800E+01  0.75917875337E+01  0.83875460163E+01  0.51100000000E-03 0.  1.
        -12    1    3    3    0    0  0.37368951732E+01  0.26038105208E+01 -0.23602323811E+01  0.51298062007E+01  0.00000000000E+00 0.  1.
</event>
<event>
 7    1  0.4011333E-009  0.4778727E+02  0.7816164E-02  0.1312668E+00
        -11   -1    0    0    0    0  0.00000000000E+00  0.00000000000E+00  0.45593999997E+02  0.45594000000E+02  0.51100000000E-03 0.  1.
         11   -1    0    0    0    0 -0.00000000000E+00 -0.00000000000E+00 -0.45593999997E+02  0.45594000000E+02  0.51100000000E-03 0. -1.
    9900012    2    1    2    0    0 -0.24225771468E+02  0.27289667276E+02 -0.23494880960E+02  0.47787269884E+02  0.19999994710E+02 0.  0.
        -12    1    1    2    0    0  0.24225771468E+02 -0.27289667276E+02  0.23494880960E+02  0.43400730116E+02  0.00000000000E+00 0.  1.
         11    1    3    3    0    0 -0.18087944718E+02  0.16263381028E+02 -0.13884786432E+02  0.28008188108E+02  0.51100000000E-03 0. -1.
        -11    1    3    3    0    0 -0.53504375368E+01  0.85417804539E+01 -0.12387739119E+02  0.15970137003E+02  0.51100000000E-03 0.  1.
        -12    1    3    3    0    0 -0.78738921249E+00  0.24845057948E+01  0.27776445902E+01  0.38089447733E+01  0.00000000000E+00 0.  1.
</event>
<event>
 7    1  0.4011333E-009  0.4778727E+02  0.7816164E-02  0.1312668E+00
        -11   -1    0    0    0    0  0.00000000000E+00  0.00000000000E+00  0.45593999997E+02  0.45594000000E+02  0.51100000000E-03 0.  1.
         11   -1    0    0    0    0 -0.00000000000E+00 -0.00000000000E+00 -0.45593999997E+02  0.45594000000E+02  0.51100000000E-03 0. -1.
    9900012    2    1    2    0    0  0.87700125101E+01 -0.16559071203E+02 -0.39147253748E+02  0.47787269193E+02  0.19999991561E+02 0.  0.
        -12    1    1    2    0    0 -0.87700125101E+01  0.16559071203E+02  0.39147253748E+02  0.43400730807E+02  0.00000000000E+00 0.  1.
         11    1    3    3    0    0 -0.16786387606E+01 -0.42318859223E+01 -0.72169020884E+01  0.85328988370E+01  0.51100000000E-03 0.  1.
        -11    1    3    3    0    0  0.12749728470E+02 -0.13459970936E+02 -0.20936895962E+02  0.27965693384E+02  0.51100000000E-03 0. -1.
         12    1    3    3    0    0 -0.23010771990E+01  0.11327856556E+01 -0.10993455697E+02  0.11288676972E+02  0.00000000000E+00 0. -1.
</event>
<event>
 7    1  0.4011333E-009  0.4778727E+02  0.7816164E-02  0.1312668E+00
        -11   -1    0    0    0    0  0.00000000000E+00  0.00000000000E+00  0.45593999997E+02  0.45594000000E+02  0.51100000000E-03 0.  1.
         11   -1    0    0    0    0 -0.00000000000E+00 -0.00000000000E+00 -0.45593999997E+02  0.45594000000E+02  0.51100000000E-03 0. -1.
    9900012    2    1    2    0    0 -0.86356632512E+01  0.37718798481E+02 -0.19655552626E+02  0.47787272037E+02  0.20000004527E+02 0.  0.
        -12    1    1    2    0    0  0.86356632512E+01 -0.37718798481E+02  0.19655552626E+02  0.43400727963E+02  0.00000000000E+00 0.  1.
         11    1    3    3    0    0 -0.72323486985E+01  0.27488438100E+02 -0.56023362250E+01  0.28970800271E+02  0.51100000000E-03 0. -1.
        -11    1    3    3    0    0  0.16708471120E+01  0.55063870071E+00 -0.40703203483E+00  0.18057154784E+01  0.51100000000E-03 0.  1.
         12    1    3    3    0    0 -0.30741616647E+01  0.96797216806E+01 -0.13646184366E+02  0.17010756288E+02  0.00000000000E+00 0. -1.
</event>
<event>
 7    1  0.4011333E-009  0.4778725E+02  0.7816164E-02  0.1312668E+00
        -11   -1    0    0    0    0  0.00000000000E+00  0.00000000000E+00  0.45593999997E+02  0.45594000000E+02  0.51100000000E-03 0.  1.
         11   -1    0    0    0    0 -0.00000000000E+00 -0.00000000000E+00 -0.45593999997E+02  0.45594000000E+02  0.51100000000E-03 0. -1.
    9900012    2    1    2    0    0 -0.12992455241E+02  0.19315423844E+02 -0.36629706998E+02  0.47787252008E+02  0.19999913205E+02 0.  0.
        -12    1    1    2    0    0  0.12992455241E+02 -0.19315423844E+02  0.36629706998E+02  0.43400747992E+02  0.00000000000E+00 0.  1.
         11    1    3    3    0    0 -0.38430760044E+01  0.12330136141E+02 -0.10674963957E+02  0.16755785454E+02  0.51100000000E-03 0. -1.
        -11    1    3    3    0    0 -0.17532012657E+01  0.79545108599E+01 -0.19625485494E+02  0.21248709110E+02  0.51100000000E-03 0.  1.
        -12    1    3    3    0    0 -0.73961779714E+01 -0.96922315677E+00 -0.63292575470E+01  0.97827574440E+01  0.00000000000E+00 0.  1.
</event>
<event>
 7    1  0.4431792E-009  0.4778727E+02  0.7816164E-02  0.1312668E+00
        -11   -1    0    0    0    0  0.00000000000E+00  0.00000000000E+00  0.45593999997E+02  0.45594000000E+02  0.51100000000E-03 0.  1.
         11   -1    0    0    0    0 -0.00000000000E+00 -0.00000000000E+00 -0.45593999997E+02  0.45594000000E+02  0.51100000000E-03 0. -1.
    9900012    2    1    2    0    0  0.35798827065E+02  0.45270314726E+01 -0.24115833990E+02  0.47787268644E+02  0.19999989055E+02 0.  0.
        -12    1    1    2    0    0 -0.35798827065E+02 -0.45270314726E+01  0.24115833990E+02  0.43400731356E+02  0.00000000000E+00 0.  1.
         11    1    3    3    0    0  0.14730990088E+02 -0.13335474323E+01 -0.14503665150E+02  0.20715615385E+02  0.51100000000E-03 0. -1.
        -11    1    3    3    0    0  0.19397872722E+02  0.11388986869E+01 -0.10339362409E+02  0.22010837595E+02  0.51100000000E-03 0.  1.
        -12    1    3    3    0    0  0.16699642547E+01  0.47216802179E+01  0.72719356879E+00  0.50608156634E+01  0.00000000000E+00 0.  1.
</event>
<event>
 7    1  0.4011333E-009  0.4778727E+02  0.7816164E-02  0.1312668E+00
        -11   -1    0    0    0    0  0.00000000000E+00  0.00000000000E+00  0.45593999997E+02  0.45594000000E+02  0.51100000000E-03 0.  1.
         11   -1    0    0    0    0 -0.00000000000E+00 -0.00000000000E+00 -0.45593999997E+02  0.45594000000E+02  0.51100000000E-03 0. -1.
    9900012    2    1    2    0    0 -0.24855940623E+01  0.40080600569E+02  0.16461789592E+02  0.47787271477E+02  0.20000001971E+02 0.  0.
        -12    1    1    2    0    0  0.24855940623E+01 -0.40080600569E+02 -0.16461789592E+02  0.43400728523E+02  0.00000000000E+00 0.  1.
         11    1    3    3    0    0  0.33082264659E+01  0.10941414394E+02  0.91769020200E+01  0.14658596189E+02  0.51100000000E-03 0. -1.
        -11    1    3    3    0    0 -0.12163162257E+01 -0.81324664032E+00  0.18272989954E+01  0.23409009246E+01  0.51100000000E-03 0.  1.
         12    1    3    3    0    0 -0.45775043025E+01  0.29952432815E+02  0.54575885764E+01  0.30787774363E+02  0.00000000000E+00 0. -1.
</event>
<event>
 7    1  0.4011333E-009  0.4778727E+02  0.7816164E-02  0.1312668E+00
        -11   -1    0    0    0    0  0.00000000000E+00  0.00000000000E+00  0.45593999997E+02  0.45594000000E+02  0.51100000000E-03 0.  1.
         11   -1    0    0    0    0 -0.00000000000E+00 -0.00000000000E+00 -0.45593999997E+02  0.45594000000E+02  0.51100000000E-03 0. -1.
    9900012    2    1    2    0    0  0.12234529361E+02 -0.25604739485E+02 -0.32838040776E+02  0.47787270573E+02  0.19999997852E+02 0.  0.
        -12    1    1    2    0    0 -0.12234529361E+02  0.25604739485E+02  0.32838040776E+02  0.43400729427E+02  0.00000000000E+00 0.  1.
         11    1    3    3    0    0 -0.22105097430E+01 -0.42802723546E+01  0.85760365438E-01  0.48181365542E+01  0.51100000000E-03 0. -1.
        -11    1    3    3    0    0  0.35124767527E+01  0.11363698788E+00 -0.49139261163E+01  0.60412810264E+01  0.51100000000E-03 0.  1.
         12    1    3    3    0    0  0.10932562351E+02 -0.21438104118E+02 -0.28009875025E+02  0.36927852993E+02  0.00000000000E+00 0. -1.
</event>
<event>
 7    1  0.4011333E-009  0.4778731E+02  0.7816164E-02  0.1312668E+00
        -11   -1    0    0    0    0  0.00000000000E+00  0.00000000000E+00  0.45593999997E+02  0.45594000000E+02  0.51100000000E-03 0.  1.
         11   -1    0    0    0    0 -0.00000000000E+00 -0.00000000000E+00 -0.45593999997E+02  0.45594000000E+02  0.51100000000E-03 0. -1.
    9900012    2    1    2    0    0 -0.13424107032E+02 -0.21543858399E+02 -0.35203345441E+02  0.47787308594E+02  0.20000171201E+02 0.  0.
        -12    1    1    2    0    0  0.13424107032E+02  0.21543858399E+02  0.35203345441E+02  0.43400691406E+02  0.00000000000E+00 0.  1.
         11    1    3    3    0    0 -0.11404124811E+02 -0.28281701867E+01 -0.84731109240E+01  0.14486069801E+02  0.51100000000E-03 0. -1.
        -11    1    3    3    0    0  0.72948833167E+00  0.10663539925E+00 -0.17814945251E+01  0.19280164259E+01  0.51100000000E-03 0.  1.
         12    1    3    3    0    0 -0.27494705531E+01 -0.18822323612E+02 -0.24948739992E+02  0.31373222366E+02  0.00000000000E+00 0. -1.
</event>
<event>
 7    1  0.4011333E-009  0.4778727E+02  0.7816164E-02  0.1312668E+00
        -11   -1    0    0    0    0  0.00000000000E+00  0.00000000000E+00  0.45593999997E+02  0.45594000000E+02  0.51100000000E-03 0. -1.
         11   -1    0    0    0    0 -0.00000000000E+00 -0.00000000000E+00 -0.45593999997E+02  0.45594000000E+02  0.51100000000E-03 0.  1.
    9900012    2    1    2    0    0 -0.42885285422E+02 -0.40192599124E+01 -0.53217828347E+01  0.47787268111E+02  0.19999986625E+02 0.  0.
        -12    1    1    2    0    0  0.42885285422E+02  0.40192599124E+01  0.53217828347E+01  0.43400731889E+02  0.00000000000E+00 0.  1.
         11    1    3    3    0    0 -0.16145173503E+02 -0.86305066395E+01 -0.17340391814E+01  0.18389104503E+02  0.51100000000E-03 0. -1.
        -11    1    3    3    0    0 -0.31364406538E+01  0.14225576616E+01  0.31268858983E+01  0.46517035544E+01  0.51100000000E-03 0.  1.
         12    1    3    3    0    0 -0.23603671265E+02  0.31886890655E+01 -0.67146295517E+01  0.24746460053E+02  0.00000000000E+00 0. -1.
</event>
<event>
 7    1  0.4011333E-009  0.4778726E+02  0.7816164E-02  0.1312668E+00
        -11   -1    0    0    0    0  0.00000000000E+00  0.00000000000E+00  0.45593999997E+02  0.45594000000E+02  0.51100000000E-03 0.  1.
         11   -1    0    0    0    0 -0.00000000000E+00 -0.00000000000E+00 -0.45593999997E+02  0.45594000000E+02  0.51100000000E-03 0. -1.
    9900012    2    1    2    0    0 -0.15241135226E+02 -0.16565883589E+02 -0.37106648314E+02  0.47787262090E+02  0.19999959172E+02 0.  0.
        -12    1    1    2    0    0  0.15241135226E+02  0.16565883589E+02  0.37106648314E+02  0.43400737910E+02  0.00000000000E+00 0.  1.
         11    1    3    3    0    0 -0.82796872896E+01 -0.43232908624E+01 -0.17254553415E+02  0.19620491311E+02  0.51100000000E-03 0. -1.
        -11    1    3    3    0    0 -0.99015372891E+01 -0.12380344738E+02 -0.12311277247E+02  0.20071893887E+02  0.51100000000E-03 0.  1.
        -12    1    3    3    0    0  0.29400893531E+01  0.13775201047E+00 -0.75408176522E+01  0.80948768912E+01  0.00000000000E+00 0.  1.
</event>
<event>
 7    1  0.4011333E-009  0.4778727E+02  0.7816164E-02  0.1312668E+00
        -11   -1    0    0    0    0  0.00000000000E+00  0.00000000000E+00  0.45593999997E+02  0.45594000000E+02  0.51100000000E-03 0. -1.
         11   -1    0    0    0    0 -0.00000000000E+00 -0.00000000000E+00 -0.45593999997E+02  0.45594000000E+02  0.51100000000E-03 0.  1.
    9900012    2    1    2    0    0 -0.28659350798E+02  0.32589554483E+02  0.43092060996E+00  0.47787272562E+02  0.20000006919E+02 0.  0.
        -12    1    1    2    0    0  0.28659350798E+02 -0.32589554483E+02 -0.43092060996E+00  0.43400727438E+02  0.00000000000E+00 0.  1.
         11    1    3    3    0    0 -0.55520407190E+01  0.49289376038E+01 -0.32179838012E+01  0.80916625024E+01  0.51100000000E-03 0. -1.
        -11    1    3    3    0    0 -0.12505270136E+02  0.36800747221E+01  0.34129696576E+01  0.13474906058E+02  0.51100000000E-03 0.  1.
         12    1    3    3    0    0 -0.10602039943E+02  0.23980542157E+02  0.23593475356E+00  0.26220704001E+02  0.00000000000E+00 0. -1.
</event>
<event>
 7    1  0.4011333E-009  0.4778727E+02  0.7816164E-02  0.1312668E+00
        -11   -1    0    0    0    0  0.00000000000E+00  0.00000000000E+00  0.45593999997E+02  0.45594000000E+02  0.51100000000E-03 0. -1.
         11   -1    0    0    0    0 -0.00000000000E+00 -0.00000000000E+00 -0.45593999997E+02  0.45594000000E+02  0.51100000000E-03 0.  1.
    9900012    2    1    2    0    0 -0.33089865274E+02 -0.16284523217E+02 -0.22880090913E+02  0.47787269125E+02  0.19999991249E+02 0.  0.
        -12    1    1    2    0    0  0.33089865274E+02  0.16284523217E+02  0.22880090913E+02  0.43400730875E+02  0.00000000000E+00 0.  1.
         11    1    3    3    0    0 -0.22244614521E+02 -0.13595024818E+02 -0.18240333057E+02  0.31817563158E+02  0.51100000000E-03 0. -1.
        -11    1    3    3    0    0 -0.93252116956E+01 -0.45217082422E+01 -0.70873320440E+01  0.12555305427E+02  0.51100000000E-03 0.  1.
        -12    1    3    3    0    0 -0.15200390576E+01  0.18322098433E+01  0.24475741879E+01  0.34144005406E+01  0.00000000000E+00 0.  1.
</event>
<event>
 7    1  0.4011333E-009  0.4778727E+02  0.7816164E-02  0.1312668E+00
        -11   -1    0    0    0    0  0.00000000000E+00  0.00000000000E+00  0.45593999997E+02  0.45594000000E+02  0.51100000000E-03 0.  1.
         11   -1    0    0    0    0 -0.00000000000E+00 -0.00000000000E+00 -0.45593999997E+02  0.45594000000E+02  0.51100000000E-03 0. -1.
    9900012    2    1    2    0    0  0.22860340257E+02 -0.26754104201E+02 -0.25401695609E+02  0.47787269729E+02  0.19999994002E+02 0.  0.
        -12    1    1    2    0    0 -0.22860340257E+02  0.26754104201E+02  0.25401695609E+02  0.43400730271E+02  0.00000000000E+00 0.  1.
         11    1    3    3    0    0  0.92141402901E+01 -0.98404073760E+01 -0.17572356672E+02  0.22147724892E+02  0.51100000000E-03 0. -1.
        -11    1    3    3    0    0  0.73246286203E+00 -0.66875383646E+01 -0.60918263449E+01  0.90757930617E+01  0.51100000000E-03 0.  1.
        -12    1    3    3    0    0  0.12913737105E+02 -0.10226158460E+02 -0.17375125922E+01  0.16563751775E+02  0.00000000000E+00 0.  1.
</event>
<event>
 7    1  0.4011333E-009  0.4778727E+02  0.7816164E-02  0.1312668E+00
        -11   -1    0    0    0    0  0.00000000000E+00  0.00000000000E+00  0.45593999997E+02  0.45594000000E+02  0.51100000000E-03 0.  1.
         11   -1    0    0    0    0 -0.00000000000E+00 -0.00000000000E+00 -0.45593999997E+02  0.45594000000E+02  0.51100000000E-03 0. -1.
    9900012    2    1    2    0    0  0.15389810246E+02  0.32879726975E+02 -0.23784466645E+02  0.47787267761E+02  0.19999985027E+02 0.  0.
        -12    1    1    2    0    0 -0.15389810246E+02 -0.32879726975E+02  0.23784466645E+02  0.43400732239E+02  0.00000000000E+00 0.  1.
         11    1    3    3    0    0 -0.37745247444E+00  0.16261719603E+02 -0.15159801319E+02  0.22235232652E+02  0.51100000000E-03 0. -1.
        -11    1    3    3    0    0  0.52413934982E+01  0.10785370399E+02 -0.36983201474E+01  0.12548864197E+02  0.51100000000E-03 0.  1.
         12    1    3    3    0    0  0.10525869222E+02  0.58326369728E+01 -0.49263451784E+01  0.13003170912E+02  0.00000000000E+00 0. -1.
</event>
<event>
 7    1  0.4011333E-009  0.4778727E+02  0.7816164E-02  0.1312668E+00
        -11   -1    0    0    0    0  0.00000000000E+00  0.00000000000E+00  0.45593999997E+02  0.45594000000E+02  0.51100000000E-03 0.  1.
         11   -1    0    0    0    0 -0.00000000000E+00 -0.00000000000E+00 -0.45593999997E+02  0.45594000000E+02  0.51100000000E-03 0. -1.
    9900012    2    1    2    0    0  0.33780847651E+02  0.24802796152E+02  0.11282686771E+02  0.47787269756E+02  0.19999994125E+02 0.  0.
        -12    1    1    2    0    0 -0.33780847651E+02 -0.24802796152E+02 -0.11282686771E+02  0.43400730244E+02  0.00000000000E+00 0.  1.
         11    1    3    3    0    0  0.17527557340E+02  0.19511958943E+02 -0.12098313002E+01  0.26256342093E+02  0.51100000000E-03 0. -1.
        -11    1    3    3    0    0  0.26927564943E+01 -0.27292070996E+00  0.93015866073E+00  0.28619256885E+01  0.51100000000E-03 0.  1.
         12    1    3    3    0    0  0.13560533817E+02  0.55637579193E+01  0.11562359410E+02  0.18669001974E+02  0.00000000000E+00 0. -1.
</event>
<event>
 7    1  0.4011333E-009  0.4778727E+02  0.7816164E-02  0.1312668E+00
        -11   -1    0    0    0    0  0.00000000000E+00  0.00000000000E+00  0.45593999997E+02  0.45594000000E+02  0.51100000000E-03 0.  1.
         11   -1    0    0    0    0 -0.00000000000E+00 -0.00000000000E+00 -0.45593999997E+02  0.45594000000E+02  0.51100000000E-03 0. -1.
    9900012    2    1    2    0    0  0.32706454643E+02  0.27229736906E+02 -0.85118942126E+01  0.47787273158E+02  0.20000009637E+02 0.  0.
        -12    1    1    2    0    0 -0.32706454643E+02 -0.27229736906E+02  0.85118942126E+01  0.43400726842E+02  0.00000000000E+00 0.  1.
         11    1    3    3    0    0  0.21097295424E+02  0.25792783688E+02 -0.41386452925E+01  0.33578146906E+02  0.51100000000E-03 0. -1.
        -11    1    3    3    0    0  0.39975579017E+01  0.23751919261E+01  0.11109370691E+01  0.47808145013E+01  0.51100000000E-03 0.  1.
         12    1    3    3    0    0  0.76116013182E+01 -0.93823870782E+00 -0.54841859892E+01  0.94283117505E+01  0.00000000000E+00 0. -1.
</event>
<event>
 7    1  0.4011333E-009  0.4778727E+02  0.7816164E-02  0.1312668E+00
        -11   -1    0    0    0    0  0.00000000000E+00  0.00000000000E+00  0.45593999997E+02  0.45594000000E+02  0.51100000000E-03 0.  1.
         11   -1    0    0    0    0 -0.00000000000E+00 -0.00000000000E+00 -0.45593999997E+02  0.45594000000E+02  0.51100000000E-03 0. -1.
    9900012    2    1    2    0    0 -0.16924196516E+02 -0.11260233774E+02 -0.38345818153E+02  0.47787273484E+02  0.20000011121E+02 0.  0.
        -12    1    1    2    0    0  0.16924196516E+02  0.11260233774E+02  0.38345818153E+02  0.43400726516E+02  0.00000000000E+00 0.  1.
         11    1    3    3    0    0 -0.94351110029E+01 -0.17821740872E+01 -0.12310472647E+02  0.15612341309E+02  0.51100000000E-03 0.  1.
        -11    1    3    3    0    0 -0.25980575067E+01 -0.50621841993E+01 -0.39753597172E+00  0.57038273804E+01  0.51100000000E-03 0. -1.
         12    1    3    3    0    0 -0.48910280061E+01 -0.44158754872E+01 -0.25637809535E+02  0.26471104794E+02  0.00000000000E+00 0. -1.
</event>
<event>
 7    1  0.4011333E-009  0.4778727E+02  0.7816164E-02  0.1312668E+00
        -11   -1    0    0    0    0  0.00000000000E+00  0.00000000000E+00  0.45593999997E+02  0.45594000000E+02  0.51100000000E-03 0. -1.
         11   -1    0    0    0    0 -0.00000000000E+00 -0.00000000000E+00 -0.45593999997E+02  0.45594000000E+02  0.51100000000E-03 0.  1.
    9900012    2    1    2    0    0  0.37278673393E+02 -0.48013715356E+01  0.21699549924E+02  0.47787272754E+02  0.20000007794E+02 0.  0.
        -12    1    1    2    0    0 -0.37278673393E+02  0.48013715356E+01 -0.21699549924E+02  0.43400727246E+02  0.00000000000E+00 0.  1.
         11    1    3    3    0    0  0.13246269054E+02  0.56509469827E+00  0.60421551907E+01  0.14570196137E+02  0.51100000000E-03 0. -1.
        -11    1    3    3    0    0  0.21842216917E+02 -0.65062081195E+01  0.64519845376E+01  0.23686310153E+02  0.51100000000E-03 0.  1.
         12    1    3    3    0    0  0.21901874227E+01  0.11397418856E+01  0.92054101960E+01  0.95307664638E+01  0.00000000000E+00 0. -1.
</event>
<event>
 7    1  0.4011333E-009  0.4778727E+02  0.7816164E-02  0.1312668E+00
        -11   -1    0    0    0    0  0.00000000000E+00  0.00000000000E+00  0.45593999997E+02  0.45594000000E+02  0.51100000000E-03 0.  1.
         11   -1    0    0    0    0 -0.00000000000E+00 -0.00000000000E+00 -0.45593999997E+02  0.45594000000E+02  0.51100000000E-03 0. -1.
    9900012    2    1    2    0    0  0.87221088364E+01 -0.26338330477E+02 -0.33374253523E+02  0.47787266906E+02  0.19999981132E+02 0.  0.
        -12    1    1    2    0    0 -0.87221088364E+01  0.26338330477E+02  0.33374253523E+02  0.43400733094E+02  0.00000000000E+00 0.  1.
         11    1    3    3    0    0  0.26795111563E+01 -0.12993423089E+02 -0.19177678707E+02  0.23319352145E+02  0.51100000000E-03 0. -1.
        -11    1    3    3    0    0 -0.38429113501E+01 -0.74884457225E+01 -0.65633166198E+01  0.10673420834E+02  0.51100000000E-03 0.  1.
        -12    1    3    3    0    0  0.98855090302E+01 -0.58564616653E+01 -0.76332581965E+01  0.13794493928E+02  0.00000000000E+00 0.  1.
</event>
<event>
 7    1  0.4011333E-009  0.4778726E+02  0.7816164E-02  0.1312668E+00
        -11   -1    0    0    0    0  0.00000000000E+00  0.00000000000E+00  0.45593999997E+02  0.45594000000E+02  0.51100000000E-03 0.  1.
         11   -1    0    0    0    0 -0.00000000000E+00 -0.00000000000E+00 -0.45593999997E+02  0.45594000000E+02  0.51100000000E-03 0. -1.
    9900012    2    1    2    0    0 -0.57606951060E+01  0.17675438261E+02 -0.39217561821E+02  0.47787264050E+02  0.19999968107E+02 0.  0.
        -12    1    1    2    0    0  0.57606951060E+01 -0.17675438261E+02  0.39217561821E+02  0.43400735950E+02  0.00000000000E+00 0.  1.
         11    1    3    3    0    0 -0.59532196272E+01  0.13333116787E+01 -0.14402161062E+02  0.15640997011E+02  0.51100000000E-03 0. -1.
        -11    1    3    3    0    0 -0.50626974544E+01  0.30349682184E+01 -0.51937080698E+01  0.78623496092E+01  0.51100000000E-03 0.  1.
        -12    1    3    3    0    0  0.52552219756E+01  0.13307158364E+02 -0.19621692689E+02  0.24283917430E+02  0.00000000000E+00 0.  1.
</event>
<event>
 7    1  0.4011333E-009  0.4778727E+02  0.7816164E-02  0.1312668E+00
        -11   -1    0    0    0    0  0.00000000000E+00  0.00000000000E+00  0.45593999997E+02  0.45594000000E+02  0.51100000000E-03 0. -1.
         11   -1    0    0    0    0 -0.00000000000E+00 -0.00000000000E+00 -0.45593999997E+02  0.45594000000E+02  0.51100000000E-03 0.  1.
    9900012    2    1    2    0    0  0.12702745092E+02  0.22048924416E+02  0.35158340036E+02  0.47787266425E+02  0.19999978938E+02 0.  0.
        -12    1    1    2    0    0 -0.12702745092E+02 -0.22048924416E+02 -0.35158340036E+02  0.43400733575E+02  0.00000000000E+00 0.  1.
         11    1    3    3    0    0  0.90589784460E+01  0.38487965334E+01  0.58990849887E+01  0.11475082972E+02  0.51100000000E-03 0. -1.
        -11    1    3    3    0    0  0.38810738487E+01  0.58176477790E+01  0.37032637633E+01  0.79134014596E+01  0.51100000000E-03 0.  1.
         12    1    3    3    0    0 -0.23730720315E+00  0.12382480104E+02  0.25555991284E+02  0.28398781994E+02  0.00000000000E+00 0. -1.
</event>
<event>
 7    1  0.4011333E-009  0.4778727E+02  0.7816164E-02  0.1312668E+00
        -11   -1    0    0    0    0  0.00000000000E+00  0.00000000000E+00  0.45593999997E+02  0.45594000000E+02  0.51100000000E-03 0.  1.
         11   -1    0    0    0    0 -0.00000000000E+00 -0.00000000000E+00 -0.45593999997E+02  0.45594000000E+02  0.51100000000E-03 0. -1.
    9900012    2    1    2    0    0 -0.16237761642E+02  0.34725747098E+02 -0.20348976086E+02  0.47787271407E+02  0.20000001653E+02 0.  0.
        -12    1    1    2    0    0  0.16237761642E+02 -0.34725747098E+02  0.20348976086E+02  0.43400728593E+02  0.00000000000E+00 0.  1.
         11    1    3    3    0    0 -0.13779769574E+01  0.10354459064E+02 -0.41661544069E+01  0.11245909737E+02  0.51100000000E-03 0. -1.
        -11    1    3    3    0    0 -0.55452177001E+00  0.15980558875E+02 -0.59916243789E+01  0.17075869504E+02  0.51100000000E-03 0.  1.
         12    1    3    3    0    0 -0.14305262914E+02  0.83907291590E+01 -0.10191197300E+02  0.19465492166E+02  0.00000000000E+00 0. -1.
</event>
<event>
 7    1  0.4011333E-009  0.4778727E+02  0.7816164E-02  0.1312668E+00
        -11   -1    0    0    0    0  0.00000000000E+00  0.00000000000E+00  0.45593999997E+02  0.45594000000E+02  0.51100000000E-03 0.  1.
         11   -1    0    0    0    0 -0.00000000000E+00 -0.00000000000E+00 -0.45593999997E+02  0.45594000000E+02  0.51100000000E-03 0. -1.
    9900012    2    1    2    0    0  0.40581117830E+01  0.29939312333E+02 -0.31157544232E+02  0.47787271241E+02  0.20000000897E+02 0.  0.
        -12    1    1    2    0    0 -0.40581117830E+01 -0.29939312333E+02  0.31157544232E+02  0.43400728759E+02  0.00000000000E+00 0.  1.
         11    1    3    3    0    0  0.36308361370E+01  0.20998158240E+02 -0.14349011293E+02  0.25690460211E+02  0.51100000000E-03 0.  1.
        -11    1    3    3    0    0 -0.36888518950E+01  0.74482833147E+01 -0.54906764429E+01  0.99615300381E+01  0.51100000000E-03 0. -1.
         12    1    3    3    0    0  0.41161275409E+01  0.14928707791E+01 -0.11317856496E+02  0.12135280992E+02  0.00000000000E+00 0. -1.
</event>
<event>
 7    1  0.4011333E-009  0.4778724E+02  0.7816164E-02  0.1312668E+00
        -11   -1    0    0    0    0  0.00000000000E+00  0.00000000000E+00  0.45593999997E+02  0.45594000000E+02  0.51100000000E-03 0. -1.
         11   -1    0    0    0    0 -0.00000000000E+00 -0.00000000000E+00 -0.45593999997E+02  0.45594000000E+02  0.51100000000E-03 0.  1.
    9900012    2    1    2    0    0  0.28906134348E+02  0.87124001615E+00  0.32362048711E+02  0.47787241264E+02  0.19999864216E+02 0.  0.
        -12    1    1    2    0    0 -0.28906134348E+02 -0.87124001615E+00 -0.32362048711E+02  0.43400758736E+02  0.00000000000E+00 0.  1.
         11    1    3    3    0    0  0.15748302003E+02 -0.35793083826E+01  0.13578752882E+02  0.21099833994E+02  0.51100000000E-03 0. -1.
        -11    1    3    3    0    0  0.99884758377E+01 -0.23300354650E+01  0.60240770691E+01  0.11894882077E+02  0.51100000000E-03 0.  1.
        -12    1    3    3    0    0  0.31693565069E+01  0.67805838637E+01  0.12759218760E+02  0.14792525192E+02  0.00000000000E+00 0.  1.
</event>
<event>
 7    1  0.4011333E-009  0.4778727E+02  0.7816164E-02  0.1312668E+00
        -11   -1    0    0    0    0  0.00000000000E+00  0.00000000000E+00  0.45593999997E+02  0.45594000000E+02  0.51100000000E-03 0. -1.
         11   -1    0    0    0    0 -0.00000000000E+00 -0.00000000000E+00 -0.45593999997E+02  0.45594000000E+02  0.51100000000E-03 0.  1.
    9900012    2    1    2    0    0  0.11051443839E+02  0.33013089002E+02  0.25915725591E+02  0.47787270867E+02  0.19999999190E+02 0.  0.
        -12    1    1    2    0    0 -0.11051443839E+02 -0.33013089002E+02 -0.25915725591E+02  0.43400729133E+02  0.00000000000E+00 0.  1.
         11    1    3    3    0    0  0.15161914229E+01  0.38117343548E+01  0.24433323342E+01  0.47747280947E+01  0.51100000000E-03 0. -1.
        -11    1    3    3    0    0  0.29125123937E+01 -0.68730829889E+00 -0.16438865319E+01  0.34143058346E+01  0.51100000000E-03 0.  1.
        -12    1    3    3    0    0  0.66227400221E+01  0.29888662946E+02  0.25116279789E+02  0.39598236937E+02  0.00000000000E+00 0.  1.
</event>
<event>
 7    1  0.4011333E-009  0.4778727E+02  0.7816164E-02  0.1312668E+00
        -11   -1    0    0    0    0  0.00000000000E+00  0.00000000000E+00  0.45593999997E+02  0.45594000000E+02  0.51100000000E-03 0.  1.
         11   -1    0    0    0    0 -0.00000000000E+00 -0.00000000000E+00 -0.45593999997E+02  0.45594000000E+02  0.51100000000E-03 0. -1.
    9900012    2    1    2    0    0  0.18479406244E+02  0.14100244580E+02 -0.36651302904E+02  0.47787270088E+02  0.19999995639E+02 0.  0.
        -12    1    1    2    0    0 -0.18479406244E+02 -0.14100244580E+02  0.36651302904E+02  0.43400729912E+02  0.00000000000E+00 0.  1.
         11    1    3    3    0    0 -0.21973906722E+00  0.83703990632E+01 -0.42853783022E+01  0.94061859002E+01  0.51100000000E-03 0.  1.
        -11    1    3    3    0    0  0.58612818362E+01 -0.50250517458E+00 -0.13497100625E+02  0.14723412028E+02  0.51100000000E-03 0. -1.
        -12    1    3    3    0    0  0.12837863475E+02  0.62323506912E+01 -0.18868823977E+02  0.23657672160E+02  0.00000000000E+00 0.  1.
</event>
<event>
 7    1  0.4932519E-009  0.4778727E+02  0.7816164E-02  0.1312668E+00
        -11   -1    0    0    0    0  0.00000000000E+00  0.00000000000E+00  0.45593999997E+02  0.45594000000E+02  0.51100000000E-03 0.  1.
         11   -1    0    0    0    0 -0.00000000000E+00 -0.00000000000E+00 -0.45593999997E+02  0.45594000000E+02  0.51100000000E-03 0. -1.
    9900012    2    1    2    0    0 -0.41689994064E+02 -0.25146420038E+01  0.11800172633E+02  0.47787273005E+02  0.20000008940E+02 0.  0.
        -12    1    1    2    0    0  0.41689994064E+02  0.25146420038E+01 -0.11800172633E+02  0.43400726995E+02  0.00000000000E+00 0.  1.
         11    1    3    3    0    0 -0.68245043927E+01 -0.48212629591E+01  0.50507560180E+01  0.97636352524E+01  0.51100000000E-03 0. -1.
        -11    1    3    3    0    0 -0.65315567602E+01 -0.33437559153E+01 -0.23958578445E+01  0.77189424409E+01  0.51100000000E-03 0.  1.
        -12    1    3    3    0    0 -0.28333932912E+02  0.56503768706E+01  0.91452744596E+01  0.30304695312E+02  0.00000000000E+00 0.  1.
</event>
<event>
 7    1  0.4114007E-009  0.4778727E+02  0.7816164E-02  0.1312668E+00
        -11   -1    0    0    0    0  0.00000000000E+00  0.00000000000E+00  0.45593999997E+02  0.45594000000E+02  0.51100000000E-03 0. -1.
         11   -1    0    0    0    0 -0.00000000000E+00 -0.00000000000E+00 -0.45593999997E+02  0.45594000000E+02  0.51100000000E-03 0.  1.
    9900012    2    1    2    0    0  0.19056213806E+02 -0.38886291934E+02 -0.28879489530E+01  0.47787271502E+02  0.20000002084E+02 0.  0.
        -12    1    1    2    0    0 -0.19056213806E+02  0.38886291934E+02  0.28879489530E+01  0.43400728498E+02  0.00000000000E+00 0.  1.
         11    1    3    3    0    0  0.75464197041E+01 -0.13438265064E+02 -0.66478663175E-01  0.15412327467E+02  0.51100000000E-03 0. -1.
        -11    1    3    3    0    0  0.51145696211E+01  0.56954402996E+00  0.11961167570E+01  0.52833605185E+01  0.51100000000E-03 0.  1.
        -12    1    3    3    0    0  0.63952244813E+01 -0.26017570901E+02 -0.40175870469E+01  0.27091583516E+02  0.00000000000E+00 0.  1.
</event>
<event>
 7    1  0.4011333E-009  0.4778727E+02  0.7816164E-02  0.1312668E+00
        -11   -1    0    0    0    0  0.00000000000E+00  0.00000000000E+00  0.45593999997E+02  0.45594000000E+02  0.51100000000E-03 0. -1.
         11   -1    0    0    0    0 -0.00000000000E+00 -0.00000000000E+00 -0.45593999997E+02  0.45594000000E+02  0.51100000000E-03 0.  1.
    9900012    2    1    2    0    0  0.36983802004E+02 -0.14076409019E+02  0.17823479088E+02  0.47787270647E+02  0.19999998188E+02 0.  0.
        -12    1    1    2    0    0 -0.36983802004E+02  0.14076409019E+02 -0.17823479088E+02  0.43400729353E+02  0.00000000000E+00 0.  1.
         11    1    3    3    0    0  0.11953248884E+02 -0.11564207066E+02  0.37725344888E+01  0.17054121516E+02  0.51100000000E-03 0. -1.
        -11    1    3    3    0    0  0.69187615520E+01 -0.51273703577E+01  0.20589201087E+01  0.88542837358E+01  0.51100000000E-03 0.  1.
        -12    1    3    3    0    0  0.18111791568E+02  0.26151684048E+01  0.11992024491E+02  0.21878865395E+02  0.00000000000E+00 0.  1.
</event>
<event>
 7    1  0.4011333E-009  0.4778727E+02  0.7816164E-02  0.1312668E+00
        -11   -1    0    0    0    0  0.00000000000E+00  0.00000000000E+00  0.45593999997E+02  0.45594000000E+02  0.51100000000E-03 0. -1.
         11   -1    0    0    0    0 -0.00000000000E+00 -0.00000000000E+00 -0.45593999997E+02  0.45594000000E+02  0.51100000000E-03 0.  1.
    9900012    2    1    2    0    0  0.20049226288E+02 -0.18488422074E+02  0.33761376825E+02  0.47787265091E+02  0.19999972857E+02 0.  0.
        -12    1    1    2    0    0 -0.20049226288E+02  0.18488422074E+02 -0.33761376825E+02  0.43400734909E+02  0.00000000000E+00 0.  1.
         11    1    3    3    0    0  0.68317453682E+01 -0.11298295846E+02  0.24572262899E+02  0.27894808443E+02  0.51100000000E-03 0. -1.
        -11    1    3    3    0    0  0.33790145243E+01  0.70041298058E+00  0.59388172656E+01  0.68686147275E+01  0.51100000000E-03 0.  1.
        -12    1    3    3    0    0  0.98384663952E+01 -0.78905392084E+01  0.32502966600E+01  0.13023841921E+02  0.00000000000E+00 0.  1.
</event>
<event>
 7    1  0.4011333E-009  0.4778727E+02  0.7816164E-02  0.1312668E+00
        -11   -1    0    0    0    0  0.00000000000E+00  0.00000000000E+00  0.45593999997E+02  0.45594000000E+02  0.51100000000E-03 0.  1.
         11   -1    0    0    0    0 -0.00000000000E+00 -0.00000000000E+00 -0.45593999997E+02  0.45594000000E+02  0.51100000000E-03 0. -1.
    9900012    2    1    2    0    0 -0.42652510806E+02 -0.54250312287E+01 -0.59123229115E+01  0.47787271848E+02  0.20000003665E+02 0.  0.
        -12    1    1    2    0    0  0.42652510806E+02  0.54250312287E+01  0.59123229115E+01  0.43400728152E+02  0.00000000000E+00 0.  1.
         11    1    3    3    0    0 -0.16749274743E+02  0.15637821687E+00  0.87124049612E+00  0.16772647938E+02  0.51100000000E-03 0. -1.
        -11    1    3    3    0    0 -0.16716720435E+02  0.15691563642E+01 -0.91699899072E+01  0.19131118863E+02  0.51100000000E-03 0.  1.
        -12    1    3    3    0    0 -0.91865156275E+01 -0.71505658098E+01  0.23864264995E+01  0.11883505047E+02  0.00000000000E+00 0.  1.
</event>
<event>
 7    1  0.4011333E-009  0.4778727E+02  0.7816164E-02  0.1312668E+00
        -11   -1    0    0    0    0  0.00000000000E+00  0.00000000000E+00  0.45593999997E+02  0.45594000000E+02  0.51100000000E-03 0.  1.
         11   -1    0    0    0    0 -0.00000000000E+00 -0.00000000000E+00 -0.45593999997E+02  0.45594000000E+02  0.51100000000E-03 0. -1.
    9900012    2    1    2    0    0  0.25941181953E+02  0.30512226178E+02  0.16723707255E+02  0.47787271298E+02  0.20000001158E+02 0.  0.
        -12    1    1    2    0    0 -0.25941181953E+02 -0.30512226178E+02 -0.16723707255E+02  0.43400728702E+02  0.00000000000E+00 0.  1.
         11    1    3    3    0    0  0.12340914746E+02  0.76434847703E+01  0.56732604939E+01  0.15585471475E+02  0.51100000000E-03 0. -1.
        -11    1    3    3    0    0  0.54115818731E+01  0.83156496968E+01  0.11885451331E+02  0.15482222123E+02  0.51100000000E-03 0.  1.
        -12    1    3    3    0    0  0.81886853343E+01  0.14553091711E+02 -0.83500457025E+00  0.16719577701E+02  0.00000000000E+00 0.  1.
</event>
<event>
 7    1  0.4011333E-009  0.4778727E+02  0.7816164E-02  0.1312668E+00
        -11   -1    0    0    0    0  0.00000000000E+00  0.00000000000E+00  0.45593999997E+02  0.45594000000E+02  0.51100000000E-03 0. -1.
         11   -1    0    0    0    0 -0.00000000000E+00 -0.00000000000E+00 -0.45593999997E+02  0.45594000000E+02  0.51100000000E-03 0.  1.
    9900012    2    1    2    0    0  0.26367094089E+02  0.20158201289E+02  0.27965093367E+02  0.47787272161E+02  0.20000005091E+02 0.  0.
        -12    1    1    2    0    0 -0.26367094089E+02 -0.20158201289E+02 -0.27965093367E+02  0.43400727839E+02  0.00000000000E+00 0.  1.
         11    1    3    3    0    0  0.56759941178E+01  0.10154521250E+02  0.67763789674E+01  0.13462931449E+02  0.51100000000E-03 0. -1.
        -11    1    3    3    0    0 -0.15613559502E+01  0.55740221445E-01  0.45531551797E+01  0.48137471607E+01  0.51100000000E-03 0.  1.
         12    1    3    3    0    0  0.22252455922E+02  0.99479398177E+01  0.16635559220E+02  0.29510593551E+02  0.00000000000E+00 0. -1.
</event>
<event>
 7    1  0.4011333E-009  0.4778729E+02  0.7816164E-02  0.1312668E+00
        -11   -1    0    0    0    0  0.00000000000E+00  0.00000000000E+00  0.45593999997E+02  0.45594000000E+02  0.51100000000E-03 0.  1.
         11   -1    0    0    0    0 -0.00000000000E+00 -0.00000000000E+00 -0.45593999997E+02  0.45594000000E+02  0.51100000000E-03 0. -1.
    9900012    2    1    2    0    0  0.22557586527E+02 -0.26151502210E+02 -0.26284522422E+02  0.47787286910E+02  0.20000072338E+02 0.  0.
        -12    1    1    2    0    0 -0.22557586527E+02  0.26151502210E+02  0.26284522422E+02  0.43400713090E+02  0.00000000000E+00 0.  1.
         11    1    3    3    0    0  0.13316357356E+02 -0.10027737842E+02 -0.92598563501E+01  0.19068975833E+02  0.51100000000E-03 0. -1.
        -11    1    3    3    0    0  0.89260126865E+01 -0.12348663117E+02 -0.48842611309E+01  0.16000599686E+02  0.51100000000E-03 0.  1.
        -12    1    3    3    0    0  0.31521648417E+00 -0.37751012517E+01 -0.12140404941E+02  0.12717711391E+02  0.00000000000E+00 0.  1.
</event>
<event>
 7    1  0.4011333E-009  0.4778727E+02  0.7816164E-02  0.1312668E+00
        -11   -1    0    0    0    0  0.00000000000E+00  0.00000000000E+00  0.45593999997E+02  0.45594000000E+02  0.51100000000E-03 0. -1.
         11   -1    0    0    0    0 -0.00000000000E+00 -0.00000000000E+00 -0.45593999997E+02  0.45594000000E+02  0.51100000000E-03 0.  1.
    9900012    2    1    2    0    0 -0.15545943713E+02 -0.40420842161E+02  0.28465199690E+01  0.47787268176E+02  0.19999986922E+02 0.  0.
        -12    1    1    2    0    0  0.15545943713E+02  0.40420842161E+02 -0.28465199690E+01  0.43400731824E+02  0.00000000000E+00 0.  1.
         11    1    3    3    0    0 -0.11528179289E+02 -0.23395304929E+02  0.19347396107E+01  0.26153057719E+02  0.51100000000E-03 0. -1.
        -11    1    3    3    0    0 -0.74260313298E+01 -0.14859714474E+02  0.33086522080E+01  0.16938247704E+02  0.51100000000E-03 0.  1.
        -12    1    3    3    0    0  0.34082669060E+01 -0.21658227576E+01 -0.23968718497E+01  0.46959627536E+01  0.00000000000E+00 0.  1.
</event>
<event>
 7    1  0.4011333E-009  0.4778727E+02  0.7816164E-02  0.1312668E+00
        -11   -1    0    0    0    0  0.00000000000E+00  0.00000000000E+00  0.45593999997E+02  0.45594000000E+02  0.51100000000E-03 0.  1.
         11   -1    0    0    0    0 -0.00000000000E+00 -0.00000000000E+00 -0.45593999997E+02  0.45594000000E+02  0.51100000000E-03 0. -1.
    9900012    2    1    2    0    0  0.37153259074E+02 -0.16920992961E+02 -0.14728841481E+02  0.47787269200E+02  0.19999991591E+02 0.  0.
        -12    1    1    2    0    0 -0.37153259074E+02  0.16920992961E+02  0.14728841481E+02  0.43400730800E+02  0.00000000000E+00 0.  1.
         11    1    3    3    0    0  0.84290182652E+01 -0.66830166696E+01 -0.21285035009E+01  0.10965472545E+02  0.51100000000E-03 0. -1.
        -11    1    3    3    0    0  0.12016801789E+01 -0.24593975896E+01 -0.72173303279E+01  0.77189720222E+01  0.51100000000E-03 0.  1.
        -12    1    3    3    0    0  0.27522560630E+02 -0.77785787013E+01 -0.53830076521E+01  0.29102824633E+02  0.00000000000E+00 0.  1.
</event>
<event>
 7    1  0.4011333E-009  0.4778728E+02  0.7816164E-02  0.1312668E+00
        -11   -1    0    0    0    0  0.00000000000E+00  0.00000000000E+00  0.45593999997E+02  0.45594000000E+02  0.51100000000E-03 0.  1.
         11   -1    0    0    0    0 -0.00000000000E+00 -0.00000000000E+00 -0.45593999997E+02  0.45594000000E+02  0.51100000000E-03 0. -1.
    9900012    2    1    2    0    0  0.12714774638E+02 -0.32136268686E+02 -0.26252954274E+02  0.47787275729E+02  0.20000021358E+02 0.  0.
        -12    1    1    2    0    0 -0.12714774638E+02  0.32136268686E+02  0.26252954274E+02  0.43400724271E+02  0.00000000000E+00 0.  1.
         11    1    3    3    0    0 -0.24705732557E+00 -0.42055209738E+01  0.18189649303E+01  0.45886901903E+01  0.51100000000E-03 0. -1.
        -11    1    3    3    0    0  0.59592246995E+01 -0.15119430111E+02 -0.73168349909E+01  0.17822614860E+02  0.51100000000E-03 0.  1.
         12    1    3    3    0    0  0.70026072635E+01 -0.12811317602E+02 -0.20755084213E+02  0.25375970679E+02  0.00000000000E+00 0. -1.
</event>
<event>
 7    1  0.4011333E-009  0.4778727E+02  0.7816164E-02  0.1312668E+00
        -11   -1    0    0    0    0  0.00000000000E+00  0.00000000000E+00  0.45593999997E+02  0.45594000000E+02  0.51100000000E-03 0. -1.
         11   -1    0    0    0    0 -0.00000000000E+00 -0.00000000000E+00 -0.45593999997E+02  0.45594000000E+02  0.51100000000E-03 0.  1.
    9900012    2    1    2    0    0 -0.30301569141E+02 -0.84865427809E+01  0.29890079504E+02  0.47787270126E+02  0.19999995814E+02 0.  0.
        -12    1    1    2    0    0  0.30301569141E+02  0.84865427809E+01 -0.29890079504E+02  0.43400729874E+02  0.00000000000E+00 0.  1.
         11    1    3    3    0    0 -0.26741264806E+01 -0.19521087131E+01  0.66370651555E+01  0.74170287178E+01  0.51100000000E-03 0. -1.
        -11    1    3    3    0    0  0.12078245080E+01  0.20403869268E+01  0.38529415577E-01  0.23713927617E+01  0.51100000000E-03 0.  1.
         12    1    3    3    0    0 -0.28835267169E+02 -0.85748209946E+01  0.23214484933E+02  0.37998848647E+02  0.00000000000E+00 0. -1.
</event>
<event>
 7    1  0.4011333E-009  0.4778727E+02  0.7816164E-02  0.1312668E+00
        -11   -1    0    0    0    0  0.00000000000E+00  0.00000000000E+00  0.45593999997E+02  0.45594000000E+02  0.51100000000E-03 0. -1.
         11   -1    0    0    0    0 -0.00000000000E+00 -0.00000000000E+00 -0.45593999997E+02  0.45594000000E+02  0.51100000000E-03 0.  1.
    9900012    2    1    2    0    0 -0.22781892329E+02  0.36542609873E+02 -0.54079855660E+01  0.47787271178E+02  0.20000000609E+02 0.  0.
        -12    1    1    2    0    0  0.22781892329E+02 -0.36542609873E+02  0.54079855660E+01  0.43400728822E+02  0.00000000000E+00 0.  1.
         11    1    3    3    0    0 -0.12100866329E+02  0.20969465380E+02 -0.81197854156E+01  0.25535864185E+02  0.51100000000E-03 0. -1.
        -11    1    3    3    0    0 -0.38947028422E+01  0.80010073590E+01 -0.43168950194E+01  0.98904202063E+01  0.51100000000E-03 0.  1.
         12    1    3    3    0    0 -0.67863231573E+01  0.75721371338E+01  0.70286948690E+01  0.12360986786E+02  0.00000000000E+00 0. -1.
</event>
<event>
 7    1  0.4011333E-009  0.4778727E+02  0.7816164E-02  0.1312668E+00
        -11   -1    0    0    0    0  0.00000000000E+00  0.00000000000E+00  0.45593999997E+02  0.45594000000E+02  0.51100000000E-03 0.  1.
         11   -1    0    0    0    0 -0.00000000000E+00 -0.00000000000E+00 -0.45593999997E+02  0.45594000000E+02  0.51100000000E-03 0. -1.
    9900012    2    1    2    0    0 -0.27283081173E+02 -0.24681944473E+02 -0.23022993258E+02  0.47787272820E+02  0.20000008094E+02 0.  0.
        -12    1    1    2    0    0  0.27283081173E+02  0.24681944473E+02  0.23022993258E+02  0.43400727180E+02  0.00000000000E+00 0.  1.
         11    1    3    3    0    0 -0.13916417293E+01 -0.21061553898E+01  0.22047650075E+01  0.33516482853E+01  0.51100000000E-03 0. -1.
        -11    1    3    3    0    0 -0.15753872310E+02 -0.74119539656E+01 -0.73606602089E+01  0.18902403903E+02  0.51100000000E-03 0.  1.
         12    1    3    3    0    0 -0.10137567134E+02 -0.15163835117E+02 -0.17867098056E+02  0.25533220631E+02  0.00000000000E+00 0. -1.
</event>
<event>
 7    1  0.4011333E-009  0.4778727E+02  0.7816164E-02  0.1312668E+00
        -11   -1    0    0    0    0  0.00000000000E+00  0.00000000000E+00  0.45593999997E+02  0.45594000000E+02  0.51100000000E-03 0.  1.
         11   -1    0    0    0    0 -0.00000000000E+00 -0.00000000000E+00 -0.45593999997E+02  0.45594000000E+02  0.51100000000E-03 0. -1.
    9900012    2    1    2    0    0 -0.13164497445E+02 -0.12923076266E+02 -0.39285028334E+02  0.47787270232E+02  0.19999996296E+02 0.  0.
        -12    1    1    2    0    0  0.13164497445E+02  0.12923076266E+02  0.39285028334E+02  0.43400729768E+02  0.00000000000E+00 0.  1.
         11    1    3    3    0    0 -0.34185198412E+00 -0.35154352630E+01 -0.42089198890E+00  0.35570069152E+01  0.51100000000E-03 0.  1.
        -11    1    3    3    0    0  0.17203812754E+01 -0.49170699340E+01 -0.55947112379E+01  0.76444805295E+01  0.51100000000E-03 0. -1.
         12    1    3    3    0    0 -0.14543026736E+02 -0.44905710686E+01 -0.33269425108E+02  0.36585782787E+02  0.00000000000E+00 0. -1.
</event>
<event>
 7    1  0.4011333E-009  0.4778727E+02  0.7816164E-02  0.1312668E+00
        -11   -1    0    0    0    0  0.00000000000E+00  0.00000000000E+00  0.45593999997E+02  0.45594000000E+02  0.51100000000E-03 0.  1.
         11   -1    0    0    0    0 -0.00000000000E+00 -0.00000000000E+00 -0.45593999997E+02  0.45594000000E+02  0.51100000000E-03 0. -1.
    9900012    2    1    2    0    0  0.28550284787E+02 -0.12512540154E+02 -0.30198356383E+02  0.47787272463E+02  0.20000006467E+02 0.  0.
        -12    1    1    2    0    0 -0.28550284787E+02  0.12512540154E+02  0.30198356383E+02  0.43400727537E+02  0.00000000000E+00 0.  1.
         11    1    3    3    0    0  0.48715700366E+01 -0.23470523801E+01 -0.47355972400E+01  0.71879573577E+01  0.51100000000E-03 0. -1.
        -11    1    3    3    0    0  0.99685287594E+01 -0.14504395844E+01  0.37293410945E+00  0.10080397846E+02  0.51100000000E-03 0.  1.
         12    1    3    3    0    0  0.13710185992E+02 -0.87150481891E+01 -0.25835693252E+02  0.30518917259E+02  0.00000000000E+00 0. -1.
</event>
<event>
 7    1  0.4011333E-009  0.4778727E+02  0.7816164E-02  0.1312668E+00
        -11   -1    0    0    0    0  0.00000000000E+00  0.00000000000E+00  0.45593999997E+02  0.45594000000E+02  0.51100000000E-03 0.  1.
         11   -1    0    0    0    0 -0.00000000000E+00 -0.00000000000E+00 -0.45593999997E+02  0.45594000000E+02  0.51100000000E-03 0. -1.
    9900012    2    1    2    0    0  0.17760691930E+02 -0.24828294235E+02 -0.30850240561E+02  0.47787265961E+02  0.19999976824E+02 0.  0.
        -12    1    1    2    0    0 -0.17760691930E+02  0.24828294235E+02  0.30850240561E+02  0.43400734039E+02  0.00000000000E+00 0.  1.
         11    1    3    3    0    0  0.87732929513E+01 -0.30685916485E+01 -0.12292176955E+02  0.15410533361E+02  0.51100000000E-03 0.  1.
        -11    1    3    3    0    0  0.55758387273E+01 -0.12213695201E+01 -0.38149868160E+01  0.68655550165E+01  0.51100000000E-03 0. -1.
         12    1    3    3    0    0  0.34115602514E+01 -0.20538333066E+02 -0.14743076790E+02  0.25511177584E+02  0.00000000000E+00 0. -1.
</event>
<event>
 7    1  0.4011333E-009  0.4778727E+02  0.7816164E-02  0.1312668E+00
        -11   -1    0    0    0    0  0.00000000000E+00  0.00000000000E+00  0.45593999997E+02  0.45594000000E+02  0.51100000000E-03 0.  1.
         11   -1    0    0    0    0 -0.00000000000E+00 -0.00000000000E+00 -0.45593999997E+02  0.45594000000E+02  0.51100000000E-03 0. -1.
    9900012    2    1    2    0    0 -0.20833523543E+02  0.21051467905E+02 -0.31724174969E+02  0.47787270955E+02  0.19999999594E+02 0.  0.
        -12    1    1    2    0    0  0.20833523543E+02 -0.21051467905E+02  0.31724174969E+02  0.43400729045E+02  0.00000000000E+00 0.  1.
         11    1    3    3    0    0 -0.30878301975E+01  0.31915259531E+01  0.55090627825E+00  0.44748219211E+01  0.51100000000E-03 0.  1.
        -11    1    3    3    0    0 -0.16827080263E+02  0.15618038518E+02 -0.18949466184E+02  0.29768372919E+02  0.51100000000E-03 0. -1.
        -12    1    3    3    0    0 -0.91861308221E+00  0.22419034333E+01 -0.13325615063E+02  0.13544076115E+02  0.00000000000E+00 0.  1.
</event>
<event>
 7    1  0.4011333E-009  0.4778727E+02  0.7816164E-02  0.1312668E+00
        -11   -1    0    0    0    0  0.00000000000E+00  0.00000000000E+00  0.45593999997E+02  0.45594000000E+02  0.51100000000E-03 0.  1.
         11   -1    0    0    0    0 -0.00000000000E+00 -0.00000000000E+00 -0.45593999997E+02  0.45594000000E+02  0.51100000000E-03 0. -1.
    9900012    2    1    2    0    0  0.76594537829E+01  0.34861165214E+02 -0.24691195192E+02  0.47787271984E+02  0.20000004283E+02 0.  0.
        -12    1    1    2    0    0 -0.76594537829E+01 -0.34861165214E+02  0.24691195192E+02  0.43400728016E+02  0.00000000000E+00 0.  1.
         11    1    3    3    0    0 -0.15197137923E+01  0.32663929953E+01  0.18646205033E+01  0.40565580352E+01  0.51100000000E-03 0. -1.
        -11    1    3    3    0    0  0.25517945408E+01  0.98238233386E+00 -0.50308321904E+01  0.57259063228E+01  0.51100000000E-03 0.  1.
         12    1    3    3    0    0  0.66273730344E+01  0.30612389885E+02 -0.21524983505E+02  0.38004807626E+02  0.00000000000E+00 0. -1.
</event>
<event>
 7    1  0.4011333E-009  0.4778728E+02  0.7816164E-02  0.1312668E+00
        -11   -1    0    0    0    0  0.00000000000E+00  0.00000000000E+00  0.45593999997E+02  0.45594000000E+02  0.51100000000E-03 0.  1.
         11   -1    0    0    0    0 -0.00000000000E+00 -0.00000000000E+00 -0.45593999997E+02  0.45594000000E+02  0.51100000000E-03 0. -1.
    9900012    2    1    2    0    0  0.35499082873E+02  0.18042670552E+02 -0.17259780967E+02  0.47787275530E+02  0.20000020452E+02 0.  0.
        -12    1    1    2    0    0 -0.35499082873E+02 -0.18042670552E+02  0.17259780967E+02  0.43400724470E+02  0.00000000000E+00 0.  1.
         11    1    3    3    0    0  0.14166610114E+02  0.75541640342E+01 -0.76585619674E+01  0.17787968070E+02  0.51100000000E-03 0. -1.
        -11    1    3    3    0    0  0.16773071457E+02  0.14618654943E+02 -0.79806360644E+01  0.23637503055E+02  0.51100000000E-03 0.  1.
         12    1    3    3    0    0  0.45594013018E+01 -0.41301484246E+01 -0.16205829352E+01  0.63618044052E+01  0.00000000000E+00 0. -1.
</event>
<event>
 7    1  0.4011333E-009  0.4778727E+02  0.7816164E-02  0.1312668E+00
        -11   -1    0    0    0    0  0.00000000000E+00  0.00000000000E+00  0.45593999997E+02  0.45594000000E+02  0.51100000000E-03 0.  1.
         11   -1    0    0    0    0 -0.00000000000E+00 -0.00000000000E+00 -0.45593999997E+02  0.45594000000E+02  0.51100000000E-03 0. -1.
    9900012    2    1    2    0    0 -0.18021511904E+02 -0.19796374216E+02 -0.34160677407E+02  0.47787271846E+02  0.20000003653E+02 0.  0.
        -12    1    1    2    0    0  0.18021511904E+02  0.19796374216E+02  0.34160677407E+02  0.43400728154E+02  0.00000000000E+00 0.  1.
         11    1    3    3    0    0 -0.12733769223E+01 -0.50593866503E+01 -0.18532979539E+01  0.55365689403E+01  0.51100000000E-03 0. -1.
        -11    1    3    3    0    0 -0.13655216789E+02 -0.21634333602E+01 -0.12826016550E+02  0.18858740421E+02  0.51100000000E-03 0.  1.
         12    1    3    3    0    0 -0.30929181926E+01 -0.12573554205E+02 -0.19481362904E+02  0.23391962485E+02  0.00000000000E+00 0. -1.
</event>
<event>
 7    1  0.4011333E-009  0.4778727E+02  0.7816164E-02  0.1312668E+00
        -11   -1    0    0    0    0  0.00000000000E+00  0.00000000000E+00  0.45593999997E+02  0.45594000000E+02  0.51100000000E-03 0. -1.
         11   -1    0    0    0    0 -0.00000000000E+00 -0.00000000000E+00 -0.45593999997E+02  0.45594000000E+02  0.51100000000E-03 0.  1.
    9900012    2    1    2    0    0 -0.23052944167E+02  0.27785402491E+02  0.24086436887E+02  0.47787271109E+02  0.20000000294E+02 0.  0.
        -12    1    1    2    0    0  0.23052944167E+02 -0.27785402491E+02 -0.24086436887E+02  0.43400728891E+02  0.00000000000E+00 0.  1.
         11    1    3    3    0    0  0.16134353204E+01  0.29879131898E+01  0.17505153024E+01  0.38203537595E+01  0.51100000000E-03 0. -1.
        -11    1    3    3    0    0 -0.73986516233E+01  0.21091811814E+01 -0.87215802061E-01  0.76939130458E+01  0.51100000000E-03 0.  1.
         12    1    3    3    0    0 -0.17267727865E+02  0.22688308119E+02  0.22423137387E+02  0.36273004304E+02  0.00000000000E+00 0. -1.
</event>
<event>
 7    1  0.4011333E-009  0.4778728E+02  0.7816164E-02  0.1312668E+00
        -11   -1    0    0    0    0  0.00000000000E+00  0.00000000000E+00  0.45593999997E+02  0.45594000000E+02  0.51100000000E-03 0.  1.
         11   -1    0    0    0    0 -0.00000000000E+00 -0.00000000000E+00 -0.45593999997E+02  0.45594000000E+02  0.51100000000E-03 0. -1.
    9900012    2    1    2    0    0  0.35601768350E+02  0.22877977059E+02  0.96298765503E+01  0.47787282652E+02  0.20000052924E+02 0.  0.
        -12    1    1    2    0    0 -0.35601768350E+02 -0.22877977059E+02 -0.96298765503E+01  0.43400717348E+02  0.00000000000E+00 0.  1.
         11    1    3    3    0    0  0.12633434079E+01 -0.31536266032E+00 -0.15968789216E+00  0.13118653353E+01  0.51100000000E-03 0. -1.
        -11    1    3    3    0    0  0.11734430498E+02  0.23384030436E+01 -0.42097856875E+01  0.12684135119E+02  0.51100000000E-03 0.  1.
         12    1    3    3    0    0  0.22603994444E+02  0.20854936676E+02  0.13999350130E+02  0.33791282198E+02  0.00000000000E+00 0. -1.
</event>
<event>
 7    1  0.4011333E-009  0.4778727E+02  0.7816164E-02  0.1312668E+00
        -11   -1    0    0    0    0  0.00000000000E+00  0.00000000000E+00  0.45593999997E+02  0.45594000000E+02  0.51100000000E-03 0.  1.
         11   -1    0    0    0    0 -0.00000000000E+00 -0.00000000000E+00 -0.45593999997E+02  0.45594000000E+02  0.51100000000E-03 0. -1.
    9900012    2    1    2    0    0  0.20984968905E+02 -0.12207353197E+02 -0.35975478046E+02  0.47787269446E+02  0.19999992710E+02 0.  0.
        -12    1    1    2    0    0 -0.20984968905E+02  0.12207353197E+02  0.35975478046E+02  0.43400730554E+02  0.00000000000E+00 0.  1.
         11    1    3    3    0    0 -0.19730275404E+01 -0.17349709433E+01 -0.30777354266E+01  0.40466550961E+01  0.51100000000E-03 0.  1.
        -11    1    3    3    0    0  0.23025204319E+01 -0.39322448635E+01 -0.14878222556E+02  0.15560387421E+02  0.51100000000E-03 0. -1.
        -12    1    3    3    0    0  0.20655476013E+02 -0.65401373902E+01 -0.18019520064E+02  0.28180226928E+02  0.00000000000E+00 0.  1.
</event>
<event>
 7    1  0.4011333E-009  0.4778726E+02  0.7816164E-02  0.1312668E+00
        -11   -1    0    0    0    0  0.00000000000E+00  0.00000000000E+00  0.45593999997E+02  0.45594000000E+02  0.51100000000E-03 0.  1.
         11   -1    0    0    0    0 -0.00000000000E+00 -0.00000000000E+00 -0.45593999997E+02  0.45594000000E+02  0.51100000000E-03 0. -1.
    9900012    2    1    2    0    0 -0.17932931878E+02 -0.13956397342E+02 -0.36976383555E+02  0.47787262526E+02  0.19999961159E+02 0.  0.
        -12    1    1    2    0    0  0.17932931878E+02  0.13956397342E+02  0.36976383555E+02  0.43400737474E+02  0.00000000000E+00 0.  1.
         11    1    3    3    0    0 -0.12170564734E+01 -0.45706749982E+01 -0.70686429896E+01  0.85051755052E+01  0.51100000000E-03 0. -1.
        -11    1    3    3    0    0 -0.33808191389E+01  0.24015761510E+01 -0.16461744386E+02  0.16976057686E+02  0.51100000000E-03 0.  1.
         12    1    3    3    0    0 -0.13335056265E+02 -0.11787298495E+02 -0.13445996179E+02  0.22306029334E+02  0.00000000000E+00 0. -1.
</event>
<event>
 7    1  0.4011333E-009  0.4778728E+02  0.7816164E-02  0.1312668E+00
        -11   -1    0    0    0    0  0.00000000000E+00  0.00000000000E+00  0.45593999997E+02  0.45594000000E+02  0.51100000000E-03 0.  1.
         11   -1    0    0    0    0 -0.00000000000E+00 -0.00000000000E+00 -0.45593999997E+02  0.45594000000E+02  0.51100000000E-03 0. -1.
    9900012    2    1    2    0    0  0.41511648431E+02  0.49687778830E+01 -0.11649763100E+02  0.47787277778E+02  0.20000030699E+02 0.  0.
        -12    1    1    2    0    0 -0.41511648431E+02 -0.49687778830E+01  0.11649763100E+02  0.43400722222E+02  0.00000000000E+00 0.  1.
         11    1    3    3    0    0  0.33836734939E+01  0.12757383996E+01 -0.50516377428E+01  0.62125517240E+01  0.51100000000E-03 0. -1.
        -11    1    3    3    0    0  0.87653550257E+01 -0.43621723554E+01  0.18782967730E+01  0.99693528082E+01  0.51100000000E-03 0.  1.
         12    1    3    3    0    0  0.29362619912E+02  0.80552118387E+01 -0.84764221300E+01  0.31605373245E+02  0.00000000000E+00 0. -1.
</event>
<event>
 7    1  0.4011333E-009  0.4778727E+02  0.7816164E-02  0.1312668E+00
        -11   -1    0    0    0    0  0.00000000000E+00  0.00000000000E+00  0.45593999997E+02  0.45594000000E+02  0.51100000000E-03 0. -1.
         11   -1    0    0    0    0 -0.00000000000E+00 -0.00000000000E+00 -0.45593999997E+02  0.45594000000E+02  0.51100000000E-03 0.  1.
    9900012    2    1    2    0    0 -0.12829464495E+01 -0.31093764140E+02  0.30251530133E+02  0.47787271948E+02  0.20000004121E+02 0.  0.
        -12    1    1    2    0    0  0.12829464495E+01  0.31093764140E+02 -0.30251530133E+02  0.43400728052E+02  0.00000000000E+00 0.  1.
         11    1    3    3    0    0  0.91461869809E+00 -0.10877886924E+02  0.12010340180E+02  0.16230009944E+02  0.51100000000E-03 0. -1.
        -11    1    3    3    0    0 -0.81732212352E+01 -0.63272630415E+01  0.97873565692E+01  0.14234751555E+02  0.51100000000E-03 0.  1.
         12    1    3    3    0    0  0.59756560876E+01 -0.13888614174E+02  0.84538333846E+01  0.17322510449E+02  0.00000000000E+00 0. -1.
</event>
<event>
 7    1  0.4011333E-009  0.4778727E+02  0.7816164E-02  0.1312668E+00
        -11   -1    0    0    0    0  0.00000000000E+00  0.00000000000E+00  0.45593999997E+02  0.45594000000E+02  0.51100000000E-03 0.  1.
         11   -1    0    0    0    0 -0.00000000000E+00 -0.00000000000E+00 -0.45593999997E+02  0.45594000000E+02  0.51100000000E-03 0. -1.
    9900012    2    1    2    0    0  0.25384130072E+02  0.29210627407E+02 -0.19647094790E+02  0.47787272509E+02  0.20000006678E+02 0.  0.
        -12    1    1    2    0    0 -0.25384130072E+02 -0.29210627407E+02  0.19647094790E+02  0.43400727491E+02  0.00000000000E+00 0.  1.
         11    1    3    3    0    0  0.72753224251E-01  0.59460811298E-01 -0.16223608496E+01  0.16250795695E+01  0.51100000000E-03 0. -1.
        -11    1    3    3    0    0 -0.15732458211E+01 -0.65790989292E+00  0.73038056091E+00  0.18551021174E+01  0.51100000000E-03 0.  1.
         12    1    3    3    0    0  0.26884622669E+02  0.29809076489E+02 -0.18755114501E+02  0.44307090822E+02  0.00000000000E+00 0. -1.
</event>
<event>
 7    1  0.4011333E-009  0.4778729E+02  0.7816164E-02  0.1312668E+00
        -11   -1    0    0    0    0  0.00000000000E+00  0.00000000000E+00  0.45593999997E+02  0.45594000000E+02  0.51100000000E-03 0.  1.
         11   -1    0    0    0    0 -0.00000000000E+00 -0.00000000000E+00 -0.45593999997E+02  0.45594000000E+02  0.51100000000E-03 0. -1.
    9900012    2    1    2    0    0  0.15498987621E+02 -0.32407468922E+02 -0.24354859199E+02  0.47787287727E+02  0.20000076061E+02 0.  0.
        -12    1    1    2    0    0 -0.15498987621E+02  0.32407468922E+02  0.24354859199E+02  0.43400712273E+02  0.00000000000E+00 0.  1.
         11    1    3    3    0    0  0.22702854617E+01 -0.16097458286E+02 -0.53255031791E+01  0.17106821555E+02  0.51100000000E-03 0.  1.
        -11    1    3    3    0    0  0.37122704210E+01 -0.70073183850E+01 -0.60558917064E+00  0.79529995054E+01  0.51100000000E-03 0. -1.
        -12    1    3    3    0    0  0.95164317386E+01 -0.93026922513E+01 -0.18423766849E+02  0.22727466666E+02  0.00000000000E+00 0.  1.
</event>
<event>
 7    1  0.4011333E-009  0.4778727E+02  0.7816164E-02  0.1312668E+00
        -11   -1    0    0    0    0  0.00000000000E+00  0.00000000000E+00  0.45593999997E+02  0.45594000000E+02  0.51100000000E-03 0.  1.
         11   -1    0    0    0    0 -0.00000000000E+00 -0.00000000000E+00 -0.45593999997E+02  0.45594000000E+02  0.51100000000E-03 0. -1.
    9900012    2    1    2    0    0  0.24024156323E+02  0.18204171883E+02  0.31226135881E+02  0.47787268174E+02  0.19999986912E+02 0.  0.
        -12    1    1    2    0    0 -0.24024156323E+02 -0.18204171883E+02 -0.31226135881E+02  0.43400731826E+02  0.00000000000E+00 0.  1.
         11    1    3    3    0    0 -0.93452855520E+00  0.45487573724E+01  0.43920942837E+01  0.63917939354E+01  0.51100000000E-03 0. -1.
        -11    1    3    3    0    0  0.12973370257E+02  0.13786277554E+02  0.12384874603E+02  0.22622000438E+02  0.51100000000E-03 0.  1.
        -12    1    3    3    0    0  0.11985314621E+02 -0.13086304373E+00  0.14449166995E+02  0.18773473800E+02  0.00000000000E+00 0.  1.
</event>
<event>
 7    1  0.4011333E-009  0.4778727E+02  0.7816164E-02  0.1312668E+00
        -11   -1    0    0    0    0  0.00000000000E+00  0.00000000000E+00  0.45593999997E+02  0.45594000000E+02  0.51100000000E-03 0.  1.
         11   -1    0    0    0    0 -0.00000000000E+00 -0.00000000000E+00 -0.45593999997E+02  0.45594000000E+02  0.51100000000E-03 0. -1.
    9900012    2    1    2    0    0 -0.11345094513E+02 -0.11536006209E+02 -0.40271983283E+02  0.47787271362E+02  0.20000001448E+02 0.  0.
        -12    1    1    2    0    0  0.11345094513E+02  0.11536006209E+02  0.40271983283E+02  0.43400728638E+02  0.00000000000E+00 0.  1.
         11    1    3    3    0    0 -0.32071790637E+00 -0.79453952948E+00 -0.13210959512E+01  0.15746262454E+01  0.51100000000E-03 0. -1.
        -11    1    3    3    0    0  0.38296219921E+01 -0.90567456544E+01 -0.13603565707E+02  0.16785340231E+02  0.51100000000E-03 0.  1.
         12    1    3    3    0    0 -0.14853998599E+02 -0.16847210255E+01 -0.25347321625E+02  0.29427304886E+02  0.00000000000E+00 0. -1.
</event>
<event>
 7    1  0.4011333E-009  0.4778727E+02  0.7816164E-02  0.1312668E+00
        -11   -1    0    0    0    0  0.00000000000E+00  0.00000000000E+00  0.45593999997E+02  0.45594000000E+02  0.51100000000E-03 0. -1.
         11   -1    0    0    0    0 -0.00000000000E+00 -0.00000000000E+00 -0.45593999997E+02  0.45594000000E+02  0.51100000000E-03 0.  1.
    9900012    2    1    2    0    0  0.15478269108E+02  0.25721469856E+02  0.31344105466E+02  0.47787265287E+02  0.19999973749E+02 0.  0.
        -12    1    1    2    0    0 -0.15478269108E+02 -0.25721469856E+02 -0.31344105466E+02  0.43400734713E+02  0.00000000000E+00 0.  1.
         11    1    3    3    0    0  0.42375229738E-01  0.55508398280E+00 -0.84623688562E+00  0.10129318910E+01  0.51100000000E-03 0.  1.
        -11    1    3    3    0    0  0.13252099244E+02  0.27033963106E+02  0.25362026252E+02  0.39366047192E+02  0.51100000000E-03 0. -1.
         12    1    3    3    0    0  0.21837946344E+01 -0.18675772331E+01  0.68283160998E+01  0.74082862044E+01  0.00000000000E+00 0. -1.
</event>
<event>
 7    1  0.4011333E-009  0.4778727E+02  0.7816164E-02  0.1312668E+00
        -11   -1    0    0    0    0  0.00000000000E+00  0.00000000000E+00  0.45593999997E+02  0.45594000000E+02  0.51100000000E-03 0. -1.
         11   -1    0    0    0    0 -0.00000000000E+00 -0.00000000000E+00 -0.45593999997E+02  0.45594000000E+02  0.51100000000E-03 0.  1.
    9900012    2    1    2    0    0 -0.17559965363E+02 -0.33491139747E+02  0.21298226634E+02  0.47787270941E+02  0.19999999529E+02 0.  0.
        -12    1    1    2    0    0  0.17559965363E+02  0.33491139747E+02 -0.21298226634E+02  0.43400729059E+02  0.00000000000E+00 0.  1.
         11    1    3    3    0    0 -0.49305421586E+01 -0.21471966288E+02  0.54011871080E+01  0.22683218570E+02  0.51100000000E-03 0. -1.
        -11    1    3    3    0    0 -0.63214974675E+01 -0.30065769244E+01  0.18094660419E+01  0.72301454102E+01  0.51100000000E-03 0.  1.
        -12    1    3    3    0    0 -0.63079257366E+01 -0.90125965343E+01  0.14087573484E+02  0.17873906961E+02  0.00000000000E+00 0.  1.
</event>
<event>
 7    1  0.4011333E-009  0.4778728E+02  0.7816164E-02  0.1312668E+00
        -11   -1    0    0    0    0  0.00000000000E+00  0.00000000000E+00  0.45593999997E+02  0.45594000000E+02  0.51100000000E-03 0.  1.
         11   -1    0    0    0    0 -0.00000000000E+00 -0.00000000000E+00 -0.45593999997E+02  0.45594000000E+02  0.51100000000E-03 0. -1.
    9900012    2    1    2    0    0  0.10737024610E+02 -0.22020969262E+02 -0.35824795332E+02  0.47787277134E+02  0.20000027765E+02 0.  0.
        -12    1    1    2    0    0 -0.10737024610E+02  0.22020969262E+02  0.35824795332E+02  0.43400722866E+02  0.00000000000E+00 0.  1.
         11    1    3    3    0    0  0.87010758214E+01 -0.54758319821E+01 -0.22565668623E+02  0.24797234867E+02  0.51100000000E-03 0. -1.
        -11    1    3    3    0    0  0.53220039374E+01 -0.11995605413E+02 -0.85378488865E+01  0.15656089518E+02  0.51100000000E-03 0.  1.
        -12    1    3    3    0    0 -0.32860551493E+01 -0.45495318669E+01 -0.47212778221E+01  0.73339527491E+01  0.00000000000E+00 0.  1.
</event>
<event>
 7    1  0.4011333E-009  0.4778724E+02  0.7816164E-02  0.1312668E+00
        -11   -1    0    0    0    0  0.00000000000E+00  0.00000000000E+00  0.45593999997E+02  0.45594000000E+02  0.51100000000E-03 0. -1.
         11   -1    0    0    0    0 -0.00000000000E+00 -0.00000000000E+00 -0.45593999997E+02  0.45594000000E+02  0.51100000000E-03 0.  1.
    9900012    2    1    2    0    0  0.33976890521E+02  0.24124990638E+02 -0.12131830213E+02  0.47787244626E+02  0.19999879546E+02 0.  0.
        -12    1    1    2    0    0 -0.33976890521E+02 -0.24124990638E+02  0.12131830213E+02  0.43400755374E+02  0.00000000000E+00 0.  1.
         11    1    3    3    0    0  0.19095845755E+01 -0.26269168886E+01  0.12499375459E+01  0.34798778313E+01  0.51100000000E-03 0.  1.
        -11    1    3    3    0    0  0.55618605010E+01  0.79920032719E+01 -0.37807010854E+01  0.10445099784E+02  0.51100000000E-03 0. -1.
        -12    1    3    3    0    0  0.26505445444E+02  0.18759904255E+02 -0.96010666736E+01  0.33862267011E+02  0.00000000000E+00 0.  1.
</event>
<event>
 7    1  0.4011333E-009  0.4778727E+02  0.7816164E-02  0.1312668E+00
        -11   -1    0    0    0    0  0.00000000000E+00  0.00000000000E+00  0.45593999997E+02  0.45594000000E+02  0.51100000000E-03 0.  1.
         11   -1    0    0    0    0 -0.00000000000E+00 -0.00000000000E+00 -0.45593999997E+02  0.45594000000E+02  0.51100000000E-03 0. -1.
    9900012    2    1    2    0    0  0.18422769137E+02 -0.32057513616E+02 -0.22727526549E+02  0.47787273451E+02  0.20000010974E+02 0.  0.
        -12    1    1    2    0    0 -0.18422769137E+02  0.32057513616E+02  0.22727526549E+02  0.43400726549E+02  0.00000000000E+00 0.  1.
         11    1    3    3    0    0  0.17595007287E+01 -0.86949587421E+01 -0.95233603344E+01  0.13015089038E+02  0.51100000000E-03 0. -1.
        -11    1    3    3    0    0 -0.11690177331E+00 -0.53093020594E+01  0.21546599405E+01  0.57310482551E+01  0.51100000000E-03 0.  1.
        -12    1    3    3    0    0  0.16780170182E+02 -0.18053252814E+02 -0.15358826155E+02  0.29041136158E+02  0.00000000000E+00 0.  1.
</event>
<event>
 7    1  0.4011333E-009  0.4778727E+02  0.7816164E-02  0.1312668E+00
        -11   -1    0    0    0    0  0.00000000000E+00  0.00000000000E+00  0.45593999997E+02  0.45594000000E+02  0.51100000000E-03 0.  1.
         11   -1    0    0    0    0 -0.00000000000E+00 -0.00000000000E+00 -0.45593999997E+02  0.45594000000E+02  0.51100000000E-03 0. -1.
    9900012    2    1    2    0    0 -0.27346129873E+02 -0.18235207413E+02 -0.28342360058E+02  0.47787274405E+02  0.20000015324E+02 0.  0.
        -12    1    1    2    0    0  0.27346129873E+02  0.18235207413E+02  0.28342360058E+02  0.43400725595E+02  0.00000000000E+00 0.  1.
         11    1    3    3    0    0  0.22818446609E+00 -0.55219306564E+01 -0.31139662709E+01  0.63435457373E+01  0.51100000000E-03 0.  1.
        -11    1    3    3    0    0 -0.79262212214E-01  0.43991800690E-01 -0.50052983791E+01  0.50061192457E+01  0.51100000000E-03 0. -1.
         12    1    3    3    0    0 -0.27495052127E+02 -0.12757268558E+02 -0.20223095408E+02  0.36437609422E+02  0.00000000000E+00 0. -1.
</event>
<event>
 7    1  0.4011333E-009  0.4778727E+02  0.7816164E-02  0.1312668E+00
        -11   -1    0    0    0    0  0.00000000000E+00  0.00000000000E+00  0.45593999997E+02  0.45594000000E+02  0.51100000000E-03 0.  1.
         11   -1    0    0    0    0 -0.00000000000E+00 -0.00000000000E+00 -0.45593999997E+02  0.45594000000E+02  0.51100000000E-03 0. -1.
    9900012    2    1    2    0    0 -0.24500203847E+02  0.34570365958E+02 -0.93943185878E+01  0.47787269445E+02  0.19999992705E+02 0.  0.
        -12    1    1    2    0    0  0.24500203847E+02 -0.34570365958E+02  0.93943185878E+01  0.43400730555E+02  0.00000000000E+00 0.  1.
         11    1    3    3    0    0 -0.72283397027E+01  0.40954358975E+01 -0.12325546025E+01  0.83988499901E+01  0.51100000000E-03 0. -1.
        -11    1    3    3    0    0 -0.12325225958E+00  0.12141530799E+01 -0.52027686536E+01  0.53439836026E+01  0.51100000000E-03 0.  1.
         12    1    3    3    0    0 -0.17148611885E+02  0.29260776981E+02 -0.29589953316E+01  0.34044435852E+02  0.00000000000E+00 0. -1.
</event>
<event>
 7    1  0.4011333E-009  0.4778727E+02  0.7816164E-02  0.1312668E+00
        -11   -1    0    0    0    0  0.00000000000E+00  0.00000000000E+00  0.45593999997E+02  0.45594000000E+02  0.51100000000E-03 0. -1.
         11   -1    0    0    0    0 -0.00000000000E+00 -0.00000000000E+00 -0.45593999997E+02  0.45594000000E+02  0.51100000000E-03 0.  1.
    9900012    2    1    2    0    0  0.43307283701E+02 -0.40372275143E+00  0.28177257220E+01  0.47787269685E+02  0.19999993803E+02 0.  0.
        -12    1    1    2    0    0 -0.43307283701E+02  0.40372275143E+00 -0.28177257220E+01  0.43400730315E+02  0.00000000000E+00 0.  1.
         11    1    3    3    0    0  0.10655013735E+02 -0.14023127432E+01 -0.47080923532E+01  0.11732942196E+02  0.51100000000E-03 0. -1.
        -11    1    3    3    0    0  0.37635911120E+01 -0.44830821490E+01  0.10887669415E+01  0.59538271160E+01  0.51100000000E-03 0.  1.
         12    1    3    3    0    0  0.28888678854E+02  0.54816721408E+01  0.64370511337E+01  0.30100500373E+02  0.00000000000E+00 0. -1.
</event>
<event>
 7    1  0.4011333E-009  0.4778727E+02  0.7816164E-02  0.1312668E+00
        -11   -1    0    0    0    0  0.00000000000E+00  0.00000000000E+00  0.45593999997E+02  0.45594000000E+02  0.51100000000E-03 0. -1.
         11   -1    0    0    0    0 -0.00000000000E+00 -0.00000000000E+00 -0.45593999997E+02  0.45594000000E+02  0.51100000000E-03 0.  1.
    9900012    2    1    2    0    0  0.10438795157E+02  0.74300639526E+01  0.41466239337E+02  0.47787270750E+02  0.19999998659E+02 0.  0.
        -12    1    1    2    0    0 -0.10438795157E+02 -0.74300639526E+01 -0.41466239337E+02  0.43400729250E+02  0.00000000000E+00 0.  1.
         11    1    3    3    0    0 -0.67492858394E+00  0.23064656059E+01  0.55958907838E+01  0.60900990230E+01  0.51100000000E-03 0. -1.
        -11    1    3    3    0    0  0.13423758178E+02  0.83948035970E+01  0.33476271359E+02  0.37031483300E+02  0.51100000000E-03 0.  1.
         12    1    3    3    0    0 -0.23100344368E+01 -0.32712052503E+01  0.23940771939E+01  0.46656884271E+01  0.00000000000E+00 0. -1.
</event>
<event>
 7    1  0.4011333E-009  0.4778727E+02  0.7816164E-02  0.1312668E+00
        -11   -1    0    0    0    0  0.00000000000E+00  0.00000000000E+00  0.45593999997E+02  0.45594000000E+02  0.51100000000E-03 0.  1.
         11   -1    0    0    0    0 -0.00000000000E+00 -0.00000000000E+00 -0.45593999997E+02  0.45594000000E+02  0.51100000000E-03 0. -1.
    9900012    2    1    2    0    0  0.28780549707E+02 -0.32455441532E+02 -0.13954575672E+01  0.47787273874E+02  0.20000012900E+02 0.  0.
        -12    1    1    2    0    0 -0.28780549707E+02  0.32455441532E+02  0.13954575672E+01  0.43400726126E+02  0.00000000000E+00 0.  1.
         11    1    3    3    0    0  0.61883860657E+01 -0.13624387447E+02 -0.70697550795E+00  0.14980649854E+02  0.51100000000E-03 0. -1.
        -11    1    3    3    0    0  0.19007198137E+02 -0.19542271042E+02  0.32256836063E+01  0.27451392925E+02  0.51100000000E-03 0.  1.
        -12    1    3    3    0    0  0.35849655044E+01  0.71121695768E+00 -0.39141656655E+01  0.53552310954E+01  0.00000000000E+00 0.  1.
</event>
<event>
 7    1  0.4011333E-009  0.4778727E+02  0.7816164E-02  0.1312668E+00
        -11   -1    0    0    0    0  0.00000000000E+00  0.00000000000E+00  0.45593999997E+02  0.45594000000E+02  0.51100000000E-03 0.  1.
         11   -1    0    0    0    0 -0.00000000000E+00 -0.00000000000E+00 -0.45593999997E+02  0.45594000000E+02  0.51100000000E-03 0. -1.
    9900012    2    1    2    0    0  0.14485085380E+02  0.22869377688E+02 -0.33923401824E+02  0.47787270448E+02  0.19999997280E+02 0.  0.
        -12    1    1    2    0    0 -0.14485085380E+02 -0.22869377688E+02  0.33923401824E+02  0.43400729552E+02  0.00000000000E+00 0.  1.
         11    1    3    3    0    0  0.59097176489E+01  0.14550238370E+02 -0.14398614764E+02  0.21306203479E+02  0.51100000000E-03 0. -1.
        -11    1    3    3    0    0 -0.35404228301E+01  0.29259977670E+01 -0.43227593046E+01  0.63073215404E+01  0.51100000000E-03 0.  1.
        -12    1    3    3    0    0  0.12115790561E+02  0.53931415510E+01 -0.15202027756E+02  0.20173745428E+02  0.00000000000E+00 0.  1.
</event>
<event>
 7    1  0.4011333E-009  0.4778727E+02  0.7816164E-02  0.1312668E+00
        -11   -1    0    0    0    0  0.00000000000E+00  0.00000000000E+00  0.45593999997E+02  0.45594000000E+02  0.51100000000E-03 0.  1.
         11   -1    0    0    0    0 -0.00000000000E+00 -0.00000000000E+00 -0.45593999997E+02  0.45594000000E+02  0.51100000000E-03 0. -1.
    9900012    2    1    2    0    0  0.31578025730E+02 -0.29069291062E+02 -0.64364512872E+01  0.47787270777E+02  0.19999998781E+02 0.  0.
        -12    1    1    2    0    0 -0.31578025730E+02  0.29069291062E+02  0.64364512872E+01  0.43400729223E+02  0.00000000000E+00 0.  1.
         11    1    3    3    0    0  0.57035147618E+01 -0.16749653542E+01 -0.23132573760E+01  0.63786165839E+01  0.51100000000E-03 0. -1.
        -11    1    3    3    0    0  0.19350349614E+02 -0.22305363329E+02  0.40176130335E+01  0.29801115385E+02  0.51100000000E-03 0.  1.
        -12    1    3    3    0    0  0.65241613542E+01 -0.50889623789E+01 -0.81408069447E+01  0.11607538808E+02  0.00000000000E+00 0.  1.
</event>
<event>
 7    1  0.4011333E-009  0.4778727E+02  0.7816164E-02  0.1312668E+00
        -11   -1    0    0    0    0  0.00000000000E+00  0.00000000000E+00  0.45593999997E+02  0.45594000000E+02  0.51100000000E-03 0.  1.
         11   -1    0    0    0    0 -0.00000000000E+00 -0.00000000000E+00 -0.45593999997E+02  0.45594000000E+02  0.51100000000E-03 0. -1.
    9900012    2    1    2    0    0 -0.71534916138E+01  0.35016831409E+02 -0.24622595516E+02  0.47787272655E+02  0.20000007341E+02 0.  0.
        -12    1    1    2    0    0  0.71534916138E+01 -0.35016831409E+02  0.24622595516E+02  0.43400727345E+02  0.00000000000E+00 0.  1.
         11    1    3    3    0    0  0.20827701647E+01  0.13417219295E+02 -0.17368867796E+01  0.13688552923E+02  0.51100000000E-03 0.  1.
        -11    1    3    3    0    0 -0.22485665515E+01  0.83873646194E+01 -0.29261835805E+01  0.91633229454E+01  0.51100000000E-03 0. -1.
        -12    1    3    3    0    0 -0.69876952270E+01  0.13212247494E+02 -0.19959525156E+02  0.24935396786E+02  0.00000000000E+00 0.  1.
</event>
<event>
 7    1  0.4011333E-009  0.4778727E+02  0.7816164E-02  0.1312668E+00
        -11   -1    0    0    0    0  0.00000000000E+00  0.00000000000E+00  0.45593999997E+02  0.45594000000E+02  0.51100000000E-03 0.  1.
         11   -1    0    0    0    0 -0.00000000000E+00 -0.00000000000E+00 -0.45593999997E+02  0.45594000000E+02  0.51100000000E-03 0. -1.
    9900012    2    1    2    0    0  0.36829430657E+02 -0.66147327553E+01 -0.21987758043E+02  0.47787272405E+02  0.20000006205E+02 0.  0.
        -12    1    1    2    0    0 -0.36829430657E+02  0.66147327553E+01  0.21987758043E+02  0.43400727595E+02  0.00000000000E+00 0.  1.
         11    1    3    3    0    0  0.57265605390E+01 -0.17525252975E+00 -0.69313430980E+01  0.89926484675E+01  0.51100000000E-03 0. -1.
        -11    1    3    3    0    0  0.23537107129E+01  0.33608392016E+01  0.12907271345E+01  0.43012987639E+01  0.51100000000E-03 0.  1.
         12    1    3    3    0    0  0.28749159405E+02 -0.98003194271E+01 -0.16347142080E+02  0.34493325174E+02  0.00000000000E+00 0. -1.
</event>
<event>
 7    1  0.4011333E-009  0.4778727E+02  0.7816164E-02  0.1312668E+00
        -11   -1    0    0    0    0  0.00000000000E+00  0.00000000000E+00  0.45593999997E+02  0.45594000000E+02  0.51100000000E-03 0.  1.
         11   -1    0    0    0    0 -0.00000000000E+00 -0.00000000000E+00 -0.45593999997E+02  0.45594000000E+02  0.51100000000E-03 0. -1.
    9900012    2    1    2    0    0  0.30838502869E+02  0.23884797681E+02 -0.19029620587E+02  0.47787270984E+02  0.19999999722E+02 0.  0.
        -12    1    1    2    0    0 -0.30838502869E+02 -0.23884797681E+02  0.19029620587E+02  0.43400729016E+02  0.00000000000E+00 0.  1.
         11    1    3    3    0    0  0.21142813354E+01  0.79745694896E+01 -0.35185489915E+01  0.89690652454E+01  0.51100000000E-03 0.  1.
        -11    1    3    3    0    0  0.14509278582E+02  0.14998798717E+02 -0.12276354641E+02  0.24211402509E+02  0.51100000000E-03 0. -1.
         12    1    3    3    0    0  0.14214942951E+02  0.91142947473E+00 -0.32347169550E+01  0.14606803229E+02  0.00000000000E+00 0. -1.
</event>
<event>
 7    1  0.4011333E-009  0.4778727E+02  0.7816164E-02  0.1312668E+00
        -11   -1    0    0    0    0  0.00000000000E+00  0.00000000000E+00  0.45593999997E+02  0.45594000000E+02  0.51100000000E-03 0.  1.
         11   -1    0    0    0    0 -0.00000000000E+00 -0.00000000000E+00 -0.45593999997E+02  0.45594000000E+02  0.51100000000E-03 0. -1.
    9900012    2    1    2    0    0 -0.30069522718E+02  0.15483784027E+02 -0.27197426125E+02  0.47787265535E+02  0.19999974880E+02 0.  0.
        -12    1    1    2    0    0  0.30069522718E+02 -0.15483784027E+02  0.27197426125E+02  0.43400734465E+02  0.00000000000E+00 0.  1.
         11    1    3    3    0    0 -0.18066680727E+02  0.10911966145E+02 -0.13604239668E+02  0.25110780451E+02  0.51100000000E-03 0. -1.
        -11    1    3    3    0    0 -0.11996006197E+02  0.46031509191E+01 -0.45461677622E+01  0.13629409549E+02  0.51100000000E-03 0.  1.
        -12    1    3    3    0    0 -0.68357937072E-02 -0.31333036413E-01 -0.90470186944E+01  0.90470755354E+01  0.00000000000E+00 0.  1.
</event>
<event>
 7    1  0.4011333E-009  0.4778727E+02  0.7816164E-02  0.1312668E+00
        -11   -1    0    0    0    0  0.00000000000E+00  0.00000000000E+00  0.45593999997E+02  0.45594000000E+02  0.51100000000E-03 0.  1.
         11   -1    0    0    0    0 -0.00000000000E+00 -0.00000000000E+00 -0.45593999997E+02  0.45594000000E+02  0.51100000000E-03 0. -1.
    9900012    2    1    2    0    0 -0.28849119109E+02 -0.31997292865E+02  0.52464123601E+01  0.47787271127E+02  0.20000000374E+02 0.  0.
        -12    1    1    2    0    0  0.28849119109E+02  0.31997292865E+02 -0.52464123601E+01  0.43400728873E+02  0.00000000000E+00 0.  1.
         11    1    3    3    0    0 -0.61936876565E+01 -0.11397641940E+02  0.72231772117E+01  0.14847299346E+02  0.51100000000E-03 0. -1.
        -11    1    3    3    0    0  0.62041644024E+00 -0.33646764291E+01 -0.20288604420E+01  0.39777178113E+01  0.51100000000E-03 0.  1.
        -12    1    3    3    0    0 -0.23275847893E+02 -0.17234974496E+02  0.52095590410E-01  0.28962253969E+02  0.00000000000E+00 0.  1.
</event>
<event>
 7    1  0.4011333E-009  0.4778730E+02  0.7816164E-02  0.1312668E+00
        -11   -1    0    0    0    0  0.00000000000E+00  0.00000000000E+00  0.45593999997E+02  0.45594000000E+02  0.51100000000E-03 0.  1.
         11   -1    0    0    0    0 -0.00000000000E+00 -0.00000000000E+00 -0.45593999997E+02  0.45594000000E+02  0.51100000000E-03 0. -1.
    9900012    2    1    2    0    0 -0.25241055095E+02  0.12235057263E+02 -0.33118176685E+02  0.47787295910E+02  0.20000113374E+02 0.  0.
        -12    1    1    2    0    0  0.25241055095E+02 -0.12235057263E+02  0.33118176685E+02  0.43400704090E+02  0.00000000000E+00 0.  1.
         11    1    3    3    0    0  0.72262330250E+00  0.30245915435E-01 -0.26689297919E+01  0.27651918104E+01  0.51100000000E-03 0. -1.
        -11    1    3    3    0    0 -0.22237811560E+02  0.59576892512E+01 -0.29887878248E+02  0.37726642981E+02  0.51100000000E-03 0.  1.
        -12    1    3    3    0    0 -0.37258668374E+01  0.62471220965E+01 -0.56136864459E+00  0.72954611186E+01  0.00000000000E+00 0.  1.
</event>
<event>
 7    1  0.4011333E-009  0.4778729E+02  0.7816164E-02  0.1312668E+00
        -11   -1    0    0    0    0  0.00000000000E+00  0.00000000000E+00  0.45593999997E+02  0.45594000000E+02  0.51100000000E-03 0. -1.
         11   -1    0    0    0    0 -0.00000000000E+00 -0.00000000000E+00 -0.45593999997E+02  0.45594000000E+02  0.51100000000E-03 0.  1.
    9900012    2    1    2    0    0 -0.25883427606E+02 -0.13873658047E+02 -0.31956090118E+02  0.47787286782E+02  0.20000071752E+02 0.  0.
        -12    1    1    2    0    0  0.25883427606E+02  0.13873658047E+02  0.31956090118E+02  0.43400713218E+02  0.00000000000E+00 0.  1.
         11    1    3    3    0    0 -0.62759502996E+01 -0.70402571517E+01 -0.11191175009E+02  0.14635408135E+02  0.51100000000E-03 0. -1.
        -11    1    3    3    0    0 -0.20918118866E+02 -0.88227188794E+01 -0.15844026105E+02  0.27684674981E+02  0.51100000000E-03 0.  1.
        -12    1    3    3    0    0  0.13106415594E+01  0.19893179845E+01 -0.49208890036E+01  0.54672036661E+01  0.00000000000E+00 0.  1.
</event>
<event>
 7    1  0.4011333E-009  0.4778727E+02  0.7816164E-02  0.1312668E+00
        -11   -1    0    0    0    0  0.00000000000E+00  0.00000000000E+00  0.45593999997E+02  0.45594000000E+02  0.51100000000E-03 0.  1.
         11   -1    0    0    0    0 -0.00000000000E+00 -0.00000000000E+00 -0.45593999997E+02  0.45594000000E+02  0.51100000000E-03 0. -1.
    9900012    2    1    2    0    0 -0.36422930291E+02  0.91215234121E+00 -0.23583071387E+02  0.47787272714E+02  0.20000007614E+02 0.  0.
        -12    1    1    2    0    0  0.36422930291E+02 -0.91215234121E+00  0.23583071387E+02  0.43400727286E+02  0.00000000000E+00 0.  1.
         11    1    3    3    0    0 -0.18837162476E+02  0.18354221796E+01 -0.11937232465E+02  0.22376438141E+02  0.51100000000E-03 0. -1.
        -11    1    3    3    0    0 -0.10712480364E+02  0.54180778784E+01 -0.23648336679E+01  0.12235409351E+02  0.51100000000E-03 0.  1.
        -12    1    3    3    0    0 -0.68732874512E+01 -0.63413477168E+01 -0.92810052546E+01  0.13175425222E+02  0.00000000000E+00 0.  1.
</event>
<event>
 7    1  0.4011333E-009  0.4778727E+02  0.7816164E-02  0.1312668E+00
        -11   -1    0    0    0    0  0.00000000000E+00  0.00000000000E+00  0.45593999997E+02  0.45594000000E+02  0.51100000000E-03 0.  1.
         11   -1    0    0    0    0 -0.00000000000E+00 -0.00000000000E+00 -0.45593999997E+02  0.45594000000E+02  0.51100000000E-03 0. -1.
    9900012    2    1    2    0    0 -0.13808627167E+02  0.38785850063E+02 -0.13733272502E+02  0.47787272783E+02  0.20000007928E+02 0.  0.
        -12    1    1    2    0    0  0.13808627167E+02 -0.38785850063E+02  0.13733272502E+02  0.43400727217E+02  0.00000000000E+00 0.  1.
         11    1    3    3    0    0 -0.51224736403E+01  0.13454338750E+02  0.60381960159E+00  0.14409148683E+02  0.51100000000E-03 0. -1.
        -11    1    3    3    0    0 -0.81144856799E+01  0.21967668905E+02 -0.17092255926E+02  0.28992560561E+02  0.51100000000E-03 0.  1.
         12    1    3    3    0    0 -0.57166784653E+00  0.33638424079E+01  0.27551638222E+01  0.43855635395E+01  0.00000000000E+00 0. -1.
</event>
<event>
 7    1  0.4011333E-009  0.4778727E+02  0.7816164E-02  0.1312668E+00
        -11   -1    0    0    0    0  0.00000000000E+00  0.00000000000E+00  0.45593999997E+02  0.45594000000E+02  0.51100000000E-03 0.  1.
         11   -1    0    0    0    0 -0.00000000000E+00 -0.00000000000E+00 -0.45593999997E+02  0.45594000000E+02  0.51100000000E-03 0. -1.
    9900012    2    1    2    0    0  0.12110413320E+02 -0.41659369946E+02 -0.12075751605E+01  0.47787268982E+02  0.19999990597E+02 0.  0.
        -12    1    1    2    0    0 -0.12110413320E+02  0.41659369946E+02  0.12075751605E+01  0.43400731018E+02  0.00000000000E+00 0.  1.
         11    1    3    3    0    0 -0.14810732526E+01 -0.12088523140E+02 -0.30713386492E+00  0.12182787085E+02  0.51100000000E-03 0. -1.
        -11    1    3    3    0    0 -0.15651238498E+01 -0.12354377380E+02 -0.21302963437E+01  0.12634018201E+02  0.51100000000E-03 0.  1.
         12    1    3    3    0    0  0.15156610422E+02 -0.17216469427E+02  0.12298550482E+01  0.22970463697E+02  0.00000000000E+00 0. -1.
</event>
<event>
 7    1  0.4011333E-009  0.4778727E+02  0.7816164E-02  0.1312668E+00
        -11   -1    0    0    0    0  0.00000000000E+00  0.00000000000E+00  0.45593999997E+02  0.45594000000E+02  0.51100000000E-03 0.  1.
         11   -1    0    0    0    0 -0.00000000000E+00 -0.00000000000E+00 -0.45593999997E+02  0.45594000000E+02  0.51100000000E-03 0. -1.
    9900012    2    1    2    0    0  0.40294403052E+02  0.62106349892E+00 -0.16112068750E+02  0.47787269630E+02  0.19999993552E+02 0.  0.
        -12    1    1    2    0    0 -0.40294403052E+02 -0.62106349892E+00  0.16112068750E+02  0.43400730370E+02  0.00000000000E+00 0.  1.
         11    1    3    3    0    0  0.33030185065E+01 -0.21967092494E+00 -0.36406353762E+01  0.49206110162E+01  0.51100000000E-03 0. -1.
        -11    1    3    3    0    0  0.24079059844E+02 -0.58732181359E+01 -0.18587397060E+01  0.24854591684E+02  0.51100000000E-03 0.  1.
        -12    1    3    3    0    0  0.12912324702E+02  0.67139525598E+01 -0.10612693668E+02  0.18012066930E+02  0.00000000000E+00 0.  1.
</event>
<event>
 7    1  0.4011333E-009  0.4778727E+02  0.7816164E-02  0.1312668E+00
        -11   -1    0    0    0    0  0.00000000000E+00  0.00000000000E+00  0.45593999997E+02  0.45594000000E+02  0.51100000000E-03 0.  1.
         11   -1    0    0    0    0 -0.00000000000E+00 -0.00000000000E+00 -0.45593999997E+02  0.45594000000E+02  0.51100000000E-03 0. -1.
    9900012    2    1    2    0    0 -0.24706796841E+01  0.93886193961E+01 -0.42300977206E+02  0.47787272991E+02  0.20000008877E+02 0.  0.
        -12    1    1    2    0    0  0.24706796841E+01 -0.93886193961E+01  0.42300977206E+02  0.43400727009E+02  0.00000000000E+00 0.  1.
         11    1    3    3    0    0 -0.44904984488E+01  0.11787019456E+01 -0.93771883427E+01  0.10463535544E+02  0.51100000000E-03 0. -1.
        -11    1    3    3    0    0  0.78271265679E+00 -0.86338025603E+00  0.13872252109E+01  0.18117556724E+01  0.51100000000E-03 0.  1.
         12    1    3    3    0    0  0.12371061078E+01  0.90732977065E+01 -0.34311014075E+02  0.35511981775E+02  0.00000000000E+00 0. -1.
</event>
<event>
 7    1  0.4011333E-009  0.4778728E+02  0.7816164E-02  0.1312668E+00
        -11   -1    0    0    0    0  0.00000000000E+00  0.00000000000E+00  0.45593999997E+02  0.45594000000E+02  0.51100000000E-03 0. -1.
         11   -1    0    0    0    0 -0.00000000000E+00 -0.00000000000E+00 -0.45593999997E+02  0.45594000000E+02  0.51100000000E-03 0.  1.
    9900012    2    1    2    0    0 -0.32050192660E+02  0.28174957491E+02  0.79107059129E+01  0.47787281721E+02  0.20000048677E+02 0.  0.
        -12    1    1    2    0    0  0.32050192660E+02 -0.28174957491E+02 -0.79107059129E+01  0.43400718279E+02  0.00000000000E+00 0.  1.
         11    1    3    3    0    0 -0.51970584073E+01 -0.32524033726E+00  0.39026602912E+01  0.65073769659E+01  0.51100000000E-03 0. -1.
        -11    1    3    3    0    0 -0.53509907386E+01  0.26429726356E+01  0.47726834865E+01  0.76417873669E+01  0.51100000000E-03 0.  1.
         12    1    3    3    0    0 -0.21502143514E+02  0.25857225192E+02 -0.76463786480E+00  0.33638117388E+02  0.00000000000E+00 0. -1.
</event>
<event>
 7    1  0.8353075E-009  0.4778727E+02  0.7816164E-02  0.1312668E+00
        -11   -1    0    0    0    0  0.00000000000E+00  0.00000000000E+00  0.45593999997E+02  0.45594000000E+02  0.51100000000E-03 0. -1.
         11   -1    0    0    0    0 -0.00000000000E+00 -0.00000000000E+00 -0.45593999997E+02  0.45594000000E+02  0.51100000000E-03 0.  1.
    9900012    2    1    2    0    0  0.76457005017E+01  0.31664748601E+02  0.28679439747E+02  0.47787270693E+02  0.19999998400E+02 0.  0.
        -12    1    1    2    0    0 -0.76457005017E+01 -0.31664748601E+02 -0.28679439747E+02  0.43400729307E+02  0.00000000000E+00 0.  1.
         11    1    3    3    0    0  0.31394835533E+01  0.19732537744E+02  0.17005971418E+02  0.26237996626E+02  0.51100000000E-03 0. -1.
        -11    1    3    3    0    0  0.52061522602E+01  0.11301399409E+02  0.14183690243E+02  0.18868034321E+02  0.51100000000E-03 0.  1.
        -12    1    3    3    0    0 -0.69993531176E+00  0.63081144722E+00 -0.25102219137E+01  0.26812397466E+01  0.00000000000E+00 0.  1.
</event>
<event>
 7    1  0.4011333E-009  0.4778727E+02  0.7816164E-02  0.1312668E+00
        -11   -1    0    0    0    0  0.00000000000E+00  0.00000000000E+00  0.45593999997E+02  0.45594000000E+02  0.51100000000E-03 0. -1.
         11   -1    0    0    0    0 -0.00000000000E+00 -0.00000000000E+00 -0.45593999997E+02  0.45594000000E+02  0.51100000000E-03 0.  1.
    9900012    2    1    2    0    0 -0.94907245274E+01  0.35681916814E+02  0.22811190058E+02  0.47787269229E+02  0.19999991722E+02 0.  0.
        -12    1    1    2    0    0  0.94907245274E+01 -0.35681916814E+02 -0.22811190058E+02  0.43400730771E+02  0.00000000000E+00 0.  1.
         11    1    3    3    0    0 -0.57670283996E+01  0.12303981857E+02  0.44000119764E+01  0.14283091114E+02  0.51100000000E-03 0.  1.
        -11    1    3    3    0    0 -0.74366834793E+01  0.84814686338E+01  0.13034439923E+02  0.17237638925E+02  0.51100000000E-03 0. -1.
         12    1    3    3    0    0  0.37129873515E+01  0.14896466323E+02  0.53767381590E+01  0.16266539190E+02  0.00000000000E+00 0. -1.
</event>
<event>
 7    1  0.4011333E-009  0.4778727E+02  0.7816164E-02  0.1312668E+00
        -11   -1    0    0    0    0  0.00000000000E+00  0.00000000000E+00  0.45593999997E+02  0.45594000000E+02  0.51100000000E-03 0.  1.
         11   -1    0    0    0    0 -0.00000000000E+00 -0.00000000000E+00 -0.45593999997E+02  0.45594000000E+02  0.51100000000E-03 0. -1.
    9900012    2    1    2    0    0 -0.23022054429E+02  0.30901507138E+02 -0.19967598785E+02  0.47787272647E+02  0.20000007307E+02 0.  0.
        -12    1    1    2    0    0  0.23022054429E+02 -0.30901507138E+02  0.19967598785E+02  0.43400727353E+02  0.00000000000E+00 0.  1.
         11    1    3    3    0    0 -0.37057054322E+01  0.35025133872E+01  0.21243816008E+01  0.55238437907E+01  0.51100000000E-03 0. -1.
        -11    1    3    3    0    0  0.18720694489E+01  0.10461458569E+01 -0.19864687200E+01  0.29232043056E+01  0.51100000000E-03 0.  1.
         12    1    3    3    0    0 -0.21188418446E+02  0.26352847894E+02 -0.20105511666E+02  0.39340224551E+02  0.00000000000E+00 0. -1.
</event>
<event>
 7    1  0.4011333E-009  0.4778727E+02  0.7816164E-02  0.1312668E+00
        -11   -1    0    0    0    0  0.00000000000E+00  0.00000000000E+00  0.45593999997E+02  0.45594000000E+02  0.51100000000E-03 0.  1.
         11   -1    0    0    0    0 -0.00000000000E+00 -0.00000000000E+00 -0.45593999997E+02  0.45594000000E+02  0.51100000000E-03 0. -1.
    9900012    2    1    2    0    0 -0.35683008154E+02  0.12763309044E+02 -0.21152871076E+02  0.47787273239E+02  0.20000010005E+02 0.  0.
        -12    1    1    2    0    0  0.35683008154E+02 -0.12763309044E+02  0.21152871076E+02  0.43400726761E+02  0.00000000000E+00 0.  1.
         11    1    3    3    0    0 -0.21391751638E+02  0.17793017673E+01 -0.19436279806E+02  0.28957588399E+02  0.51100000000E-03 0. -1.
        -11    1    3    3    0    0 -0.49825781306E+01  0.96516128389E+00 -0.42292087139E+00  0.50927873955E+01  0.51100000000E-03 0.  1.
        -12    1    3    3    0    0 -0.93086783850E+01  0.10018845993E+02 -0.12936703991E+01  0.13736897444E+02  0.00000000000E+00 0.  1.
</event>
<event>
 7    1  0.4011333E-009  0.4778727E+02  0.7816164E-02  0.1312668E+00
        -11   -1    0    0    0    0  0.00000000000E+00  0.00000000000E+00  0.45593999997E+02  0.45594000000E+02  0.51100000000E-03 0.  1.
         11   -1    0    0    0    0 -0.00000000000E+00 -0.00000000000E+00 -0.45593999997E+02  0.45594000000E+02  0.51100000000E-03 0. -1.
    9900012    2    1    2    0    0 -0.24539655807E+02  0.23289314286E+02 -0.27185225022E+02  0.47787270438E+02  0.19999997234E+02 0.  0.
        -12    1    1    2    0    0  0.24539655807E+02 -0.23289314286E+02  0.27185225022E+02  0.43400729562E+02  0.00000000000E+00 0.  1.
         11    1    3    3    0    0 -0.12099684156E+01  0.13138585480E+02 -0.11359773512E+02  0.17410654970E+02  0.51100000000E-03 0. -1.
        -11    1    3    3    0    0 -0.69980180338E+01  0.56278312664E+01 -0.53022754350E+01  0.10428751901E+02  0.51100000000E-03 0.  1.
        -12    1    3    3    0    0 -0.16331669358E+02  0.45228975391E+01 -0.10523176075E+02  0.19947863567E+02  0.00000000000E+00 0.  1.
</event>
<event>
 7    1  0.4011333E-009  0.4778727E+02  0.7816164E-02  0.1312668E+00
        -11   -1    0    0    0    0  0.00000000000E+00  0.00000000000E+00  0.45593999997E+02  0.45594000000E+02  0.51100000000E-03 0. -1.
         11   -1    0    0    0    0 -0.00000000000E+00 -0.00000000000E+00 -0.45593999997E+02  0.45594000000E+02  0.51100000000E-03 0.  1.
    9900012    2    1    2    0    0  0.18063195591E+02  0.10093643116E+02  0.38150530577E+02  0.47787266715E+02  0.19999980262E+02 0.  0.
        -12    1    1    2    0    0 -0.18063195591E+02 -0.10093643116E+02 -0.38150530577E+02  0.43400733285E+02  0.00000000000E+00 0.  1.
         11    1    3    3    0    0  0.33473494267E+01  0.71042521265E+01  0.26793467726E+02  0.27920692318E+02  0.51100000000E-03 0. -1.
        -11    1    3    3    0    0  0.48875560190E+01 -0.11022114240E+00  0.73117222078E+01  0.87955462846E+01  0.51100000000E-03 0.  1.
        -12    1    3    3    0    0  0.98282901455E+01  0.30996121319E+01  0.40453406430E+01  0.11071028113E+02  0.00000000000E+00 0.  1.
</event>
<event>
 7    1  0.4011333E-009  0.4778728E+02  0.7816164E-02  0.1312668E+00
        -11   -1    0    0    0    0  0.00000000000E+00  0.00000000000E+00  0.45593999997E+02  0.45594000000E+02  0.51100000000E-03 0.  1.
         11   -1    0    0    0    0 -0.00000000000E+00 -0.00000000000E+00 -0.45593999997E+02  0.45594000000E+02  0.51100000000E-03 0. -1.
    9900012    2    1    2    0    0  0.31294396484E+02  0.11942788709E+02 -0.27598069133E+02  0.47787275659E+02  0.20000021040E+02 0.  0.
        -12    1    1    2    0    0 -0.31294396484E+02 -0.11942788709E+02  0.27598069133E+02  0.43400724341E+02  0.00000000000E+00 0.  1.
         11    1    3    3    0    0  0.25073156277E+01 -0.16363193955E+01 -0.12997581369E+01  0.32639767611E+01  0.51100000000E-03 0. -1.
        -11    1    3    3    0    0  0.20987905516E+02  0.15374896305E+02 -0.13201248681E+02  0.29174519385E+02  0.51100000000E-03 0.  1.
        -12    1    3    3    0    0  0.77991753399E+01 -0.17957882004E+01 -0.13097062316E+02  0.15348779513E+02  0.00000000000E+00 0.  1.
</event>
<event>
 7    1  0.4011333E-009  0.4778727E+02  0.7816164E-02  0.1312668E+00
        -11   -1    0    0    0    0  0.00000000000E+00  0.00000000000E+00  0.45593999997E+02  0.45594000000E+02  0.51100000000E-03 0.  1.
         11   -1    0    0    0    0 -0.00000000000E+00 -0.00000000000E+00 -0.45593999997E+02  0.45594000000E+02  0.51100000000E-03 0. -1.
    9900012    2    1    2    0    0 -0.21833802518E+02  0.12511596289E+00 -0.37508571296E+02  0.47787268358E+02  0.19999987750E+02 0.  0.
        -12    1    1    2    0    0  0.21833802518E+02 -0.12511596289E+00  0.37508571296E+02  0.43400731642E+02  0.00000000000E+00 0.  1.
         11    1    3    3    0    0 -0.14883030669E+02 -0.34230658878E+00 -0.17688866401E+02  0.23119640362E+02  0.51100000000E-03 0. -1.
        -11    1    3    3    0    0 -0.77263151830E+01 -0.43679064081E+01 -0.83063661136E+01  0.12156079589E+02  0.51100000000E-03 0.  1.
        -12    1    3    3    0    0  0.77554333388E+00  0.48353289598E+01 -0.11513338782E+02  0.12511548406E+02  0.00000000000E+00 0.  1.
</event>
<event>
 7    1  0.4011333E-009  0.4778727E+02  0.7816164E-02  0.1312668E+00
        -11   -1    0    0    0    0  0.00000000000E+00  0.00000000000E+00  0.45593999997E+02  0.45594000000E+02  0.51100000000E-03 0.  1.
         11   -1    0    0    0    0 -0.00000000000E+00 -0.00000000000E+00 -0.45593999997E+02  0.45594000000E+02  0.51100000000E-03 0. -1.
    9900012    2    1    2    0    0  0.36511313253E+02 -0.12050023820E+02 -0.20133170464E+02  0.47787267028E+02  0.19999981688E+02 0.  0.
        -12    1    1    2    0    0 -0.36511313253E+02  0.12050023820E+02  0.20133170464E+02  0.43400732972E+02  0.00000000000E+00 0.  1.
         11    1    3    3    0    0  0.96466605869E+01 -0.55359483002E+01 -0.12474351542E+02  0.16712696692E+02  0.51100000000E-03 0. -1.
        -11    1    3    3    0    0  0.23579044476E+02 -0.44159087005E+01 -0.10564704040E+02  0.26212297873E+02  0.51100000000E-03 0.  1.
        -12    1    3    3    0    0  0.32856081906E+01 -0.20981668194E+01  0.29058851187E+01  0.48622724633E+01  0.00000000000E+00 0.  1.
</event>
<event>
 7    1  0.4011333E-009  0.4778727E+02  0.7816164E-02  0.1312668E+00
        -11   -1    0    0    0    0  0.00000000000E+00  0.00000000000E+00  0.45593999997E+02  0.45594000000E+02  0.51100000000E-03 0.  1.
         11   -1    0    0    0    0 -0.00000000000E+00 -0.00000000000E+00 -0.45593999997E+02  0.45594000000E+02  0.51100000000E-03 0. -1.
    9900012    2    1    2    0    0 -0.11349335353E+01  0.23542219917E+02 -0.36443094890E+02  0.47787270076E+02  0.19999995587E+02 0.  0.
        -12    1    1    2    0    0  0.11349335353E+01 -0.23542219917E+02  0.36443094890E+02  0.43400729924E+02  0.00000000000E+00 0.  1.
         11    1    3    3    0    0  0.92145547405E+00  0.52437018280E+01 -0.37694469044E+01  0.65233595085E+01  0.51100000000E-03 0. -1.
        -11    1    3    3    0    0  0.56019030317E+00  0.11774695181E+02 -0.32118092121E+02  0.34212996091E+02  0.51100000000E-03 0.  1.
        -12    1    3    3    0    0 -0.26165793126E+01  0.65238229085E+01 -0.55555586412E+00  0.70509144768E+01  0.00000000000E+00 0.  1.
</event>
<event>
 7    1  0.4011333E-009  0.4778728E+02  0.7816164E-02  0.1312668E+00
        -11   -1    0    0    0    0  0.00000000000E+00  0.00000000000E+00  0.45593999997E+02  0.45594000000E+02  0.51100000000E-03 0. -1.
         11   -1    0    0    0    0 -0.00000000000E+00 -0.00000000000E+00 -0.45593999997E+02  0.45594000000E+02  0.51100000000E-03 0.  1.
    9900012    2    1    2    0    0 -0.16723443200E+02  0.19891895357E+02  0.34760061252E+02  0.47787275218E+02  0.20000019030E+02 0.  0.
        -12    1    1    2    0    0  0.16723443200E+02 -0.19891895357E+02 -0.34760061252E+02  0.43400724782E+02  0.00000000000E+00 0.  1.
         11    1    3    3    0    0 -0.45274329395E+01  0.64549694489E+01  0.19552715006E+02  0.21082526982E+02  0.51100000000E-03 0. -1.
        -11    1    3    3    0    0  0.25608870224E+01  0.21445472635E+01  0.28312203488E+01  0.43787023456E+01  0.51100000000E-03 0.  1.
         12    1    3    3    0    0 -0.14756897283E+02  0.11292378644E+02  0.12376125897E+02  0.22326045890E+02  0.00000000000E+00 0. -1.
</event>
<event>
 7    1  0.4011333E-009  0.4778727E+02  0.7816164E-02  0.1312668E+00
        -11   -1    0    0    0    0  0.00000000000E+00  0.00000000000E+00  0.45593999997E+02  0.45594000000E+02  0.51100000000E-03 0.  1.
         11   -1    0    0    0    0 -0.00000000000E+00 -0.00000000000E+00 -0.45593999997E+02  0.45594000000E+02  0.51100000000E-03 0. -1.
    9900012    2    1    2    0    0 -0.14051944840E+02 -0.15367504288E+02 -0.38078939781E+02  0.47787274238E+02  0.20000014559E+02 0.  0.
        -12    1    1    2    0    0  0.14051944840E+02  0.15367504288E+02  0.38078939781E+02  0.43400725762E+02  0.00000000000E+00 0.  1.
         11    1    3    3    0    0 -0.54135366775E+01  0.93951699408E+00 -0.48084541921E+01  0.73013905196E+01  0.51100000000E-03 0. -1.
        -11    1    3    3    0    0  0.31809683056E+01 -0.72588002674E+01 -0.14554902885E+02  0.16572686533E+02  0.51100000000E-03 0.  1.
        -12    1    3    3    0    0 -0.11819376468E+02 -0.90482210151E+01 -0.18715582705E+02  0.23913197185E+02  0.00000000000E+00 0.  1.
</event>
<event>
 7    1  0.5125304E-009  0.4778727E+02  0.7816164E-02  0.1312668E+00
        -11   -1    0    0    0    0  0.00000000000E+00  0.00000000000E+00  0.45593999997E+02  0.45594000000E+02  0.51100000000E-03 0. -1.
         11   -1    0    0    0    0 -0.00000000000E+00 -0.00000000000E+00 -0.45593999997E+02  0.45594000000E+02  0.51100000000E-03 0.  1.
    9900012    2    1    2    0    0  0.22109077635E+01  0.18136477184E+02  0.39367543428E+02  0.47787269668E+02  0.19999993723E+02 0.  0.
        -12    1    1    2    0    0 -0.22109077635E+01 -0.18136477184E+02 -0.39367543428E+02  0.43400730332E+02  0.00000000000E+00 0.  1.
         11    1    3    3    0    0  0.16316629449E+01  0.53573614469E+01  0.26126374572E+02  0.26719863289E+02  0.51100000000E-03 0. -1.
        -11    1    3    3    0    0 -0.17069364142E+01 -0.12586535634E+01  0.12316026130E+01  0.24524856722E+01  0.51100000000E-03 0.  1.
        -12    1    3    3    0    0  0.22861812327E+01  0.14037769301E+02  0.12009566244E+02  0.18614920707E+02  0.00000000000E+00 0.  1.
</event>
<event>
 7    1  0.4011333E-009  0.4778727E+02  0.7816164E-02  0.1312668E+00
        -11   -1    0    0    0    0  0.00000000000E+00  0.00000000000E+00  0.45593999997E+02  0.45594000000E+02  0.51100000000E-03 0.  1.
         11   -1    0    0    0    0 -0.00000000000E+00 -0.00000000000E+00 -0.45593999997E+02  0.45594000000E+02  0.51100000000E-03 0. -1.
    9900012    2    1    2    0    0 -0.13557102659E+02  0.20243269005E+02 -0.35917103567E+02  0.47787270730E+02  0.19999998567E+02 0.  0.
        -12    1    1    2    0    0  0.13557102659E+02 -0.20243269005E+02  0.35917103567E+02  0.43400729270E+02  0.00000000000E+00 0.  1.
         11    1    3    3    0    0 -0.61010835318E+01  0.14842690905E+02 -0.25249761239E+02  0.29917873194E+02  0.51100000000E-03 0. -1.
        -11    1    3    3    0    0 -0.37025255987E+01  0.24303507940E+01 -0.12090179416E+02  0.12875858781E+02  0.51100000000E-03 0.  1.
         12    1    3    3    0    0 -0.37534935286E+01  0.29702273061E+01  0.14228370879E+01  0.49935387550E+01  0.00000000000E+00 0. -1.
</event>
<event>
 7    1  0.4011333E-009  0.4778727E+02  0.7816164E-02  0.1312668E+00
        -11   -1    0    0    0    0  0.00000000000E+00  0.00000000000E+00  0.45593999997E+02  0.45594000000E+02  0.51100000000E-03 0. -1.
         11   -1    0    0    0    0 -0.00000000000E+00 -0.00000000000E+00 -0.45593999997E+02  0.45594000000E+02  0.51100000000E-03 0.  1.
    9900012    2    1    2    0    0  0.41218103586E+02  0.12916464171E+02  0.42257093310E+01  0.47787265798E+02  0.19999976079E+02 0.  0.
        -12    1    1    2    0    0 -0.41218103586E+02 -0.12916464171E+02 -0.42257093310E+01  0.43400734202E+02  0.00000000000E+00 0.  1.
         11    1    3    3    0    0  0.15767757909E+02  0.51298584293E+01  0.95948638863E+01  0.19157219272E+02  0.51100000000E-03 0. -1.
        -11    1    3    3    0    0  0.13371074273E+02  0.48821083127E+01  0.17006944756E+01  0.14335723587E+02  0.51100000000E-03 0.  1.
        -12    1    3    3    0    0  0.12079271404E+02  0.29044974288E+01 -0.70698490309E+01  0.14294322939E+02  0.00000000000E+00 0.  1.
</event>
<event>
 7    1  0.4011333E-009  0.4778727E+02  0.7816164E-02  0.1312668E+00
        -11   -1    0    0    0    0  0.00000000000E+00  0.00000000000E+00  0.45593999997E+02  0.45594000000E+02  0.51100000000E-03 0.  1.
         11   -1    0    0    0    0 -0.00000000000E+00 -0.00000000000E+00 -0.45593999997E+02  0.45594000000E+02  0.51100000000E-03 0. -1.
    9900012    2    1    2    0    0 -0.24905828408E+02  0.35483160078E+02 -0.20660394730E+01  0.47787268936E+02  0.19999990387E+02 0.  0.
        -12    1    1    2    0    0  0.24905828408E+02 -0.35483160078E+02  0.20660394730E+01  0.43400731064E+02  0.00000000000E+00 0.  1.
         11    1    3    3    0    0 -0.87969632657E+01  0.64181551939E+01 -0.40164595644E+01  0.11606516553E+02  0.51100000000E-03 0. -1.
        -11    1    3    3    0    0 -0.16508682041E+02  0.28760814207E+02 -0.10105799332E+01  0.33177436438E+02  0.51100000000E-03 0.  1.
        -12    1    3    3    0    0  0.39981689894E+00  0.30419067736E+00  0.29610000246E+01  0.30033159451E+01  0.00000000000E+00 0.  1.
</event>
<event>
 7    1  0.4011333E-009  0.4778728E+02  0.7816164E-02  0.1312668E+00
        -11   -1    0    0    0    0  0.00000000000E+00  0.00000000000E+00  0.45593999997E+02  0.45594000000E+02  0.51100000000E-03 0.  1.
         11   -1    0    0    0    0 -0.00000000000E+00 -0.00000000000E+00 -0.45593999997E+02  0.45594000000E+02  0.51100000000E-03 0. -1.
    9900012    2    1    2    0    0 -0.14919898022E+02 -0.32568251961E+02 -0.24501591384E+02  0.47787281422E+02  0.20000047314E+02 0.  0.
        -12    1    1    2    0    0  0.14919898022E+02  0.32568251961E+02  0.24501591384E+02  0.43400718578E+02  0.00000000000E+00 0.  1.
         11    1    3    3    0    0 -0.14016121121E+02 -0.19401362914E+02 -0.11599247704E+02  0.26597125441E+02  0.51100000000E-03 0. -1.
        -11    1    3    3    0    0 -0.43379618866E+01 -0.47181683948E+01 -0.94922419994E+01  0.11453457328E+02  0.51100000000E-03 0.  1.
         12    1    3    3    0    0  0.34341849858E+01 -0.84487206518E+01 -0.34101016810E+01  0.97366986521E+01  0.00000000000E+00 0. -1.
</event>
<event>
 7    1  0.4011333E-009  0.4778727E+02  0.7816164E-02  0.1312668E+00
        -11   -1    0    0    0    0  0.00000000000E+00  0.00000000000E+00  0.45593999997E+02  0.45594000000E+02  0.51100000000E-03 0. -1.
         11   -1    0    0    0    0 -0.00000000000E+00 -0.00000000000E+00 -0.45593999997E+02  0.45594000000E+02  0.51100000000E-03 0.  1.
    9900012    2    1    2    0    0 -0.38127857694E+02  0.59345839645E+01  0.19866319193E+02  0.47787268929E+02  0.19999990357E+02 0.  0.
        -12    1    1    2    0    0  0.38127857694E+02 -0.59345839645E+01 -0.19866319193E+02  0.43400731071E+02  0.00000000000E+00 0.  1.
         11    1    3    3    0    0 -0.13423659551E+02 -0.31264608577E+01  0.57436721396E+01  0.14931817141E+02  0.51100000000E-03 0. -1.
        -11    1    3    3    0    0 -0.26564121887E+01 -0.30799264883E+01  0.15547718061E+00  0.40702145280E+01  0.51100000000E-03 0.  1.
         12    1    3    3    0    0 -0.22047785954E+02  0.12140971310E+02  0.13967169873E+02  0.28785237260E+02  0.00000000000E+00 0. -1.
</event>
<event>
 7    1  0.4011333E-009  0.4778727E+02  0.7816164E-02  0.1312668E+00
        -11   -1    0    0    0    0  0.00000000000E+00  0.00000000000E+00  0.45593999997E+02  0.45594000000E+02  0.51100000000E-03 0.  1.
         11   -1    0    0    0    0 -0.00000000000E+00 -0.00000000000E+00 -0.45593999997E+02  0.45594000000E+02  0.51100000000E-03 0. -1.
    9900012    2    1    2    0    0 -0.12458934480E+02  0.40536036244E+02  0.92318990844E+01  0.47787271395E+02  0.20000001597E+02 0.  0.
        -12    1    1    2    0    0  0.12458934480E+02 -0.40536036244E+02 -0.92318990844E+01  0.43400728605E+02  0.00000000000E+00 0.  1.
         11    1    3    3    0    0 -0.32387567440E+00  0.12424487086E+02 -0.12324965902E+01  0.12489668647E+02  0.51100000000E-03 0. -1.
        -11    1    3    3    0    0 -0.12219830509E+02  0.26854534560E+02  0.52931752654E+01  0.29975122832E+02  0.51100000000E-03 0.  1.
        -12    1    3    3    0    0  0.84771703477E-01  0.12570145979E+01  0.51712204092E+01  0.53224799165E+01  0.00000000000E+00 0.  1.
</event>
<event>
 7    1  0.4011333E-009  0.4778729E+02  0.7816164E-02  0.1312668E+00
        -11   -1    0    0    0    0  0.00000000000E+00  0.00000000000E+00  0.45593999997E+02  0.45594000000E+02  0.51100000000E-03 0.  1.
         11   -1    0    0    0    0 -0.00000000000E+00 -0.00000000000E+00 -0.45593999997E+02  0.45594000000E+02  0.51100000000E-03 0. -1.
    9900012    2    1    2    0    0  0.36725206147E+02 -0.21821679793E+02 -0.76613024425E+01  0.47787285367E+02  0.20000065302E+02 0.  0.
        -12    1    1    2    0    0 -0.36725206147E+02  0.21821679793E+02  0.76613024425E+01  0.43400714633E+02  0.00000000000E+00 0.  1.
         11    1    3    3    0    0  0.60352458207E+01 -0.10277089875E+02 -0.29579406257E+01  0.12279746798E+02  0.51100000000E-03 0. -1.
        -11    1    3    3    0    0  0.24626795249E+01 -0.20539561336E+01  0.33706256230E+01  0.46523804222E+01  0.51100000000E-03 0.  1.
        -12    1    3    3    0    0  0.28227280802E+02 -0.94906337838E+01 -0.80739874398E+01  0.30855158147E+02  0.00000000000E+00 0.  1.
</event>
<event>
 7    1  0.4011333E-009  0.4778727E+02  0.7816164E-02  0.1312668E+00
        -11   -1    0    0    0    0  0.00000000000E+00  0.00000000000E+00  0.45593999997E+02  0.45594000000E+02  0.51100000000E-03 0.  1.
         11   -1    0    0    0    0 -0.00000000000E+00 -0.00000000000E+00 -0.45593999997E+02  0.45594000000E+02  0.51100000000E-03 0. -1.
    9900012    2    1    2    0    0  0.10053233143E+02 -0.16463585276E+02 -0.38878094169E+02  0.47787270248E+02  0.19999996370E+02 0.  0.
        -12    1    1    2    0    0 -0.10053233143E+02  0.16463585276E+02  0.38878094169E+02  0.43400729752E+02  0.00000000000E+00 0.  1.
         11    1    3    3    0    0 -0.14338694813E+01 -0.78047336539E+01 -0.16620380568E+02  0.18417570404E+02  0.51100000000E-03 0. -1.
        -11    1    3    3    0    0  0.39423491934E+01 -0.95877149084E+01 -0.17682779315E+02  0.20497489576E+02  0.51100000000E-03 0.  1.
        -12    1    3    3    0    0  0.75447534309E+01  0.92886328601E+00 -0.45749342860E+01  0.88722102691E+01  0.00000000000E+00 0.  1.
</event>
<event>
 7    1  0.4011333E-009  0.4778727E+02  0.7816164E-02  0.1312668E+00
        -11   -1    0    0    0    0  0.00000000000E+00  0.00000000000E+00  0.45593999997E+02  0.45594000000E+02  0.51100000000E-03 0.  1.
         11   -1    0    0    0    0 -0.00000000000E+00 -0.00000000000E+00 -0.45593999997E+02  0.45594000000E+02  0.51100000000E-03 0. -1.
    9900012    2    1    2    0    0 -0.37446879632E+01 -0.43142187536E+02 -0.28899987984E+01  0.47787272744E+02  0.20000007748E+02 0.  0.
        -12    1    1    2    0    0  0.37446879632E+01  0.43142187536E+02  0.28899987984E+01  0.43400727256E+02  0.00000000000E+00 0.  1.
         11    1    3    3    0    0 -0.42637683278E+01 -0.27564335477E+02 -0.63493029624E+01  0.28605698016E+02  0.51100000000E-03 0. -1.
        -11    1    3    3    0    0 -0.21038433705E+01 -0.93285985605E+01 -0.27912263975E+01  0.99619201509E+01  0.51100000000E-03 0.  1.
        -12    1    3    3    0    0  0.26229237351E+01 -0.62492534985E+01  0.62505305615E+01  0.92196545764E+01  0.00000000000E+00 0.  1.
</event>
<event>
 7    1  0.4011333E-009  0.4778727E+02  0.7816164E-02  0.1312668E+00
        -11   -1    0    0    0    0  0.00000000000E+00  0.00000000000E+00  0.45593999997E+02  0.45594000000E+02  0.51100000000E-03 0. -1.
         11   -1    0    0    0    0 -0.00000000000E+00 -0.00000000000E+00 -0.45593999997E+02  0.45594000000E+02  0.51100000000E-03 0.  1.
    9900012    2    1    2    0    0 -0.38096461498E+00 -0.43150699876E+02 -0.46362893941E+01  0.47787271744E+02  0.20000003189E+02 0.  0.
        -12    1    1    2    0    0  0.38096461498E+00  0.43150699876E+02  0.46362893941E+01  0.43400728256E+02  0.00000000000E+00 0.  1.
         11    1    3    3    0    0 -0.77748183635E+01 -0.10187821341E+02 -0.41546323821E+01  0.13472211205E+02  0.51100000000E-03 0. -1.
        -11    1    3    3    0    0 -0.67163160609E+00 -0.12723151066E+01  0.68495050253E+00  0.15934340893E+01  0.51100000000E-03 0.  1.
        -12    1    3    3    0    0  0.80654853546E+01 -0.31690563428E+02 -0.11666075146E+01  0.32721626449E+02  0.00000000000E+00 0.  1.
</event>
<event>
 7    1  0.4011333E-009  0.4778727E+02  0.7816164E-02  0.1312668E+00
        -11   -1    0    0    0    0  0.00000000000E+00  0.00000000000E+00  0.45593999997E+02  0.45594000000E+02  0.51100000000E-03 0.  1.
         11   -1    0    0    0    0 -0.00000000000E+00 -0.00000000000E+00 -0.45593999997E+02  0.45594000000E+02  0.51100000000E-03 0. -1.
    9900012    2    1    2    0    0 -0.26020432627E+02 -0.20945729556E+02 -0.27709867924E+02  0.47787270961E+02  0.19999999618E+02 0.  0.
        -12    1    1    2    0    0  0.26020432627E+02  0.20945729556E+02  0.27709867924E+02  0.43400729039E+02  0.00000000000E+00 0.  1.
         11    1    3    3    0    0 -0.82301196790E+01 -0.10061062159E+02 -0.14719213418E+02  0.19637084448E+02  0.51100000000E-03 0. -1.
        -11    1    3    3    0    0 -0.58003118764E+01 -0.11052997876E+02 -0.38191635908E+01  0.13053673456E+02  0.51100000000E-03 0.  1.
         12    1    3    3    0    0 -0.11990001072E+02  0.16833047883E+00 -0.91714909148E+01  0.15096513056E+02  0.00000000000E+00 0. -1.
</event>
<event>
 7    1  0.4011333E-009  0.4778727E+02  0.7816164E-02  0.1312668E+00
        -11   -1    0    0    0    0  0.00000000000E+00  0.00000000000E+00  0.45593999997E+02  0.45594000000E+02  0.51100000000E-03 0.  1.
         11   -1    0    0    0    0 -0.00000000000E+00 -0.00000000000E+00 -0.45593999997E+02  0.45594000000E+02  0.51100000000E-03 0. -1.
    9900012    2    1    2    0    0  0.11059809497E+02 -0.37530537687E+02 -0.18781978440E+02  0.47787270061E+02  0.19999995514E+02 0.  0.
        -12    1    1    2    0    0 -0.11059809497E+02  0.37530537687E+02  0.18781978440E+02  0.43400729939E+02  0.00000000000E+00 0.  1.
         11    1    3    3    0    0  0.40958968391E+01 -0.20667540196E+01 -0.41178789088E+01  0.61648008940E+01  0.51100000000E-03 0. -1.
        -11    1    3    3    0    0  0.79519577317E+01 -0.74316345945E+01 -0.35023277437E+01  0.11433683763E+02  0.51100000000E-03 0.  1.
         12    1    3    3    0    0 -0.98804507366E+00 -0.28032149073E+02 -0.11161771787E+02  0.30188785403E+02  0.00000000000E+00 0. -1.
</event>
<event>
 7    1  0.4011333E-009  0.4778726E+02  0.7816164E-02  0.1312668E+00
        -11   -1    0    0    0    0  0.00000000000E+00  0.00000000000E+00  0.45593999997E+02  0.45594000000E+02  0.51100000000E-03 0.  1.
         11   -1    0    0    0    0 -0.00000000000E+00 -0.00000000000E+00 -0.45593999997E+02  0.45594000000E+02  0.51100000000E-03 0. -1.
    9900012    2    1    2    0    0  0.12921553248E+02 -0.17738546963E+02 -0.37443306779E+02  0.47787264876E+02  0.19999971876E+02 0.  0.
        -12    1    1    2    0    0 -0.12921553248E+02  0.17738546963E+02  0.37443306779E+02  0.43400735124E+02  0.00000000000E+00 0.  1.
         11    1    3    3    0    0 -0.73652190099E+00 -0.92139979374E+01 -0.16446130259E+02  0.18865720852E+02  0.51100000000E-03 0. -1.
        -11    1    3    3    0    0  0.27516503550E+01 -0.37869013510E+01 -0.14779498505E+02  0.15503089300E+02  0.51100000000E-03 0.  1.
        -12    1    3    3    0    0  0.10906424794E+02 -0.47376476751E+01 -0.62176780148E+01  0.13418454724E+02  0.00000000000E+00 0.  1.
</event>
<event>
 7    1  0.4011333E-009  0.4778727E+02  0.7816164E-02  0.1312668E+00
        -11   -1    0    0    0    0  0.00000000000E+00  0.00000000000E+00  0.45593999997E+02  0.45594000000E+02  0.51100000000E-03 0.  1.
         11   -1    0    0    0    0 -0.00000000000E+00 -0.00000000000E+00 -0.45593999997E+02  0.45594000000E+02  0.51100000000E-03 0. -1.
    9900012    2    1    2    0    0 -0.39637278321E+02  0.98107444608E+01 -0.14705736768E+02  0.47787271510E+02  0.20000002123E+02 0.  0.
        -12    1    1    2    0    0  0.39637278321E+02 -0.98107444608E+01  0.14705736768E+02  0.43400728490E+02  0.00000000000E+00 0.  1.
         11    1    3    3    0    0 -0.14205245603E+02  0.36828231493E+01 -0.66036180899E+01  0.16092232944E+02  0.51100000000E-03 0. -1.
        -11    1    3    3    0    0 -0.16527456790E+02  0.78006861491E+01 -0.11966495577E+02  0.21845011994E+02  0.51100000000E-03 0.  1.
        -12    1    3    3    0    0 -0.89045759277E+01 -0.16727648375E+01  0.38643768990E+01  0.98500265721E+01  0.00000000000E+00 0.  1.
</event>
<event>
 7    1  0.4011333E-009  0.4778727E+02  0.7816164E-02  0.1312668E+00
        -11   -1    0    0    0    0  0.00000000000E+00  0.00000000000E+00  0.45593999997E+02  0.45594000000E+02  0.51100000000E-03 0. -1.
         11   -1    0    0    0    0 -0.00000000000E+00 -0.00000000000E+00 -0.45593999997E+02  0.45594000000E+02  0.51100000000E-03 0.  1.
    9900012    2    1    2    0    0 -0.14260907511E+02 -0.53658308513E+01  0.40638132747E+02  0.47787268935E+02  0.19999990384E+02 0.  0.
        -12    1    1    2    0    0  0.14260907511E+02  0.53658308513E+01 -0.40638132747E+02  0.43400731065E+02  0.00000000000E+00 0.  1.
         11    1    3    3    0    0  0.65053313936E+00 -0.30795754260E+01  0.17568283874E+02  0.17848013243E+02  0.51100000000E-03 0. -1.
        -11    1    3    3    0    0 -0.85895605363E+01 -0.65996615411E+01  0.17059888210E+02  0.20208311871E+02  0.51100000000E-03 0.  1.
         12    1    3    3    0    0 -0.63218801137E+01  0.43134061158E+01  0.60099606628E+01  0.97309438217E+01  0.00000000000E+00 0. -1.
</event>
<event>
 7    1  0.4011333E-009  0.4778727E+02  0.7816164E-02  0.1312668E+00
        -11   -1    0    0    0    0  0.00000000000E+00  0.00000000000E+00  0.45593999997E+02  0.45594000000E+02  0.51100000000E-03 0.  1.
         11   -1    0    0    0    0 -0.00000000000E+00 -0.00000000000E+00 -0.45593999997E+02  0.45594000000E+02  0.51100000000E-03 0. -1.
    9900012    2    1    2    0    0 -0.17159159247E+02  0.10459692590E+02 -0.38467925056E+02  0.47787272203E+02  0.20000005284E+02 0.  0.
        -12    1    1    2    0    0  0.17159159247E+02 -0.10459692590E+02  0.38467925056E+02  0.43400727797E+02  0.00000000000E+00 0.  1.
         11    1    3    3    0    0 -0.10851715037E+02  0.24738927521E+01 -0.14637721323E+02  0.18388658199E+02  0.51100000000E-03 0. -1.
        -11    1    3    3    0    0 -0.27202771232E+01 -0.19024096436E+01  0.33305981670E-01  0.33196655899E+01  0.51100000000E-03 0.  1.
         12    1    3    3    0    0 -0.35871670873E+01  0.98882094817E+01 -0.23863509715E+02  0.26078948414E+02  0.00000000000E+00 0. -1.
</event>
<event>
 7    1  0.4011333E-009  0.4778727E+02  0.7816164E-02  0.1312668E+00
        -11   -1    0    0    0    0  0.00000000000E+00  0.00000000000E+00  0.45593999997E+02  0.45594000000E+02  0.51100000000E-03 0. -1.
         11   -1    0    0    0    0 -0.00000000000E+00 -0.00000000000E+00 -0.45593999997E+02  0.45594000000E+02  0.51100000000E-03 0.  1.
    9900012    2    1    2    0    0 -0.36219067030E+02  0.23658633346E+02 -0.34744167611E+01  0.47787270512E+02  0.19999997570E+02 0.  0.
        -12    1    1    2    0    0  0.36219067030E+02 -0.23658633346E+02  0.34744167611E+01  0.43400729488E+02  0.00000000000E+00 0.  1.
         11    1    3    3    0    0 -0.14389755240E+02  0.98212572070E+01  0.54455546627E+00  0.17430395575E+02  0.51100000000E-03 0. -1.
        -11    1    3    3    0    0 -0.51971034879E+01  0.91509962119E+01  0.40624059734E+01  0.11280680781E+02  0.51100000000E-03 0.  1.
         12    1    3    3    0    0 -0.16632208302E+02  0.46863799270E+01 -0.80813782009E+01  0.19076194155E+02  0.00000000000E+00 0. -1.
</event>
<event>
 7    1  0.4011333E-009  0.4778727E+02  0.7816164E-02  0.1312668E+00
        -11   -1    0    0    0    0  0.00000000000E+00  0.00000000000E+00  0.45593999997E+02  0.45594000000E+02  0.51100000000E-03 0.  1.
         11   -1    0    0    0    0 -0.00000000000E+00 -0.00000000000E+00 -0.45593999997E+02  0.45594000000E+02  0.51100000000E-03 0. -1.
    9900012    2    1    2    0    0  0.24784706863E+02 -0.23623139907E+02 -0.26669994200E+02  0.47787273923E+02  0.20000013126E+02 0.  0.
        -12    1    1    2    0    0 -0.24784706863E+02  0.23623139907E+02  0.26669994200E+02  0.43400726077E+02  0.00000000000E+00 0.  1.
         11    1    3    3    0    0  0.17453686799E+01 -0.77417668788E+01 -0.49391965143E+01  0.93475627146E+01  0.51100000000E-03 0. -1.
        -11    1    3    3    0    0  0.14290747803E+00 -0.67605064628E+01 -0.69712200634E+01  0.97119915370E+01  0.51100000000E-03 0.  1.
         12    1    3    3    0    0  0.22896430705E+02 -0.91208665651E+01 -0.14759577622E+02  0.28727719672E+02  0.00000000000E+00 0. -1.
</event>
<event>
 7    1  0.4011333E-009  0.4778727E+02  0.7816164E-02  0.1312668E+00
        -11   -1    0    0    0    0  0.00000000000E+00  0.00000000000E+00  0.45593999997E+02  0.45594000000E+02  0.51100000000E-03 0.  1.
         11   -1    0    0    0    0 -0.00000000000E+00 -0.00000000000E+00 -0.45593999997E+02  0.45594000000E+02  0.51100000000E-03 0. -1.
    9900012    2    1    2    0    0 -0.43547769133E+01  0.50682108524E+01 -0.42883245092E+02  0.47787267831E+02  0.19999985348E+02 0.  0.
        -12    1    1    2    0    0  0.43547769133E+01 -0.50682108524E+01  0.42883245092E+02  0.43400732169E+02  0.00000000000E+00 0.  1.
         11    1    3    3    0    0 -0.50821999368E+01  0.17748535231E+01 -0.20106763105E+02  0.20814917345E+02  0.51100000000E-03 0. -1.
        -11    1    3    3    0    0 -0.34239002531E+01 -0.41442093731E+01 -0.12618437092E+02  0.13715776288E+02  0.51100000000E-03 0.  1.
        -12    1    3    3    0    0  0.41513232767E+01  0.74375667024E+01 -0.10158044894E+02  0.13256574198E+02  0.00000000000E+00 0.  1.
</event>
<event>
 7    1  0.4011333E-009  0.4778727E+02  0.7816164E-02  0.1312668E+00
        -11   -1    0    0    0    0  0.00000000000E+00  0.00000000000E+00  0.45593999997E+02  0.45594000000E+02  0.51100000000E-03 0.  1.
         11   -1    0    0    0    0 -0.00000000000E+00 -0.00000000000E+00 -0.45593999997E+02  0.45594000000E+02  0.51100000000E-03 0. -1.
    9900012    2    1    2    0    0 -0.35488378763E+02 -0.22893974739E+02 -0.10003217774E+02  0.47787268757E+02  0.19999989573E+02 0.  0.
        -12    1    1    2    0    0  0.35488378763E+02  0.22893974739E+02  0.10003217774E+02  0.43400731243E+02  0.00000000000E+00 0.  1.
         11    1    3    3    0    0 -0.12387124535E+02 -0.43585265627E+01  0.15911869450E-01  0.13131559751E+02  0.51100000000E-03 0. -1.
        -11    1    3    3    0    0 -0.75723317136E+00  0.12045111151E+01  0.20461515952E+01  0.24921849277E+01  0.51100000000E-03 0.  1.
         12    1    3    3    0    0 -0.22344021056E+02 -0.19739959291E+02 -0.12065281239E+02  0.32163524079E+02  0.00000000000E+00 0. -1.
</event>
<event>
 7    1  0.4011333E-009  0.4778727E+02  0.7816164E-02  0.1312668E+00
        -11   -1    0    0    0    0  0.00000000000E+00  0.00000000000E+00  0.45593999997E+02  0.45594000000E+02  0.51100000000E-03 0.  1.
         11   -1    0    0    0    0 -0.00000000000E+00 -0.00000000000E+00 -0.45593999997E+02  0.45594000000E+02  0.51100000000E-03 0. -1.
    9900012    2    1    2    0    0 -0.39499852933E+02  0.17521876427E+02  0.40458186980E+01  0.47787272077E+02  0.20000004710E+02 0.  0.
        -12    1    1    2    0    0  0.39499852933E+02 -0.17521876427E+02 -0.40458186980E+01  0.43400727923E+02  0.00000000000E+00 0.  1.
         11    1    3    3    0    0 -0.17310223464E+01  0.31486313727E+01  0.26065338302E+01  0.44389567191E+01  0.51100000000E-03 0. -1.
        -11    1    3    3    0    0 -0.14067569684E+02  0.75301922662E+01  0.79603262287E+01  0.17831632183E+02  0.51100000000E-03 0.  1.
         12    1    3    3    0    0 -0.23701260903E+02  0.68430527879E+01 -0.65210413609E+01  0.25516683176E+02  0.00000000000E+00 0. -1.
</event>
<event>
 7    1  0.4011333E-009  0.4778727E+02  0.7816164E-02  0.1312668E+00
        -11   -1    0    0    0    0  0.00000000000E+00  0.00000000000E+00  0.45593999997E+02  0.45594000000E+02  0.51100000000E-03 0.  1.
         11   -1    0    0    0    0 -0.00000000000E+00 -0.00000000000E+00 -0.45593999997E+02  0.45594000000E+02  0.51100000000E-03 0. -1.
    9900012    2    1    2    0    0  0.35213148278E+02  0.15229448105E+02 -0.20290919739E+02  0.47787270455E+02  0.19999997311E+02 0.  0.
        -12    1    1    2    0    0 -0.35213148278E+02 -0.15229448105E+02  0.20290919739E+02  0.43400729545E+02  0.00000000000E+00 0.  1.
         11    1    3    3    0    0  0.19854679230E+02  0.94446503539E+00 -0.86684603532E+01  0.21685075667E+02  0.51100000000E-03 0. -1.
        -11    1    3    3    0    0  0.28531498009E+01 -0.68316916184E+00  0.71952934028E+00  0.30207460374E+01  0.51100000000E-03 0.  1.
        -12    1    3    3    0    0  0.12505319247E+02  0.14968152231E+02 -0.12341988726E+02  0.23081448750E+02  0.00000000000E+00 0.  1.
</event>
<event>
 7    1  0.4011333E-009  0.4778727E+02  0.7816164E-02  0.1312668E+00
        -11   -1    0    0    0    0  0.00000000000E+00  0.00000000000E+00  0.45593999997E+02  0.45594000000E+02  0.51100000000E-03 0. -1.
         11   -1    0    0    0    0 -0.00000000000E+00 -0.00000000000E+00 -0.45593999997E+02  0.45594000000E+02  0.51100000000E-03 0.  1.
    9900012    2    1    2    0    0  0.32128479248E+02 -0.29140575691E+02 -0.14868445891E+01  0.47787273771E+02  0.20000012431E+02 0.  0.
        -12    1    1    2    0    0 -0.32128479248E+02  0.29140575691E+02  0.14868445891E+01  0.43400726229E+02  0.00000000000E+00 0.  1.
         11    1    3    3    0    0  0.50857431712E+01 -0.12124248269E+01 -0.12541132713E+01  0.53765749249E+01  0.51100000000E-03 0.  1.
        -11    1    3    3    0    0  0.33829002194E+01 -0.15004576640E+02 -0.12521259516E+01  0.15432081963E+02  0.51100000000E-03 0. -1.
        -12    1    3    3    0    0  0.23659835858E+02 -0.12923574223E+02  0.10193946339E+01  0.26978616883E+02  0.00000000000E+00 0.  1.
</event>
<event>
 7    1  0.4011333E-009  0.4778727E+02  0.7816164E-02  0.1312668E+00
        -11   -1    0    0    0    0  0.00000000000E+00  0.00000000000E+00  0.45593999997E+02  0.45594000000E+02  0.51100000000E-03 0. -1.
         11   -1    0    0    0    0 -0.00000000000E+00 -0.00000000000E+00 -0.45593999997E+02  0.45594000000E+02  0.51100000000E-03 0.  1.
    9900012    2    1    2    0    0 -0.16670920485E+02 -0.10972342338E+02  0.38539740198E+02  0.47787268892E+02  0.19999990187E+02 0.  0.
        -12    1    1    2    0    0  0.16670920485E+02  0.10972342338E+02 -0.38539740198E+02  0.43400731108E+02  0.00000000000E+00 0.  1.
         11    1    3    3    0    0 -0.96296363318E+01 -0.83740102913E+01  0.76992588787E+01  0.14904111238E+02  0.51100000000E-03 0. -1.
        -11    1    3    3    0    0 -0.22024904714E+01  0.86499336543E+00  0.12035426267E+01  0.26547491246E+01  0.51100000000E-03 0.  1.
        -12    1    3    3    0    0 -0.48387936816E+01 -0.34633254121E+01  0.29636938692E+02  0.30228408530E+02  0.00000000000E+00 0.  1.
</event>
<event>
 7    1  0.4011333E-009  0.4778727E+02  0.7816164E-02  0.1312668E+00
        -11   -1    0    0    0    0  0.00000000000E+00  0.00000000000E+00  0.45593999997E+02  0.45594000000E+02  0.51100000000E-03 0.  1.
         11   -1    0    0    0    0 -0.00000000000E+00 -0.00000000000E+00 -0.45593999997E+02  0.45594000000E+02  0.51100000000E-03 0. -1.
    9900012    2    1    2    0    0  0.40399050546E+02 -0.76647492162E+01 -0.13884931787E+02  0.47787274243E+02  0.20000014582E+02 0.  0.
        -12    1    1    2    0    0 -0.40399050546E+02  0.76647492162E+01  0.13884931787E+02  0.43400725757E+02  0.00000000000E+00 0.  1.
         11    1    3    3    0    0  0.27481900180E+01 -0.31597628411E+01 -0.11310949507E+00  0.41892056056E+01  0.51100000000E-03 0. -1.
        -11    1    3    3    0    0  0.21289345342E+01 -0.34392722981E+01 -0.59742669896E+01  0.72147642037E+01  0.51100000000E-03 0.  1.
         12    1    3    3    0    0  0.35521925994E+02 -0.10657140770E+01 -0.77975553020E+01  0.36383304433E+02  0.00000000000E+00 0. -1.
</event>
<event>
 7    1  0.4011333E-009  0.4778728E+02  0.7816164E-02  0.1312668E+00
        -11   -1    0    0    0    0  0.00000000000E+00  0.00000000000E+00  0.45593999997E+02  0.45594000000E+02  0.51100000000E-03 0. -1.
         11   -1    0    0    0    0 -0.00000000000E+00 -0.00000000000E+00 -0.45593999997E+02  0.45594000000E+02  0.51100000000E-03 0.  1.
    9900012    2    1    2    0    0  0.40198902962E+02 -0.84648081578E+01  0.14000647890E+02  0.47787275147E+02  0.20000018703E+02 0.  0.
        -12    1    1    2    0    0 -0.40198902962E+02  0.84648081578E+01 -0.14000647890E+02  0.43400724853E+02  0.00000000000E+00 0.  1.
         11    1    3    3    0    0  0.22686988912E+01 -0.20319154178E+01 -0.20347215453E+01  0.36627540119E+01  0.51100000000E-03 0. -1.
        -11    1    3    3    0    0  0.15620194758E+02 -0.99450320988E+01  0.68653647269E+01  0.19749110886E+02  0.51100000000E-03 0.  1.
         12    1    3    3    0    0  0.22310009313E+02  0.35121393587E+01  0.91700047083E+01  0.24375410248E+02  0.00000000000E+00 0. -1.
</event>
<event>
 7    1  0.4011333E-009  0.4778729E+02  0.7816164E-02  0.1312668E+00
        -11   -1    0    0    0    0  0.00000000000E+00  0.00000000000E+00  0.45593999997E+02  0.45594000000E+02  0.51100000000E-03 0. -1.
         11   -1    0    0    0    0 -0.00000000000E+00 -0.00000000000E+00 -0.45593999997E+02  0.45594000000E+02  0.51100000000E-03 0.  1.
    9900012    2    1    2    0    0 -0.86555685042E+01  0.31781335179E+02  0.28260386022E+02  0.47787290905E+02  0.20000090551E+02 0.  0.
        -12    1    1    2    0    0  0.86555685042E+01 -0.31781335179E+02 -0.28260386022E+02  0.43400709095E+02  0.00000000000E+00 0.  1.
         11    1    3    3    0    0 -0.75498115068E+01  0.15605030134E+02  0.18625470158E+02  0.25444542797E+02  0.51100000000E-03 0. -1.
        -11    1    3    3    0    0 -0.26954285042E+01  0.17707507380E+02  0.81226557351E+01  0.19667198297E+02  0.51100000000E-03 0.  1.
        -12    1    3    3    0    0  0.15896715068E+01 -0.15312023353E+01  0.15122601288E+01  0.26755498104E+01  0.00000000000E+00 0.  1.
</event>
<event>
 7    1  0.4011333E-009  0.4778727E+02  0.7816164E-02  0.1312668E+00
        -11   -1    0    0    0    0  0.00000000000E+00  0.00000000000E+00  0.45593999997E+02  0.45594000000E+02  0.51100000000E-03 0.  1.
         11   -1    0    0    0    0 -0.00000000000E+00 -0.00000000000E+00 -0.45593999997E+02  0.45594000000E+02  0.51100000000E-03 0. -1.
    9900012    2    1    2    0    0 -0.42463513398E+02  0.41637820267E+01 -0.79458267801E+01  0.47787271734E+02  0.20000003142E+02 0.  0.
        -12    1    1    2    0    0  0.42463513398E+02 -0.41637820267E+01  0.79458267801E+01  0.43400728266E+02  0.00000000000E+00 0.  1.
         11    1    3    3    0    0 -0.30783824297E+02  0.28355885014E+01 -0.79059609057E+01  0.31909067968E+02  0.51100000000E-03 0. -1.
        -11    1    3    3    0    0 -0.13493805717E+02  0.17616568729E+00  0.91643019557E+00  0.13526036805E+02  0.51100000000E-03 0.  1.
        -12    1    3    3    0    0  0.18141166164E+01  0.11520278380E+01 -0.95629606993E+00  0.23521669607E+01  0.00000000000E+00 0.  1.
</event>
<event>
 7    1  0.4011333E-009  0.4778725E+02  0.7816164E-02  0.1312668E+00
        -11   -1    0    0    0    0  0.00000000000E+00  0.00000000000E+00  0.45593999997E+02  0.45594000000E+02  0.51100000000E-03 0. -1.
         11   -1    0    0    0    0 -0.00000000000E+00 -0.00000000000E+00 -0.45593999997E+02  0.45594000000E+02  0.51100000000E-03 0.  1.
    9900012    2    1    2    0    0 -0.32403137844E+02  0.28732348336E+02  0.28484690347E+01  0.47787251632E+02  0.19999911492E+02 0.  0.
        -12    1    1    2    0    0  0.32403137844E+02 -0.28732348336E+02 -0.28484690347E+01  0.43400748368E+02  0.00000000000E+00 0.  1.
         11    1    3    3    0    0 -0.40842942910E+01 -0.11297945725E+01 -0.66225237095E+00  0.42891111078E+01  0.51100000000E-03 0.  1.
        -11    1    3    3    0    0 -0.13675903765E+02  0.10351768175E+02 -0.46571440021E+01  0.17772969326E+02  0.51100000000E-03 0. -1.
         12    1    3    3    0    0 -0.14642939788E+02  0.19510374734E+02  0.81678654077E+01  0.25725171198E+02  0.00000000000E+00 0. -1.
</event>
<event>
 7    1  0.4011333E-009  0.4778727E+02  0.7816164E-02  0.1312668E+00
        -11   -1    0    0    0    0  0.00000000000E+00  0.00000000000E+00  0.45593999997E+02  0.45594000000E+02  0.51100000000E-03 0.  1.
         11   -1    0    0    0    0 -0.00000000000E+00 -0.00000000000E+00 -0.45593999997E+02  0.45594000000E+02  0.51100000000E-03 0. -1.
    9900012    2    1    2    0    0 -0.29069925524E+02  0.14505032461E+01 -0.32194074406E+02  0.47787274700E+02  0.20000016669E+02 0.  0.
        -12    1    1    2    0    0  0.29069925524E+02 -0.14505032461E+01  0.32194074406E+02  0.43400725300E+02  0.00000000000E+00 0.  1.
         11    1    3    3    0    0 -0.77458273197E+01  0.63766313042E+00 -0.16402379202E+02  0.18150550925E+02  0.51100000000E-03 0. -1.
        -11    1    3    3    0    0 -0.69813759582E+01  0.18250969934E+01 -0.13175672927E+02  0.15022281672E+02  0.51100000000E-03 0.  1.
        -12    1    3    3    0    0 -0.14342722247E+02 -0.10122568777E+01 -0.26160222770E+01  0.14614442103E+02  0.00000000000E+00 0.  1.
</event>
<event>
 7    1  0.4011333E-009  0.4778727E+02  0.7816164E-02  0.1312668E+00
        -11   -1    0    0    0    0  0.00000000000E+00  0.00000000000E+00  0.45593999997E+02  0.45594000000E+02  0.51100000000E-03 0.  1.
         11   -1    0    0    0    0 -0.00000000000E+00 -0.00000000000E+00 -0.45593999997E+02  0.45594000000E+02  0.51100000000E-03 0. -1.
    9900012    2    1    2    0    0 -0.80152685917E-01  0.33510981267E+02 -0.27579536817E+02  0.47787272576E+02  0.20000006983E+02 0.  0.
        -12    1    1    2    0    0  0.80152685917E-01 -0.33510981267E+02  0.27579536817E+02  0.43400727424E+02  0.00000000000E+00 0.  1.
         11    1    3    3    0    0  0.40766414125E+00  0.93788010707E+01 -0.10228185342E+02  0.13883222797E+02  0.51100000000E-03 0. -1.
        -11    1    3    3    0    0 -0.22341950443E+01 -0.19186505210E+01 -0.10648892380E+01  0.31315869248E+01  0.51100000000E-03 0.  1.
        -12    1    3    3    0    0  0.17463782171E+01  0.26050830717E+02 -0.16286462237E+02  0.30772462854E+02  0.00000000000E+00 0.  1.
</event>
<event>
 7    1  0.4011333E-009  0.4778727E+02  0.7816164E-02  0.1312668E+00
        -11   -1    0    0    0    0  0.00000000000E+00  0.00000000000E+00  0.45593999997E+02  0.45594000000E+02  0.51100000000E-03 0.  1.
         11   -1    0    0    0    0 -0.00000000000E+00 -0.00000000000E+00 -0.45593999997E+02  0.45594000000E+02  0.51100000000E-03 0. -1.
    9900012    2    1    2    0    0  0.14814388829E+02  0.23205226155E+02 -0.33551077584E+02  0.47787269081E+02  0.19999991048E+02 0.  0.
        -12    1    1    2    0    0 -0.14814388829E+02 -0.23205226155E+02  0.33551077584E+02  0.43400730919E+02  0.00000000000E+00 0.  1.
         11    1    3    3    0    0  0.10885059480E+02  0.61952914283E+01 -0.12810753828E+02  0.17915958520E+02  0.51100000000E-03 0. -1.
        -11    1    3    3    0    0  0.38066788549E+01  0.70510660500E+01 -0.14240612806E+01  0.81385678800E+01  0.51100000000E-03 0.  1.
         12    1    3    3    0    0  0.12265049353E+00  0.99588686764E+01 -0.19316262475E+02  0.21732742681E+02  0.00000000000E+00 0. -1.
</event>
<event>
 7    1  0.4011333E-009  0.4778726E+02  0.7816164E-02  0.1312668E+00
        -11   -1    0    0    0    0  0.00000000000E+00  0.00000000000E+00  0.45593999997E+02  0.45594000000E+02  0.51100000000E-03 0. -1.
         11   -1    0    0    0    0 -0.00000000000E+00 -0.00000000000E+00 -0.45593999997E+02  0.45594000000E+02  0.51100000000E-03 0.  1.
    9900012    2    1    2    0    0  0.42520676603E+02  0.60634811704E+01 -0.62329838589E+01  0.47787264632E+02  0.19999970765E+02 0.  0.
        -12    1    1    2    0    0 -0.42520676603E+02 -0.60634811704E+01  0.62329838589E+01  0.43400735368E+02  0.00000000000E+00 0.  1.
         11    1    3    3    0    0  0.13036699902E+02 -0.28100912040E+01 -0.49951087750E+01  0.14240901265E+02  0.51100000000E-03 0. -1.
        -11    1    3    3    0    0 -0.50894144756E+00  0.26717909063E+01 -0.10582158917E+01  0.29184429374E+01  0.51100000000E-03 0.  1.
         12    1    3    3    0    0  0.29992918149E+02  0.62017814681E+01 -0.17965919212E+00  0.30627920430E+02  0.00000000000E+00 0. -1.
</event>
<event>
 7    1  0.4011333E-009  0.4778728E+02  0.7816164E-02  0.1312668E+00
        -11   -1    0    0    0    0  0.00000000000E+00  0.00000000000E+00  0.45593999997E+02  0.45594000000E+02  0.51100000000E-03 0. -1.
         11   -1    0    0    0    0 -0.00000000000E+00 -0.00000000000E+00 -0.45593999997E+02  0.45594000000E+02  0.51100000000E-03 0.  1.
    9900012    2    1    2    0    0 -0.33296661962E+02 -0.18492838893E+02  0.20807929809E+02  0.47787277298E+02  0.20000028513E+02 0.  0.
        -12    1    1    2    0    0  0.33296661962E+02  0.18492838893E+02 -0.20807929809E+02  0.43400722702E+02  0.00000000000E+00 0.  1.
         11    1    3    3    0    0 -0.12950068181E+02 -0.13837788907E+02  0.77763777586E+01  0.20485622252E+02  0.51100000000E-03 0. -1.
        -11    1    3    3    0    0 -0.20838191388E+00 -0.18540804529E+01  0.51808292343E+01  0.55065442124E+01  0.51100000000E-03 0.  1.
        -12    1    3    3    0    0 -0.20138211867E+02 -0.28009695330E+01  0.78507228157E+01  0.21795110834E+02  0.00000000000E+00 0.  1.
</event>
<event>
 7    1  0.4011333E-009  0.4778728E+02  0.7816164E-02  0.1312668E+00
        -11   -1    0    0    0    0  0.00000000000E+00  0.00000000000E+00  0.45593999997E+02  0.45594000000E+02  0.51100000000E-03 0.  1.
         11   -1    0    0    0    0 -0.00000000000E+00 -0.00000000000E+00 -0.45593999997E+02  0.45594000000E+02  0.51100000000E-03 0. -1.
    9900012    2    1    2    0    0  0.31538053377E+02 -0.20444787569E+02 -0.21702166255E+02  0.47787283765E+02  0.20000057998E+02 0.  0.
        -12    1    1    2    0    0 -0.31538053377E+02  0.20444787569E+02  0.21702166255E+02  0.43400716235E+02  0.00000000000E+00 0.  1.
         11    1    3    3    0    0  0.96243795070E+01 -0.47789230268E+01 -0.10210098448E+02  0.14822715567E+02  0.51100000000E-03 0. -1.
        -11    1    3    3    0    0  0.42933107836E+01 -0.16592504432E+01 -0.92652126306E+01  0.10345520522E+02  0.51100000000E-03 0.  1.
        -12    1    3    3    0    0  0.17620363087E+02 -0.14006614099E+02 -0.22268551765E+01  0.22619047676E+02  0.00000000000E+00 0.  1.
</event>
<event>
 7    1  0.4011333E-009  0.4778724E+02  0.7816164E-02  0.1312668E+00
        -11   -1    0    0    0    0  0.00000000000E+00  0.00000000000E+00  0.45593999997E+02  0.45594000000E+02  0.51100000000E-03 0. -1.
         11   -1    0    0    0    0 -0.00000000000E+00 -0.00000000000E+00 -0.45593999997E+02  0.45594000000E+02  0.51100000000E-03 0.  1.
    9900012    2    1    2    0    0 -0.36329200771E+02  0.10887863072E+01 -0.23719822262E+02  0.47787236730E+02  0.19999843546E+02 0.  0.
        -12    1    1    2    0    0  0.36329200771E+02 -0.10887863072E+01  0.23719822262E+02  0.43400763270E+02  0.00000000000E+00 0.  1.
         11    1    3    3    0    0 -0.13224992947E+02 -0.24400637694E+00 -0.10492542896E+02  0.16883525527E+02  0.51100000000E-03 0. -1.
        -11    1    3    3    0    0 -0.10116634957E+02 -0.53637590458E+01 -0.11433780384E+02  0.16181704116E+02  0.51100000000E-03 0.  1.
        -12    1    3    3    0    0 -0.12987572868E+02  0.66965517300E+01 -0.17934989815E+01  0.14722007087E+02  0.00000000000E+00 0.  1.
</event>
<event>
 7    1  0.4011333E-009  0.4778728E+02  0.7816164E-02  0.1312668E+00
        -11   -1    0    0    0    0  0.00000000000E+00  0.00000000000E+00  0.45593999997E+02  0.45594000000E+02  0.51100000000E-03 0.  1.
         11   -1    0    0    0    0 -0.00000000000E+00 -0.00000000000E+00 -0.45593999997E+02  0.45594000000E+02  0.51100000000E-03 0. -1.
    9900012    2    1    2    0    0 -0.26414479005E+02 -0.30434462081E+02 -0.16113397183E+02  0.47787277056E+02  0.20000027411E+02 0.  0.
        -12    1    1    2    0    0  0.26414479005E+02  0.30434462081E+02  0.16113397183E+02  0.43400722944E+02  0.00000000000E+00 0.  1.
         11    1    3    3    0    0 -0.30241112551E+01 -0.68445696431E+01 -0.86019101579E+01  0.11401150868E+02  0.51100000000E-03 0. -1.
        -11    1    3    3    0    0 -0.95211322860E+01 -0.97231047968E+01 -0.96132614882E+01  0.16661498240E+02  0.51100000000E-03 0.  1.
         12    1    3    3    0    0 -0.13869235464E+02 -0.13866787641E+02  0.21017744632E+01  0.19724627949E+02  0.00000000000E+00 0. -1.
</event>
<event>
 7    1  0.4011333E-009  0.4778727E+02  0.7816164E-02  0.1312668E+00
        -11   -1    0    0    0    0  0.00000000000E+00  0.00000000000E+00  0.45593999997E+02  0.45594000000E+02  0.51100000000E-03 0.  1.
         11   -1    0    0    0    0 -0.00000000000E+00 -0.00000000000E+00 -0.45593999997E+02  0.45594000000E+02  0.51100000000E-03 0. -1.
    9900012    2    1    2    0    0  0.33041811083E+02 -0.24515068506E+02 -0.13815700391E+02  0.47787269121E+02  0.19999991232E+02 0.  0.
        -12    1    1    2    0    0 -0.33041811083E+02  0.24515068506E+02  0.13815700391E+02  0.43400730879E+02  0.00000000000E+00 0.  1.
         11    1    3    3    0    0  0.43986255774E+01 -0.51669779560E+01 -0.37626335475E+00  0.67961123108E+01  0.51100000000E-03 0. -1.
        -11    1    3    3    0    0  0.52189743711E+01 -0.81546329737E+01  0.31510072003E+01  0.10181580381E+02  0.51100000000E-03 0.  1.
         12    1    3    3    0    0  0.23424211135E+02 -0.11193457576E+02 -0.16590444236E+02  0.30809576429E+02  0.00000000000E+00 0. -1.
</event>
<event>
 7    1  0.4011333E-009  0.4778727E+02  0.7816164E-02  0.1312668E+00
        -11   -1    0    0    0    0  0.00000000000E+00  0.00000000000E+00  0.45593999997E+02  0.45594000000E+02  0.51100000000E-03 0.  1.
         11   -1    0    0    0    0 -0.00000000000E+00 -0.00000000000E+00 -0.45593999997E+02  0.45594000000E+02  0.51100000000E-03 0. -1.
    9900012    2    1    2    0    0 -0.15470513806E+02 -0.39907630986E+02 -0.71880134971E+01  0.47787270209E+02  0.19999996193E+02 0.  0.
        -12    1    1    2    0    0  0.15470513806E+02  0.39907630986E+02  0.71880134971E+01  0.43400729791E+02  0.00000000000E+00 0.  1.
         11    1    3    3    0    0 -0.45662812401E+01 -0.30006232859E+02 -0.26943316071E-01  0.30351699474E+02  0.51100000000E-03 0. -1.
        -11    1    3    3    0    0 -0.40580827945E+00  0.40857121512E+00  0.57306891861E+00  0.81241556121E+00  0.51100000000E-03 0.  1.
        -12    1    3    3    0    0 -0.10498424286E+02 -0.10309969342E+02 -0.77341390996E+01  0.16623155174E+02  0.00000000000E+00 0.  1.
</event>
<event>
 7    1  0.4011333E-009  0.4778725E+02  0.7816164E-02  0.1312668E+00
        -11   -1    0    0    0    0  0.00000000000E+00  0.00000000000E+00  0.45593999997E+02  0.45594000000E+02  0.51100000000E-03 0.  1.
         11   -1    0    0    0    0 -0.00000000000E+00 -0.00000000000E+00 -0.45593999997E+02  0.45594000000E+02  0.51100000000E-03 0. -1.
    9900012    2    1    2    0    0  0.97010760824E+01 -0.34158825183E+02 -0.24953731241E+02  0.47787252104E+02  0.19999913643E+02 0.  0.
        -12    1    1    2    0    0 -0.97010760824E+01  0.34158825183E+02  0.24953731241E+02  0.43400747896E+02  0.00000000000E+00 0.  1.
         11    1    3    3    0    0  0.23091820830E+01 -0.10968440970E+02 -0.12246855044E+02  0.16601941992E+02  0.51100000000E-03 0. -1.
        -11    1    3    3    0    0 -0.19225163245E+01 -0.10989031301E+02 -0.11122874795E+02  0.15753514590E+02  0.51100000000E-03 0.  1.
         12    1    3    3    0    0  0.93144103239E+01 -0.12201352913E+02 -0.15840014023E+01  0.15431795522E+02  0.00000000000E+00 0. -1.
</event>
<event>
 7    1  0.4011333E-009  0.4778727E+02  0.7816164E-02  0.1312668E+00
        -11   -1    0    0    0    0  0.00000000000E+00  0.00000000000E+00  0.45593999997E+02  0.45594000000E+02  0.51100000000E-03 0.  1.
         11   -1    0    0    0    0 -0.00000000000E+00 -0.00000000000E+00 -0.45593999997E+02  0.45594000000E+02  0.51100000000E-03 0. -1.
    9900012    2    1    2    0    0 -0.12237727484E+02 -0.28298393910E+02 -0.30546062570E+02  0.47787274080E+02  0.20000013840E+02 0.  0.
        -12    1    1    2    0    0  0.12237727484E+02  0.28298393910E+02  0.30546062570E+02  0.43400725920E+02  0.00000000000E+00 0.  1.
         11    1    3    3    0    0 -0.48828012664E+01 -0.57430953224E+01 -0.91960794181E+01  0.11890869145E+02  0.51100000000E-03 0. -1.
        -11    1    3    3    0    0 -0.74457817414E+01 -0.23762698176E+02 -0.14243841009E+02  0.28687845811E+02  0.51100000000E-03 0.  1.
         12    1    3    3    0    0  0.90855523688E-01  0.12073995885E+01 -0.71061421428E+01  0.72085591241E+01  0.00000000000E+00 0. -1.
</event>
<event>
 7    1  0.4011333E-009  0.4778725E+02  0.7816164E-02  0.1312668E+00
        -11   -1    0    0    0    0  0.00000000000E+00  0.00000000000E+00  0.45593999997E+02  0.45594000000E+02  0.51100000000E-03 0. -1.
         11   -1    0    0    0    0 -0.00000000000E+00 -0.00000000000E+00 -0.45593999997E+02  0.45594000000E+02  0.51100000000E-03 0.  1.
    9900012    2    1    2    0    0  0.39742825935E+02  0.28419999730E+01  0.17206267869E+02  0.47787253104E+02  0.19999918202E+02 0.  0.
        -12    1    1    2    0    0 -0.39742825935E+02 -0.28419999730E+01 -0.17206267869E+02  0.43400746896E+02  0.00000000000E+00 0.  1.
         11    1    3    3    0    0  0.26950880277E+02 -0.33908022430E+00  0.67239682014E+01  0.27779068950E+02  0.51100000000E-03 0. -1.
        -11    1    3    3    0    0  0.48476599601E+01 -0.10392571938E+01 -0.13559217683E+01  0.51398819740E+01  0.51100000000E-03 0.  1.
        -12    1    3    3    0    0  0.79442856985E+01  0.42203373911E+01  0.11838221436E+02  0.14868302180E+02  0.00000000000E+00 0.  1.
</event>
<event>
 7    1  0.4011333E-009  0.4778727E+02  0.7816164E-02  0.1312668E+00
        -11   -1    0    0    0    0  0.00000000000E+00  0.00000000000E+00  0.45593999997E+02  0.45594000000E+02  0.51100000000E-03 0.  1.
         11   -1    0    0    0    0 -0.00000000000E+00 -0.00000000000E+00 -0.45593999997E+02  0.45594000000E+02  0.51100000000E-03 0. -1.
    9900012    2    1    2    0    0 -0.12610628262E+02 -0.13634303683E+02 -0.39226281489E+02  0.47787270265E+02  0.19999996444E+02 0.  0.
        -12    1    1    2    0    0  0.12610628262E+02  0.13634303683E+02  0.39226281489E+02  0.43400729735E+02  0.00000000000E+00 0.  1.
         11    1    3    3    0    0  0.91436331744E-01 -0.68479684661E+01 -0.27646463365E+02  0.28482099108E+02  0.51100000000E-03 0. -1.
        -11    1    3    3    0    0 -0.96581188930E+00  0.88791660133E+00 -0.17194917406E+01  0.21628316170E+01  0.51100000000E-03 0.  1.
        -12    1    3    3    0    0 -0.11736252704E+02 -0.76742518178E+01 -0.98603263834E+01  0.17142339540E+02  0.00000000000E+00 0.  1.
</event>
<event>
 7    1  0.4011333E-009  0.4778727E+02  0.7816164E-02  0.1312668E+00
        -11   -1    0    0    0    0  0.00000000000E+00  0.00000000000E+00  0.45593999997E+02  0.45594000000E+02  0.51100000000E-03 0. -1.
         11   -1    0    0    0    0 -0.00000000000E+00 -0.00000000000E+00 -0.45593999997E+02  0.45594000000E+02  0.51100000000E-03 0.  1.
    9900012    2    1    2    0    0  0.35667866601E+02 -0.98278658521E+01  0.22690072635E+02  0.47787273609E+02  0.20000011694E+02 0.  0.
        -12    1    1    2    0    0 -0.35667866601E+02  0.98278658521E+01 -0.22690072635E+02  0.43400726391E+02  0.00000000000E+00 0.  1.
         11    1    3    3    0    0  0.18705997904E+02 -0.17362077240E+01  0.95772111456E+01  0.21086767140E+02  0.51100000000E-03 0. -1.
        -11    1    3    3    0    0  0.13873964613E+02 -0.70000477493E+01  0.16021759801E+02  0.22320043682E+02  0.51100000000E-03 0.  1.
        -12    1    3    3    0    0  0.30879040834E+01 -0.10916103787E+01 -0.29088983108E+01  0.43804627872E+01  0.00000000000E+00 0.  1.
</event>
<event>
 7    1  0.4011333E-009  0.4778727E+02  0.7816164E-02  0.1312668E+00
        -11   -1    0    0    0    0  0.00000000000E+00  0.00000000000E+00  0.45593999997E+02  0.45594000000E+02  0.51100000000E-03 0.  1.
         11   -1    0    0    0    0 -0.00000000000E+00 -0.00000000000E+00 -0.45593999997E+02  0.45594000000E+02  0.51100000000E-03 0. -1.
    9900012    2    1    2    0    0  0.17440933943E+02 -0.13359712254E+02 -0.37429336330E+02  0.47787270670E+02  0.19999998292E+02 0.  0.
        -12    1    1    2    0    0 -0.17440933943E+02  0.13359712254E+02  0.37429336330E+02  0.43400729330E+02  0.00000000000E+00 0.  1.
         11    1    3    3    0    0 -0.24000257348E+00 -0.16797260478E+01  0.33431628980E+00  0.17294069716E+01  0.51100000000E-03 0. -1.
        -11    1    3    3    0    0  0.82315660273E+01  0.25093019359E+01 -0.79574294871E+01  0.11720749113E+02  0.51100000000E-03 0.  1.
         12    1    3    3    0    0  0.94493704893E+01 -0.14189288142E+02 -0.29806223132E+02  0.34337114585E+02  0.00000000000E+00 0. -1.
</event>
<event>
 7    1  0.4011333E-009  0.4778727E+02  0.7816164E-02  0.1312668E+00
        -11   -1    0    0    0    0  0.00000000000E+00  0.00000000000E+00  0.45593999997E+02  0.45594000000E+02  0.51100000000E-03 0.  1.
         11   -1    0    0    0    0 -0.00000000000E+00 -0.00000000000E+00 -0.45593999997E+02  0.45594000000E+02  0.51100000000E-03 0. -1.
    9900012    2    1    2    0    0  0.37593744875E+02  0.19178823716E+02 -0.10124539144E+02  0.47787271599E+02  0.20000002527E+02 0.  0.
        -12    1    1    2    0    0 -0.37593744875E+02 -0.19178823716E+02  0.10124539144E+02  0.43400728401E+02  0.00000000000E+00 0.  1.
         11    1    3    3    0    0  0.17814340053E+02  0.40773665382E+01 -0.82958666659E+01  0.20069804020E+02  0.51100000000E-03 0. -1.
        -11    1    3    3    0    0 -0.65989115337E+00 -0.11577460663E+01 -0.85194585282E+00  0.15816587134E+01  0.51100000000E-03 0.  1.
        -12    1    3    3    0    0  0.20439295976E+02  0.16259203244E+02 -0.97672662550E+00  0.26135808865E+02  0.00000000000E+00 0.  1.
</event>
<event>
 7    1  0.4011333E-009  0.4778727E+02  0.7816164E-02  0.1312668E+00
        -11   -1    0    0    0    0  0.00000000000E+00  0.00000000000E+00  0.45593999997E+02  0.45594000000E+02  0.51100000000E-03 0.  1.
         11   -1    0    0    0    0 -0.00000000000E+00 -0.00000000000E+00 -0.45593999997E+02  0.45594000000E+02  0.51100000000E-03 0. -1.
    9900012    2    1    2    0    0  0.32269629709E+02  0.21413743137E+02 -0.19589435596E+02  0.47787269780E+02  0.19999994234E+02 0.  0.
        -12    1    1    2    0    0 -0.32269629709E+02 -0.21413743137E+02  0.19589435596E+02  0.43400730220E+02  0.00000000000E+00 0.  1.
         11    1    3    3    0    0  0.75254914569E+01  0.67831442071E+00 -0.11827707115E+02  0.14035233806E+02  0.51100000000E-03 0. -1.
        -11    1    3    3    0    0  0.39011892703E+01  0.65605838315E+01 -0.21266840622E+01  0.79235928274E+01  0.51100000000E-03 0.  1.
         12    1    3    3    0    0  0.20842948982E+02  0.14174844885E+02 -0.56350444181E+01  0.25828443146E+02  0.00000000000E+00 0. -1.
</event>
<event>
 7    1  0.4011333E-009  0.4778727E+02  0.7816164E-02  0.1312668E+00
        -11   -1    0    0    0    0  0.00000000000E+00  0.00000000000E+00  0.45593999997E+02  0.45594000000E+02  0.51100000000E-03 0.  1.
         11   -1    0    0    0    0 -0.00000000000E+00 -0.00000000000E+00 -0.45593999997E+02  0.45594000000E+02  0.51100000000E-03 0. -1.
    9900012    2    1    2    0    0  0.10519765948E+02  0.30243550917E+02 -0.29296506434E+02  0.47787272622E+02  0.20000007193E+02 0.  0.
        -12    1    1    2    0    0 -0.10519765948E+02 -0.30243550917E+02  0.29296506434E+02  0.43400727378E+02  0.00000000000E+00 0.  1.
         11    1    3    3    0    0  0.11215240995E+02  0.24465234935E+02 -0.23161711336E+02  0.35507664290E+02  0.51100000000E-03 0. -1.
        -11    1    3    3    0    0  0.19838274022E+01  0.13611168334E+01  0.16637120504E+01  0.29250894420E+01  0.51100000000E-03 0.  1.
        -12    1    3    3    0    0 -0.26793024490E+01  0.44171991483E+01 -0.77985071484E+01  0.93545188905E+01  0.00000000000E+00 0.  1.
</event>
<event>
 7    1  0.4011333E-009  0.4778727E+02  0.7816164E-02  0.1312668E+00
        -11   -1    0    0    0    0  0.00000000000E+00  0.00000000000E+00  0.45593999997E+02  0.45594000000E+02  0.51100000000E-03 0.  1.
         11   -1    0    0    0    0 -0.00000000000E+00 -0.00000000000E+00 -0.45593999997E+02  0.45594000000E+02  0.51100000000E-03 0. -1.
    9900012    2    1    2    0    0  0.28165534626E+02 -0.20840643065E+02 -0.25612365719E+02  0.47787273948E+02  0.20000013239E+02 0.  0.
        -12    1    1    2    0    0 -0.28165534626E+02  0.20840643065E+02  0.25612365719E+02  0.43400726052E+02  0.00000000000E+00 0.  1.
         11    1    3    3    0    0 -0.26449646673E+00 -0.61709640682E+00 -0.35637827376E-01  0.67233672522E+00  0.51100000000E-03 0. -1.
        -11    1    3    3    0    0  0.96612580490E+01  0.10137532048E+01 -0.13080728495E+01  0.98019721225E+01  0.51100000000E-03 0.  1.
         12    1    3    3    0    0  0.18768773043E+02 -0.21237299863E+02 -0.24268655042E+02  0.37312965100E+02  0.00000000000E+00 0. -1.
</event>
<event>
 7    1  0.4011333E-009  0.4778727E+02  0.7816164E-02  0.1312668E+00
        -11   -1    0    0    0    0  0.00000000000E+00  0.00000000000E+00  0.45593999997E+02  0.45594000000E+02  0.51100000000E-03 0. -1.
         11   -1    0    0    0    0 -0.00000000000E+00 -0.00000000000E+00 -0.45593999997E+02  0.45594000000E+02  0.51100000000E-03 0.  1.
    9900012    2    1    2    0    0 -0.24578649470E+02 -0.15983322066E+02  0.32000727885E+02  0.47787272135E+02  0.20000004971E+02 0.  0.
        -12    1    1    2    0    0  0.24578649470E+02  0.15983322066E+02 -0.32000727885E+02  0.43400727865E+02  0.00000000000E+00 0.  1.
         11    1    3    3    0    0 -0.14987893452E+02 -0.81712397214E+01  0.15725803750E+02  0.23210062743E+02  0.51100000000E-03 0. -1.
        -11    1    3    3    0    0 -0.63739756421E+01  0.28361936423E+00  0.30710306549E+00  0.63876692137E+01  0.51100000000E-03 0.  1.
         12    1    3    3    0    0 -0.32167803761E+01 -0.80957017090E+01  0.15967821070E+02  0.18189540178E+02  0.00000000000E+00 0. -1.
</event>
<event>
 7    1  0.4011333E-009  0.4778727E+02  0.7816164E-02  0.1312668E+00
        -11   -1    0    0    0    0  0.00000000000E+00  0.00000000000E+00  0.45593999997E+02  0.45594000000E+02  0.51100000000E-03 0.  1.
         11   -1    0    0    0    0 -0.00000000000E+00 -0.00000000000E+00 -0.45593999997E+02  0.45594000000E+02  0.51100000000E-03 0. -1.
    9900012    2    1    2    0    0  0.70326754150E+01 -0.40586909123E+02 -0.13669944570E+02  0.47787273045E+02  0.20000009120E+02 0.  0.
        -12    1    1    2    0    0 -0.70326754150E+01  0.40586909123E+02  0.13669944570E+02  0.43400726955E+02  0.00000000000E+00 0.  1.
         11    1    3    3    0    0  0.10968468313E+02 -0.12228069116E+02 -0.23377728109E+01  0.16592111180E+02  0.51100000000E-03 0. -1.
        -11    1    3    3    0    0 -0.17028542384E+01 -0.48106470457E+01 -0.34692376056E+00  0.51149187591E+01  0.51100000000E-03 0.  1.
         12    1    3    3    0    0 -0.22329386599E+01 -0.23548192962E+02 -0.10985247999E+02  0.26080243106E+02  0.00000000000E+00 0. -1.
</event>
<event>
 7    1  0.4011333E-009  0.4778727E+02  0.7816164E-02  0.1312668E+00
        -11   -1    0    0    0    0  0.00000000000E+00  0.00000000000E+00  0.45593999997E+02  0.45594000000E+02  0.51100000000E-03 0. -1.
         11   -1    0    0    0    0 -0.00000000000E+00 -0.00000000000E+00 -0.45593999997E+02  0.45594000000E+02  0.51100000000E-03 0.  1.
    9900012    2    1    2    0    0 -0.22084565383E+02  0.37191399729E+02 -0.35630185578E+01  0.47787270246E+02  0.19999996359E+02 0.  0.
        -12    1    1    2    0    0  0.22084565383E+02 -0.37191399729E+02  0.35630185578E+01  0.43400729754E+02  0.00000000000E+00 0.  1.
         11    1    3    3    0    0 -0.51368971035E+01  0.63528068815E+01  0.43082024631E+01  0.92361504888E+01  0.51100000000E-03 0. -1.
        -11    1    3    3    0    0 -0.72375786332E+01  0.23710613234E+02 -0.12880816265E+01  0.24824078612E+02  0.51100000000E-03 0.  1.
        -12    1    3    3    0    0 -0.97100896465E+01  0.71279796135E+01 -0.65831393944E+01  0.13727041145E+02  0.00000000000E+00 0.  1.
</event>
<event>
 7    1  0.4011333E-009  0.4778728E+02  0.7816164E-02  0.1312668E+00
        -11   -1    0    0    0    0  0.00000000000E+00  0.00000000000E+00  0.45593999997E+02  0.45594000000E+02  0.51100000000E-03 0.  1.
         11   -1    0    0    0    0 -0.00000000000E+00 -0.00000000000E+00 -0.45593999997E+02  0.45594000000E+02  0.51100000000E-03 0. -1.
    9900012    2    1    2    0    0  0.22867022919E+02 -0.34814386852E+02 -0.12193462795E+02  0.47787276458E+02  0.20000024680E+02 0.  0.
        -12    1    1    2    0    0 -0.22867022919E+02  0.34814386852E+02  0.12193462795E+02  0.43400723542E+02  0.00000000000E+00 0.  1.
         11    1    3    3    0    0  0.39015078260E+00 -0.62471371520E+01 -0.10969404368E+01  0.63547005289E+01  0.51100000000E-03 0.  1.
        -11    1    3    3    0    0  0.48798065866E+01 -0.19177057236E+02 -0.75189663913E+01  0.21168535433E+02  0.51100000000E-03 0. -1.
         12    1    3    3    0    0  0.17597065550E+02 -0.93901924643E+01 -0.35775559672E+01  0.20264040495E+02  0.00000000000E+00 0. -1.
</event>
<event>
 7    1  0.4011333E-009  0.4778728E+02  0.7816164E-02  0.1312668E+00
        -11   -1    0    0    0    0  0.00000000000E+00  0.00000000000E+00  0.45593999997E+02  0.45594000000E+02  0.51100000000E-03 0. -1.
         11   -1    0    0    0    0 -0.00000000000E+00 -0.00000000000E+00 -0.45593999997E+02  0.45594000000E+02  0.51100000000E-03 0.  1.
    9900012    2    1    2    0    0  0.12242612680E+02 -0.41569696166E+02 -0.23877378759E+01  0.47787279998E+02  0.20000040822E+02 0.  0.
        -12    1    1    2    0    0 -0.12242612680E+02  0.41569696166E+02  0.23877378759E+01  0.43400720002E+02  0.00000000000E+00 0.  1.
         11    1    3    3    0    0  0.26071992456E+00 -0.79061056208E+01 -0.41577317023E+01  0.89365101765E+01  0.51100000000E-03 0. -1.
        -11    1    3    3    0    0  0.68747089095E+01 -0.32941121048E+02  0.16528493676E+01  0.33691408249E+02  0.51100000000E-03 0.  1.
        -12    1    3    3    0    0  0.51071838461E+01 -0.72246949696E+00  0.11714445883E+00  0.51593615725E+01  0.00000000000E+00 0.  1.
</event>
<event>
 7    1  0.4011333E-009  0.4778727E+02  0.7816164E-02  0.1312668E+00
        -11   -1    0    0    0    0  0.00000000000E+00  0.00000000000E+00  0.45593999997E+02  0.45594000000E+02  0.51100000000E-03 0.  1.
         11   -1    0    0    0    0 -0.00000000000E+00 -0.00000000000E+00 -0.45593999997E+02  0.45594000000E+02  0.51100000000E-03 0. -1.
    9900012    2    1    2    0    0  0.34240773737E+02  0.56600725295E+01 -0.26060621589E+02  0.47787274145E+02  0.20000014136E+02 0.  0.
        -12    1    1    2    0    0 -0.34240773737E+02 -0.56600725295E+01  0.26060621589E+02  0.43400725855E+02  0.00000000000E+00 0.  1.
         11    1    3    3    0    0  0.36670192631E+01 -0.34121852325E+01 -0.74677847199E+01  0.89920991554E+01  0.51100000000E-03 0. -1.
        -11    1    3    3    0    0  0.15850744791E+02  0.80569428992E+00 -0.14323220960E+02  0.21378725703E+02  0.51100000000E-03 0.  1.
        -12    1    3    3    0    0  0.14723009682E+02  0.82665634721E+01 -0.42696159088E+01  0.17416449287E+02  0.00000000000E+00 0.  1.
</event>
<event>
 7    1  0.4011333E-009  0.4778727E+02  0.7816164E-02  0.1312668E+00
        -11   -1    0    0    0    0  0.00000000000E+00  0.00000000000E+00  0.45593999997E+02  0.45594000000E+02  0.51100000000E-03 0.  1.
         11   -1    0    0    0    0 -0.00000000000E+00 -0.00000000000E+00 -0.45593999997E+02  0.45594000000E+02  0.51100000000E-03 0. -1.
    9900012    2    1    2    0    0  0.22626240065E+02  0.13567510423E+01 -0.37011297730E+02  0.47787266452E+02  0.19999979062E+02 0.  0.
        -12    1    1    2    0    0 -0.22626240065E+02 -0.13567510423E+01  0.37011297730E+02  0.43400733548E+02  0.00000000000E+00 0.  1.
         11    1    3    3    0    0  0.10690480318E+02  0.85174381887E+01 -0.19686576657E+02  0.23966527146E+02  0.51100000000E-03 0. -1.
        -11    1    3    3    0    0  0.88351704656E+01 -0.49982386431E+01 -0.17279177891E+02  0.20040274837E+02  0.51100000000E-03 0.  1.
        -12    1    3    3    0    0  0.31005892813E+01 -0.21624485033E+01 -0.45543181791E-01  0.37804644691E+01  0.00000000000E+00 0.  1.
</event>
<event>
 7    1  0.4011333E-009  0.4778727E+02  0.7816164E-02  0.1312668E+00
        -11   -1    0    0    0    0  0.00000000000E+00  0.00000000000E+00  0.45593999997E+02  0.45594000000E+02  0.51100000000E-03 0.  1.
         11   -1    0    0    0    0 -0.00000000000E+00 -0.00000000000E+00 -0.45593999997E+02  0.45594000000E+02  0.51100000000E-03 0. -1.
    9900012    2    1    2    0    0 -0.32096743609E+02 -0.12645253187E+02 -0.26334764967E+02  0.47787271616E+02  0.20000002605E+02 0.  0.
        -12    1    1    2    0    0  0.32096743609E+02  0.12645253187E+02  0.26334764967E+02  0.43400728384E+02  0.00000000000E+00 0.  1.
         11    1    3    3    0    0 -0.11062034108E+02 -0.12157989223E+02 -0.53022123365E+01  0.17271327583E+02  0.51100000000E-03 0. -1.
        -11    1    3    3    0    0 -0.12407737868E+01  0.13147340782E+01 -0.38072811151E+01  0.42146690305E+01  0.51100000000E-03 0.  1.
         12    1    3    3    0    0 -0.19793935714E+02 -0.18019980421E+01 -0.17225271515E+02  0.26301275002E+02  0.00000000000E+00 0. -1.
</event>
<event>
 7    1  0.4011333E-009  0.4778727E+02  0.7816164E-02  0.1312668E+00
        -11   -1    0    0    0    0  0.00000000000E+00  0.00000000000E+00  0.45593999997E+02  0.45594000000E+02  0.51100000000E-03 0.  1.
         11   -1    0    0    0    0 -0.00000000000E+00 -0.00000000000E+00 -0.45593999997E+02  0.45594000000E+02  0.51100000000E-03 0. -1.
    9900012    2    1    2    0    0  0.99135649945E+01  0.15559448274E+02 -0.39284197935E+02  0.47787269489E+02  0.19999992907E+02 0.  0.
        -12    1    1    2    0    0 -0.99135649945E+01 -0.15559448274E+02  0.39284197935E+02  0.43400730511E+02  0.00000000000E+00 0.  1.
         11    1    3    3    0    0  0.44933992017E+01 -0.13469594917E+01 -0.48541980907E+01  0.67504204034E+01  0.51100000000E-03 0. -1.
        -11    1    3    3    0    0  0.23662193088E+00  0.48626726548E+01 -0.23404614724E+02  0.23905596958E+02  0.51100000000E-03 0.  1.
         12    1    3    3    0    0  0.51835438620E+01  0.12043735111E+02 -0.11025385120E+02  0.17131252127E+02  0.00000000000E+00 0. -1.
</event>
<event>
 7    1  0.4011333E-009  0.4778727E+02  0.7816164E-02  0.1312668E+00
        -11   -1    0    0    0    0  0.00000000000E+00  0.00000000000E+00  0.45593999997E+02  0.45594000000E+02  0.51100000000E-03 0. -1.
         11   -1    0    0    0    0 -0.00000000000E+00 -0.00000000000E+00 -0.45593999997E+02  0.45594000000E+02  0.51100000000E-03 0.  1.
    9900012    2    1    2    0    0 -0.23643527556E+02 -0.32702317423E+02  0.15973900698E+02  0.47787268858E+02  0.19999990032E+02 0.  0.
        -12    1    1    2    0    0  0.23643527556E+02  0.32702317423E+02 -0.15973900698E+02  0.43400731142E+02  0.00000000000E+00 0.  1.
         11    1    3    3    0    0 -0.60587713347E+01 -0.40873285464E+01  0.25533940799E+01  0.77417560231E+01  0.51100000000E-03 0. -1.
        -11    1    3    3    0    0 -0.19920156287E+02 -0.19849940890E+02  0.12956149618E+02  0.30962793689E+02  0.51100000000E-03 0.  1.
        -12    1    3    3    0    0  0.23354000654E+01 -0.87650479860E+01  0.46435700104E+00  0.90827191461E+01  0.00000000000E+00 0.  1.
</event>
<event>
 7    1  0.4011333E-009  0.4778726E+02  0.7816164E-02  0.1312668E+00
        -11   -1    0    0    0    0  0.00000000000E+00  0.00000000000E+00  0.45593999997E+02  0.45594000000E+02  0.51100000000E-03 0. -1.
         11   -1    0    0    0    0 -0.00000000000E+00 -0.00000000000E+00 -0.45593999997E+02  0.45594000000E+02  0.51100000000E-03 0.  1.
    9900012    2    1    2    0    0 -0.28282340957E+01 -0.62182338259E+01  0.42859755418E+02  0.47787262972E+02  0.19999963196E+02 0.  0.
        -12    1    1    2    0    0  0.28282340957E+01  0.62182338259E+01 -0.42859755418E+02  0.43400737028E+02  0.00000000000E+00 0.  1.
         11    1    3    3    0    0  0.23032599578E+01 -0.30032222583E+01  0.10755200930E+02  0.11401697140E+02  0.51100000000E-03 0. -1.
        -11    1    3    3    0    0 -0.76899544481E+01 -0.62659016522E+01  0.10607760840E+02  0.14523137169E+02  0.51100000000E-03 0.  1.
        -12    1    3    3    0    0  0.25584603946E+01  0.30508900846E+01  0.21496793649E+02  0.21862428664E+02  0.00000000000E+00 0.  1.
</event>
<event>
 7    1  0.4011333E-009  0.4778726E+02  0.7816164E-02  0.1312668E+00
        -11   -1    0    0    0    0  0.00000000000E+00  0.00000000000E+00  0.45593999997E+02  0.45594000000E+02  0.51100000000E-03 0. -1.
         11   -1    0    0    0    0 -0.00000000000E+00 -0.00000000000E+00 -0.45593999997E+02  0.45594000000E+02  0.51100000000E-03 0.  1.
    9900012    2    1    2    0    0  0.35597361184E+02  0.22079022392E+02  0.11356427858E+02  0.47787264905E+02  0.19999972010E+02 0.  0.
        -12    1    1    2    0    0 -0.35597361184E+02 -0.22079022392E+02 -0.11356427858E+02  0.43400735095E+02  0.00000000000E+00 0.  1.
         11    1    3    3    0    0  0.85032403367E+01  0.28052916755E+01  0.35781555513E+01  0.96425077142E+01  0.51100000000E-03 0. -1.
        -11    1    3    3    0    0  0.46586680102E+01 -0.26072336725E+01  0.38031685465E+01  0.65547651602E+01  0.51100000000E-03 0.  1.
         12    1    3    3    0    0  0.22435452837E+02  0.21880964389E+02  0.39751037607E+01  0.31589992031E+02  0.00000000000E+00 0. -1.
</event>
<event>
 7    1  0.4011333E-009  0.4778727E+02  0.7816164E-02  0.1312668E+00
        -11   -1    0    0    0    0  0.00000000000E+00  0.00000000000E+00  0.45593999997E+02  0.45594000000E+02  0.51100000000E-03 0.  1.
         11   -1    0    0    0    0 -0.00000000000E+00 -0.00000000000E+00 -0.45593999997E+02  0.45594000000E+02  0.51100000000E-03 0. -1.
    9900012    2    1    2    0    0 -0.17126249825E+02  0.16403244375E+02 -0.36348981409E+02  0.47787270645E+02  0.19999998179E+02 0.  0.
        -12    1    1    2    0    0  0.17126249825E+02 -0.16403244375E+02  0.36348981409E+02  0.43400729355E+02  0.00000000000E+00 0.  1.
         11    1    3    3    0    0 -0.10695134858E+02  0.12555912074E+02 -0.28256438569E+02  0.32717933286E+02  0.51100000000E-03 0. -1.
        -11    1    3    3    0    0 -0.11298528516E+01  0.44580515301E+01 -0.85552011958E+01  0.97129943206E+01  0.51100000000E-03 0.  1.
        -12    1    3    3    0    0 -0.53012621149E+01 -0.61071922880E+00  0.46265835624E+00  0.53563430381E+01  0.00000000000E+00 0.  1.
</event>
<event>
 7    1  0.4011333E-009  0.4778727E+02  0.7816164E-02  0.1312668E+00
        -11   -1    0    0    0    0  0.00000000000E+00  0.00000000000E+00  0.45593999997E+02  0.45594000000E+02  0.51100000000E-03 0.  1.
         11   -1    0    0    0    0 -0.00000000000E+00 -0.00000000000E+00 -0.45593999997E+02  0.45594000000E+02  0.51100000000E-03 0. -1.
    9900012    2    1    2    0    0 -0.21220652026E+02 -0.61711596830E+01 -0.37352701808E+02  0.47787267097E+02  0.19999982000E+02 0.  0.
        -12    1    1    2    0    0  0.21220652026E+02  0.61711596830E+01  0.37352701808E+02  0.43400732903E+02  0.00000000000E+00 0.  1.
         11    1    3    3    0    0 -0.49102955785E+01 -0.18021696551E+01 -0.44740930568E+01  0.68830463514E+01  0.51100000000E-03 0. -1.
        -11    1    3    3    0    0 -0.11671143148E+02 -0.10952477077E+02 -0.18852942843E+02  0.24730664986E+02  0.51100000000E-03 0.  1.
         12    1    3    3    0    0 -0.46392132991E+01  0.65834870492E+01 -0.14025665907E+02  0.16173555760E+02  0.00000000000E+00 0. -1.
</event>
<event>
 7    1  0.4011333E-009  0.4778727E+02  0.7816164E-02  0.1312668E+00
        -11   -1    0    0    0    0  0.00000000000E+00  0.00000000000E+00  0.45593999997E+02  0.45594000000E+02  0.51100000000E-03 0.  1.
         11   -1    0    0    0    0 -0.00000000000E+00 -0.00000000000E+00 -0.45593999997E+02  0.45594000000E+02  0.51100000000E-03 0. -1.
    9900012    2    1    2    0    0 -0.41679710718E+02  0.89165137202E+01 -0.81805220943E+01  0.47787269082E+02  0.19999991054E+02 0.  0.
        -12    1    1    2    0    0  0.41679710718E+02 -0.89165137202E+01  0.81805220943E+01  0.43400730918E+02  0.00000000000E+00 0.  1.
         11    1    3    3    0    0 -0.11774691669E+02 -0.37924255127E+00 -0.12566632935E+01  0.11847632325E+02  0.51100000000E-03 0. -1.
        -11    1    3    3    0    0 -0.26744118476E+02  0.22350036296E+01 -0.82801484232E+01  0.28085654211E+02  0.51100000000E-03 0.  1.
        -12    1    3    3    0    0 -0.31609005726E+01  0.70607526419E+01  0.13562896223E+01  0.78539825464E+01  0.00000000000E+00 0.  1.
</event>
<event>
 7    1  0.4011333E-009  0.4778727E+02  0.7816164E-02  0.1312668E+00
        -11   -1    0    0    0    0  0.00000000000E+00  0.00000000000E+00  0.45593999997E+02  0.45594000000E+02  0.51100000000E-03 0. -1.
         11   -1    0    0    0    0 -0.00000000000E+00 -0.00000000000E+00 -0.45593999997E+02  0.45594000000E+02  0.51100000000E-03 0.  1.
    9900012    2    1    2    0    0 -0.48669014622E+01 -0.34311678316E+02  0.26127480562E+02  0.47787271444E+02  0.20000001821E+02 0.  0.
        -12    1    1    2    0    0  0.48669014622E+01  0.34311678316E+02 -0.26127480562E+02  0.43400728556E+02  0.00000000000E+00 0.  1.
         11    1    3    3    0    0 -0.91298931441E+01 -0.99539559751E+01  0.15046330825E+02  0.20219501970E+02  0.51100000000E-03 0. -1.
        -11    1    3    3    0    0 -0.45591961214E+00 -0.15054860789E+01 -0.30708598382E+00  0.16027018092E+01  0.51100000000E-03 0.  1.
        -12    1    3    3    0    0  0.47189112940E+01 -0.22852236262E+02  0.11388235721E+02  0.25965067664E+02  0.00000000000E+00 0.  1.
</event>
<event>
 7    1  0.4011333E-009  0.4778727E+02  0.7816164E-02  0.1312668E+00
        -11   -1    0    0    0    0  0.00000000000E+00  0.00000000000E+00  0.45593999997E+02  0.45594000000E+02  0.51100000000E-03 0. -1.
         11   -1    0    0    0    0 -0.00000000000E+00 -0.00000000000E+00 -0.45593999997E+02  0.45594000000E+02  0.51100000000E-03 0.  1.
    9900012    2    1    2    0    0 -0.11228826209E+01 -0.25213131591E+02  0.35308081492E+02  0.47787268570E+02  0.19999988716E+02 0.  0.
        -12    1    1    2    0    0  0.11228826209E+01  0.25213131591E+02 -0.35308081492E+02  0.43400731430E+02  0.00000000000E+00 0.  1.
         11    1    3    3    0    0  0.61915830233E+01 -0.14227872119E+02  0.14143404537E+02  0.20995331326E+02  0.51100000000E-03 0. -1.
        -11    1    3    3    0    0 -0.23944275664E+01 -0.10394910898E+02  0.10197610888E+02  0.14757327808E+02  0.51100000000E-03 0.  1.
        -12    1    3    3    0    0 -0.49200380778E+01 -0.59034857485E+00  0.10967066067E+02  0.12034609435E+02  0.00000000000E+00 0.  1.
</event>
<event>
 7    1  0.4011333E-009  0.4778725E+02  0.7816164E-02  0.1312668E+00
        -11   -1    0    0    0    0  0.00000000000E+00  0.00000000000E+00  0.45593999997E+02  0.45594000000E+02  0.51100000000E-03 0. -1.
         11   -1    0    0    0    0 -0.00000000000E+00 -0.00000000000E+00 -0.45593999997E+02  0.45594000000E+02  0.51100000000E-03 0.  1.
    9900012    2    1    2    0    0  0.37255757612E+02 -0.20909040431E+02  0.76449789961E+01  0.47787249421E+02  0.19999901408E+02 0.  0.
        -12    1    1    2    0    0 -0.37255757612E+02  0.20909040431E+02 -0.76449789961E+01  0.43400750579E+02  0.00000000000E+00 0.  1.
         11    1    3    3    0    0  0.15795948375E+02 -0.14057757499E+02 -0.14223118665E+00  0.21145986876E+02  0.51100000000E-03 0. -1.
        -11    1    3    3    0    0  0.34828869265E+01 -0.58537056571E+01  0.49369229295E+01  0.84124657227E+01  0.51100000000E-03 0.  1.
         12    1    3    3    0    0  0.17976922310E+02 -0.99757727540E+00  0.28502872532E+01  0.18228796822E+02  0.00000000000E+00 0. -1.
</event>
<event>
 7    1  0.4011333E-009  0.4778727E+02  0.7816164E-02  0.1312668E+00
        -11   -1    0    0    0    0  0.00000000000E+00  0.00000000000E+00  0.45593999997E+02  0.45594000000E+02  0.51100000000E-03 0. -1.
         11   -1    0    0    0    0 -0.00000000000E+00 -0.00000000000E+00 -0.45593999997E+02  0.45594000000E+02  0.51100000000E-03 0.  1.
    9900012    2    1    2    0    0 -0.19600456239E+02  0.38675585396E+02 -0.19090352542E+01  0.47787271825E+02  0.20000003559E+02 0.  0.
        -12    1    1    2    0    0  0.19600456239E+02 -0.38675585396E+02  0.19090352542E+01  0.43400728175E+02  0.00000000000E+00 0.  1.
         11    1    3    3    0    0 -0.14280347619E+01  0.79622303064E+01  0.12025925816E+01  0.81781797432E+01  0.51100000000E-03 0. -1.
        -11    1    3    3    0    0 -0.14796034863E+02  0.23033879924E+02 -0.95922297380E+01  0.29008501230E+02  0.51100000000E-03 0.  1.
        -12    1    3    3    0    0 -0.33763866139E+01  0.76794751662E+01  0.64806019022E+01  0.10600590852E+02  0.00000000000E+00 0.  1.
</event>
<event>
 7    1  0.4011333E-009  0.4778728E+02  0.7816164E-02  0.1312668E+00
        -11   -1    0    0    0    0  0.00000000000E+00  0.00000000000E+00  0.45593999997E+02  0.45594000000E+02  0.51100000000E-03 0.  1.
         11   -1    0    0    0    0 -0.00000000000E+00 -0.00000000000E+00 -0.45593999997E+02  0.45594000000E+02  0.51100000000E-03 0. -1.
    9900012    2    1    2    0    0  0.39244172604E+02 -0.13659240926E+02 -0.12527684372E+02  0.47787276253E+02  0.20000023746E+02 0.  0.
        -12    1    1    2    0    0 -0.39244172604E+02  0.13659240926E+02  0.12527684372E+02  0.43400723747E+02  0.00000000000E+00 0.  1.
         11    1    3    3    0    0  0.75877033570E+01 -0.91355956118E+01  0.27283283010E+00  0.11878837798E+02  0.51100000000E-03 0. -1.
        -11    1    3    3    0    0  0.63030795341E+01 -0.49861707524E+01 -0.16350339976E+01  0.82014661384E+01  0.51100000000E-03 0.  1.
        -12    1    3    3    0    0  0.25353389713E+02  0.46252543857E+00 -0.11165483205E+02  0.27706972316E+02  0.00000000000E+00 0.  1.
</event>
<event>
 7    1  0.4751901E-009  0.4778732E+02  0.7816164E-02  0.1312668E+00
        -11   -1    0    0    0    0  0.00000000000E+00  0.00000000000E+00  0.45593999997E+02  0.45594000000E+02  0.51100000000E-03 0. -1.
         11   -1    0    0    0    0 -0.00000000000E+00 -0.00000000000E+00 -0.45593999997E+02  0.45594000000E+02  0.51100000000E-03 0.  1.
    9900012    2    1    2    0    0 -0.16554748047E+01  0.18387518130E+02  0.39278207743E+02  0.47787320014E+02  0.20000223269E+02 0.  0.
        -12    1    1    2    0    0  0.16554748047E+01 -0.18387518130E+02 -0.39278207743E+02  0.43400679986E+02  0.00000000000E+00 0.  1.
         11    1    3    3    0    0 -0.18459046249E+01  0.14534917783E+02  0.21476006389E+02  0.25997885482E+02  0.51100000000E-03 0. -1.
        -11    1    3    3    0    0 -0.55993352344E+01  0.21403189366E+01  0.12008938735E+02  0.13421927210E+02  0.51100000000E-03 0.  1.
        -12    1    3    3    0    0  0.57897650546E+01  0.17122814097E+01  0.57932626181E+01  0.83675073215E+01  0.00000000000E+00 0.  1.
</event>
<event>
 7    1  0.4011333E-009  0.4778727E+02  0.7816164E-02  0.1312668E+00
        -11   -1    0    0    0    0  0.00000000000E+00  0.00000000000E+00  0.45593999997E+02  0.45594000000E+02  0.51100000000E-03 0.  1.
         11   -1    0    0    0    0 -0.00000000000E+00 -0.00000000000E+00 -0.45593999997E+02  0.45594000000E+02  0.51100000000E-03 0. -1.
    9900012    2    1    2    0    0  0.41212385137E+01 -0.42154459217E+02 -0.94678607159E+01  0.47787269300E+02  0.19999992046E+02 0.  0.
        -12    1    1    2    0    0 -0.41212385137E+01  0.42154459217E+02  0.94678607159E+01  0.43400730700E+02  0.00000000000E+00 0.  1.
         11    1    3    3    0    0 -0.30421671346E+01 -0.21724891362E+02 -0.83437474990E+01  0.23470061954E+02  0.51100000000E-03 0. -1.
        -11    1    3    3    0    0  0.21590285072E+01 -0.14866610051E+02 -0.50735997129E+01  0.15856194777E+02  0.51100000000E-03 0.  1.
        -12    1    3    3    0    0  0.50043771411E+01 -0.55629578046E+01  0.39494864960E+01  0.84610125687E+01  0.00000000000E+00 0.  1.
</event>
<event>
 7    1  0.4011333E-009  0.4778727E+02  0.7816164E-02  0.1312668E+00
        -11   -1    0    0    0    0  0.00000000000E+00  0.00000000000E+00  0.45593999997E+02  0.45594000000E+02  0.51100000000E-03 0.  1.
         11   -1    0    0    0    0 -0.00000000000E+00 -0.00000000000E+00 -0.45593999997E+02  0.45594000000E+02  0.51100000000E-03 0. -1.
    9900012    2    1    2    0    0 -0.15156311124E+02  0.86409273464E+01 -0.39739701920E+02  0.47787270732E+02  0.19999998574E+02 0.  0.
        -12    1    1    2    0    0  0.15156311124E+02 -0.86409273464E+01  0.39739701920E+02  0.43400729268E+02  0.00000000000E+00 0.  1.
         11    1    3    3    0    0  0.32678548491E+01 -0.23522026505E+01 -0.10613473814E+02  0.11351544357E+02  0.51100000000E-03 0.  1.
        -11    1    3    3    0    0 -0.44897167285E+01  0.35949076148E+01 -0.10941446324E+02  0.12361074588E+02  0.51100000000E-03 0. -1.
        -12    1    3    3    0    0 -0.13934449245E+02  0.73982223821E+01 -0.18184781783E+02  0.24074651787E+02  0.00000000000E+00 0.  1.
</event>
<event>
 7    1  0.4011333E-009  0.4778727E+02  0.7816164E-02  0.1312668E+00
        -11   -1    0    0    0    0  0.00000000000E+00  0.00000000000E+00  0.45593999997E+02  0.45594000000E+02  0.51100000000E-03 0. -1.
         11   -1    0    0    0    0 -0.00000000000E+00 -0.00000000000E+00 -0.45593999997E+02  0.45594000000E+02  0.51100000000E-03 0.  1.
    9900012    2    1    2    0    0 -0.24766693026E+02  0.42651418964E+01  0.35384217148E+02  0.47787270259E+02  0.19999996419E+02 0.  0.
        -12    1    1    2    0    0  0.24766693026E+02 -0.42651418964E+01 -0.35384217148E+02  0.43400729741E+02  0.00000000000E+00 0.  1.
         11    1    3    3    0    0 -0.27317293367E+01 -0.21362672195E+01  0.15279979157E+01  0.37895594326E+01  0.51100000000E-03 0. -1.
        -11    1    3    3    0    0 -0.12772776711E+02 -0.45828433871E+01  0.14100307634E+02  0.19569490389E+02  0.51100000000E-03 0.  1.
         12    1    3    3    0    0 -0.92621869784E+01  0.10984252503E+02  0.19755911598E+02  0.24428220438E+02  0.00000000000E+00 0. -1.
</event>
<event>
 7    1  0.4011333E-009  0.4778727E+02  0.7816164E-02  0.1312668E+00
        -11   -1    0    0    0    0  0.00000000000E+00  0.00000000000E+00  0.45593999997E+02  0.45594000000E+02  0.51100000000E-03 0.  1.
         11   -1    0    0    0    0 -0.00000000000E+00 -0.00000000000E+00 -0.45593999997E+02  0.45594000000E+02  0.51100000000E-03 0. -1.
    9900012    2    1    2    0    0  0.39205495827E+02 -0.41640645067E+01 -0.18144236136E+02  0.47787266812E+02  0.19999980705E+02 0.  0.
        -12    1    1    2    0    0 -0.39205495827E+02  0.41640645067E+01  0.18144236136E+02  0.43400733188E+02  0.00000000000E+00 0.  1.
         11    1    3    3    0    0  0.31858903206E+01 -0.16264965881E+01 -0.37960603557E+01  0.52158856171E+01  0.51100000000E-03 0. -1.
        -11    1    3    3    0    0  0.16268807518E+02 -0.70835478102E+01 -0.81229681205E-02  0.17744036009E+02  0.51100000000E-03 0.  1.
        -12    1    3    3    0    0  0.19750797988E+02  0.45459798915E+01 -0.14340052812E+02  0.24827345186E+02  0.00000000000E+00 0.  1.
</event>
<event>
 7    1  0.4011333E-009  0.4778725E+02  0.7816164E-02  0.1312668E+00
        -11   -1    0    0    0    0  0.00000000000E+00  0.00000000000E+00  0.45593999997E+02  0.45594000000E+02  0.51100000000E-03 0. -1.
         11   -1    0    0    0    0 -0.00000000000E+00 -0.00000000000E+00 -0.45593999997E+02  0.45594000000E+02  0.51100000000E-03 0.  1.
    9900012    2    1    2    0    0 -0.12568729149E+02  0.33910140140E+02  0.23994883080E+02  0.47787251495E+02  0.19999910868E+02 0.  0.
        -12    1    1    2    0    0  0.12568729149E+02 -0.33910140140E+02 -0.23994883080E+02  0.43400748505E+02  0.00000000000E+00 0.  1.
         11    1    3    3    0    0 -0.38236291124E+01  0.80562743404E+00  0.77138329340E+01  0.86471032113E+01  0.51100000000E-03 0. -1.
        -11    1    3    3    0    0 -0.33841794511E+01  0.15665780133E+02  0.12926019992E+02  0.20590078456E+02  0.51100000000E-03 0.  1.
        -12    1    3    3    0    0 -0.53609205855E+01  0.17438732573E+02  0.33550301536E+01  0.18550069828E+02  0.00000000000E+00 0.  1.
</event>
<event>
 7    1  0.4011333E-009  0.4778727E+02  0.7816164E-02  0.1312668E+00
        -11   -1    0    0    0    0  0.00000000000E+00  0.00000000000E+00  0.45593999997E+02  0.45594000000E+02  0.51100000000E-03 0.  1.
         11   -1    0    0    0    0 -0.00000000000E+00 -0.00000000000E+00 -0.45593999997E+02  0.45594000000E+02  0.51100000000E-03 0. -1.
    9900012    2    1    2    0    0  0.39730104446E+02 -0.37310277078E+01 -0.17065213345E+02  0.47787271048E+02  0.20000000017E+02 0.  0.
        -12    1    1    2    0    0 -0.39730104446E+02  0.37310277078E+01  0.17065213345E+02  0.43400728952E+02  0.00000000000E+00 0.  1.
         11    1    3    3    0    0  0.32209373124E+02  0.53242192520E+01 -0.12664738373E+02  0.35016947697E+02  0.51100000000E-03 0. -1.
        -11    1    3    3    0    0  0.46217877935E+00 -0.81211993720E+00 -0.10654214848E+01  0.14171348622E+01  0.51100000000E-03 0.  1.
         12    1    3    3    0    0  0.70585525423E+01 -0.82431270226E+01 -0.33350534865E+01  0.11353188489E+02  0.00000000000E+00 0. -1.
</event>
<event>
 7    1  0.4011333E-009  0.4778727E+02  0.7816164E-02  0.1312668E+00
        -11   -1    0    0    0    0  0.00000000000E+00  0.00000000000E+00  0.45593999997E+02  0.45594000000E+02  0.51100000000E-03 0. -1.
         11   -1    0    0    0    0 -0.00000000000E+00 -0.00000000000E+00 -0.45593999997E+02  0.45594000000E+02  0.51100000000E-03 0.  1.
    9900012    2    1    2    0    0  0.20324678389E+02 -0.38149488162E+02 -0.38919585637E+01  0.47787270281E+02  0.19999996521E+02 0.  0.
        -12    1    1    2    0    0 -0.20324678389E+02  0.38149488162E+02  0.38919585637E+01  0.43400729719E+02  0.00000000000E+00 0.  1.
         11    1    3    3    0    0 -0.14939080781E+01 -0.21004566430E+01  0.47414533647E+00  0.26207810890E+01  0.51100000000E-03 0. -1.
        -11    1    3    3    0    0  0.95311621090E+00  0.23352914260E+00 -0.31447032905E+01  0.32942564287E+01  0.51100000000E-03 0.  1.
         12    1    3    3    0    0  0.20865470256E+02 -0.36282560662E+02 -0.12214006097E+01  0.41872232764E+02  0.00000000000E+00 0. -1.
</event>
<event>
 7    1  0.4011333E-009  0.4778727E+02  0.7816164E-02  0.1312668E+00
        -11   -1    0    0    0    0  0.00000000000E+00  0.00000000000E+00  0.45593999997E+02  0.45594000000E+02  0.51100000000E-03 0.  1.
         11   -1    0    0    0    0 -0.00000000000E+00 -0.00000000000E+00 -0.45593999997E+02  0.45594000000E+02  0.51100000000E-03 0. -1.
    9900012    2    1    2    0    0  0.15604807158E+02 -0.19577489161E+02 -0.35451873510E+02  0.47787269319E+02  0.19999992133E+02 0.  0.
        -12    1    1    2    0    0 -0.15604807158E+02  0.19577489161E+02  0.35451873510E+02  0.43400730681E+02  0.00000000000E+00 0.  1.
         11    1    3    3    0    0  0.21481655146E+01 -0.38202830548E+01 -0.24638841569E+01  0.50279123994E+01  0.51100000000E-03 0.  1.
        -11    1    3    3    0    0 -0.35229265810E+01  0.66214580027E+00 -0.42088647845E+01  0.55284710175E+01  0.51100000000E-03 0. -1.
         12    1    3    3    0    0  0.16979568224E+02 -0.16419351907E+02 -0.28779124569E+02  0.37230885902E+02  0.00000000000E+00 0. -1.
</event>
<event>
 7    1  0.4011333E-009  0.4778727E+02  0.7816164E-02  0.1312668E+00
        -11   -1    0    0    0    0  0.00000000000E+00  0.00000000000E+00  0.45593999997E+02  0.45594000000E+02  0.51100000000E-03 0. -1.
         11   -1    0    0    0    0 -0.00000000000E+00 -0.00000000000E+00 -0.45593999997E+02  0.45594000000E+02  0.51100000000E-03 0.  1.
    9900012    2    1    2    0    0 -0.43187893225E+02 -0.23422711163E+01  0.35976868145E+01  0.47787266071E+02  0.19999977324E+02 0.  0.
        -12    1    1    2    0    0  0.43187893225E+02  0.23422711163E+01 -0.35976868145E+01  0.43400733929E+02  0.00000000000E+00 0.  1.
         11    1    3    3    0    0 -0.12736848749E+02  0.34001322870E+01  0.25185603838E+01  0.13421302556E+02  0.51100000000E-03 0. -1.
        -11    1    3    3    0    0 -0.44967309219E+01  0.16102657149E+01 -0.47842798032E+01  0.67603903847E+01  0.51100000000E-03 0.  1.
         12    1    3    3    0    0 -0.25954313553E+02 -0.73526691183E+01  0.58634062339E+01  0.27605573130E+02  0.00000000000E+00 0. -1.
</event>
<event>
 7    1  0.4011333E-009  0.4778727E+02  0.7816164E-02  0.1312668E+00
        -11   -1    0    0    0    0  0.00000000000E+00  0.00000000000E+00  0.45593999997E+02  0.45594000000E+02  0.51100000000E-03 0.  1.
         11   -1    0    0    0    0 -0.00000000000E+00 -0.00000000000E+00 -0.45593999997E+02  0.45594000000E+02  0.51100000000E-03 0. -1.
    9900012    2    1    2    0    0  0.27390712097E+02  0.28368843661E+02 -0.18126800696E+02  0.47787270705E+02  0.19999998453E+02 0.  0.
        -12    1    1    2    0    0 -0.27390712097E+02 -0.28368843661E+02  0.18126800696E+02  0.43400729295E+02  0.00000000000E+00 0.  1.
         11    1    3    3    0    0 -0.19884142008E+00  0.80846938555E+01 -0.65567603684E+01  0.10411192028E+02  0.51100000000E-03 0.  1.
        -11    1    3    3    0    0  0.13219341175E+02  0.12901148295E+02 -0.10351969664E+02  0.21174368576E+02  0.51100000000E-03 0. -1.
         12    1    3    3    0    0  0.14370212342E+02  0.73830015104E+01 -0.12180706643E+01  0.16201710101E+02  0.00000000000E+00 0. -1.
</event>
<event>
 7    1  0.4011333E-009  0.4778727E+02  0.7816164E-02  0.1312668E+00
        -11   -1    0    0    0    0  0.00000000000E+00  0.00000000000E+00  0.45593999997E+02  0.45594000000E+02  0.51100000000E-03 0.  1.
         11   -1    0    0    0    0 -0.00000000000E+00 -0.00000000000E+00 -0.45593999997E+02  0.45594000000E+02  0.51100000000E-03 0. -1.
    9900012    2    1    2    0    0  0.39238842806E+02  0.17956014181E+02 -0.46387711414E+01  0.47787269272E+02  0.19999991919E+02 0.  0.
        -12    1    1    2    0    0 -0.39238842806E+02 -0.17956014181E+02  0.46387711414E+01  0.43400730728E+02  0.00000000000E+00 0.  1.
         11    1    3    3    0    0  0.73337234673E+01  0.33873332536E+01 -0.34425497616E+01  0.87811545703E+01  0.51100000000E-03 0. -1.
        -11    1    3    3    0    0  0.27558755026E+02  0.14833209299E+02  0.47296019672E+01  0.31652459806E+02  0.51100000000E-03 0.  1.
        -12    1    3    3    0    0  0.43463643121E+01 -0.26452837161E+00 -0.59258233470E+01  0.73536548962E+01  0.00000000000E+00 0.  1.
</event>
<event>
 7    1  0.4011333E-009  0.4778728E+02  0.7816164E-02  0.1312668E+00
        -11   -1    0    0    0    0  0.00000000000E+00  0.00000000000E+00  0.45593999997E+02  0.45594000000E+02  0.51100000000E-03 0.  1.
         11   -1    0    0    0    0 -0.00000000000E+00 -0.00000000000E+00 -0.45593999997E+02  0.45594000000E+02  0.51100000000E-03 0. -1.
    9900012    2    1    2    0    0  0.35226689226E+02 -0.20299830036E+02 -0.15186168046E+02  0.47787280729E+02  0.20000044158E+02 0.  0.
        -12    1    1    2    0    0 -0.35226689226E+02  0.20299830036E+02  0.15186168046E+02  0.43400719271E+02  0.00000000000E+00 0.  1.
         11    1    3    3    0    0  0.13060539884E+02 -0.31494464781E+01 -0.70516700106E+01  0.15173093467E+02  0.51100000000E-03 0. -1.
        -11    1    3    3    0    0  0.17469164978E+02 -0.16827785445E+02 -0.11483156952E+02  0.26836709595E+02  0.51100000000E-03 0.  1.
        -12    1    3    3    0    0  0.46969843634E+01 -0.32259811290E+00  0.33486589170E+01  0.57774776672E+01  0.00000000000E+00 0.  1.
</event>
<event>
 7    1  0.4011333E-009  0.4778727E+02  0.7816164E-02  0.1312668E+00
        -11   -1    0    0    0    0  0.00000000000E+00  0.00000000000E+00  0.45593999997E+02  0.45594000000E+02  0.51100000000E-03 0. -1.
         11   -1    0    0    0    0 -0.00000000000E+00 -0.00000000000E+00 -0.45593999997E+02  0.45594000000E+02  0.51100000000E-03 0.  1.
    9900012    2    1    2    0    0  0.28672612675E+02  0.17476004656E+02  0.27497169203E+02  0.47787265323E+02  0.19999973912E+02 0.  0.
        -12    1    1    2    0    0 -0.28672612675E+02 -0.17476004656E+02 -0.27497169203E+02  0.43400734677E+02  0.00000000000E+00 0.  1.
         11    1    3    3    0    0 -0.35102006668E+00  0.17070758718E+01 -0.43696418576E+00  0.17967362299E+01  0.51100000000E-03 0. -1.
        -11    1    3    3    0    0  0.19004834442E+02  0.35550027000E+01  0.89851210611E+01  0.21320276196E+02  0.51100000000E-03 0.  1.
         12    1    3    3    0    0  0.10018798300E+02  0.12213926084E+02  0.18949012328E+02  0.24670252896E+02  0.00000000000E+00 0. -1.
</event>
<event>
 7    1  0.4011333E-009  0.4778727E+02  0.7816164E-02  0.1312668E+00
        -11   -1    0    0    0    0  0.00000000000E+00  0.00000000000E+00  0.45593999997E+02  0.45594000000E+02  0.51100000000E-03 0. -1.
         11   -1    0    0    0    0 -0.00000000000E+00 -0.00000000000E+00 -0.45593999997E+02  0.45594000000E+02  0.51100000000E-03 0.  1.
    9900012    2    1    2    0    0 -0.19206646406E+01  0.22888664454E+02  0.36824494091E+02  0.47787270995E+02  0.19999999772E+02 0.  0.
        -12    1    1    2    0    0  0.19206646406E+01 -0.22888664454E+02 -0.36824494091E+02  0.43400729005E+02  0.00000000000E+00 0.  1.
         11    1    3    3    0    0  0.41582229359E+01  0.61410684972E+01  0.67205264179E+01  0.10008447226E+02  0.51100000000E-03 0. -1.
        -11    1    3    3    0    0  0.23474579971E+01  0.48038963212E+01  0.18073208633E+02  0.18847515737E+02  0.51100000000E-03 0.  1.
         12    1    3    3    0    0 -0.84263455736E+01  0.11943699636E+02  0.12030759040E+02  0.18931308032E+02  0.00000000000E+00 0. -1.
</event>
<event>
 7    1  0.4011333E-009  0.4778728E+02  0.7816164E-02  0.1312668E+00
        -11   -1    0    0    0    0  0.00000000000E+00  0.00000000000E+00  0.45593999997E+02  0.45594000000E+02  0.51100000000E-03 0.  1.
         11   -1    0    0    0    0 -0.00000000000E+00 -0.00000000000E+00 -0.45593999997E+02  0.45594000000E+02  0.51100000000E-03 0. -1.
    9900012    2    1    2    0    0  0.16257821238E+02 -0.24525200977E+02 -0.31903299430E+02  0.47787277093E+02  0.20000027576E+02 0.  0.
        -12    1    1    2    0    0 -0.16257821238E+02  0.24525200977E+02  0.31903299430E+02  0.43400722907E+02  0.00000000000E+00 0.  1.
         11    1    3    3    0    0  0.58038331918E+01 -0.13074584370E+02 -0.11637673589E+02  0.18440842795E+02  0.51100000000E-03 0. -1.
        -11    1    3    3    0    0  0.68160156114E+01 -0.13221408960E+02 -0.90223814313E+01  0.17397329986E+02  0.51100000000E-03 0.  1.
         12    1    3    3    0    0  0.36379724344E+01  0.17707923525E+01 -0.11243244410E+02  0.11949104311E+02  0.00000000000E+00 0. -1.
</event>
<event>
 7    1  0.4011333E-009  0.4778726E+02  0.7816164E-02  0.1312668E+00
        -11   -1    0    0    0    0  0.00000000000E+00  0.00000000000E+00  0.45593999997E+02  0.45594000000E+02  0.51100000000E-03 0.  1.
         11   -1    0    0    0    0 -0.00000000000E+00 -0.00000000000E+00 -0.45593999997E+02  0.45594000000E+02  0.51100000000E-03 0. -1.
    9900012    2    1    2    0    0  0.38823581714E+02 -0.30211866525E+00 -0.19397476249E+02  0.47787264319E+02  0.19999969338E+02 0.  0.
        -12    1    1    2    0    0 -0.38823581714E+02  0.30211866525E+00  0.19397476249E+02  0.43400735681E+02  0.00000000000E+00 0.  1.
         11    1    3    3    0    0  0.70319138529E+01  0.57592170390E+01 -0.47341912550E+01  0.10248363793E+02  0.51100000000E-03 0. -1.
        -11    1    3    3    0    0  0.18649929584E+02  0.10926945415E+01 -0.38414222816E+01  0.19072765406E+02  0.51100000000E-03 0.  1.
        -12    1    3    3    0    0  0.13141738277E+02 -0.71540302458E+01 -0.10821862712E+02  0.18466135120E+02  0.00000000000E+00 0.  1.
</event>
<event>
 7    1  0.4011333E-009  0.4778728E+02  0.7816164E-02  0.1312668E+00
        -11   -1    0    0    0    0  0.00000000000E+00  0.00000000000E+00  0.45593999997E+02  0.45594000000E+02  0.51100000000E-03 0.  1.
         11   -1    0    0    0    0 -0.00000000000E+00 -0.00000000000E+00 -0.45593999997E+02  0.45594000000E+02  0.51100000000E-03 0. -1.
    9900012    2    1    2    0    0  0.22197514553E+02  0.16363357863E+02 -0.33513183846E+02  0.47787278527E+02  0.20000034117E+02 0.  0.
        -12    1    1    2    0    0 -0.22197514553E+02 -0.16363357863E+02  0.33513183846E+02  0.43400721473E+02  0.00000000000E+00 0.  1.
         11    1    3    3    0    0  0.18545904853E+02  0.17238395183E+02 -0.20860412115E+02  0.32806548876E+02  0.51100000000E-03 0. -1.
        -11    1    3    3    0    0 -0.47731212080E+00  0.10395826208E+00  0.76515952818E+00  0.90780149020E+00  0.51100000000E-03 0.  1.
         12    1    3    3    0    0  0.41289218204E+01 -0.97899558159E+00 -0.13417931259E+02  0.14072928161E+02  0.00000000000E+00 0. -1.
</event>
<event>
 7    1  0.4011333E-009  0.4778726E+02  0.7816164E-02  0.1312668E+00
        -11   -1    0    0    0    0  0.00000000000E+00  0.00000000000E+00  0.45593999997E+02  0.45594000000E+02  0.51100000000E-03 0.  1.
         11   -1    0    0    0    0 -0.00000000000E+00 -0.00000000000E+00 -0.45593999997E+02  0.45594000000E+02  0.51100000000E-03 0. -1.
    9900012    2    1    2    0    0 -0.21616430957E+02  0.37032643710E+02  0.67035690892E+01  0.47787255468E+02  0.19999928979E+02 0.  0.
        -12    1    1    2    0    0  0.21616430957E+02 -0.37032643710E+02 -0.67035690892E+01  0.43400744532E+02  0.00000000000E+00 0.  1.
         11    1    3    3    0    0 -0.82487578716E+00  0.34977584204E+01 -0.89672963478E-01  0.35948262174E+01  0.51100000000E-03 0. -1.
        -11    1    3    3    0    0  0.10273343474E+00  0.18593259647E+01  0.59524579178E+01  0.62369385700E+01  0.51100000000E-03 0.  1.
         12    1    3    3    0    0 -0.20894288604E+02  0.31675559325E+02  0.84078413485E+00  0.37955490680E+02  0.00000000000E+00 0. -1.
</event>
<event>
 7    1  0.4011333E-009  0.4778726E+02  0.7816164E-02  0.1312668E+00
        -11   -1    0    0    0    0  0.00000000000E+00  0.00000000000E+00  0.45593999997E+02  0.45594000000E+02  0.51100000000E-03 0.  1.
         11   -1    0    0    0    0 -0.00000000000E+00 -0.00000000000E+00 -0.45593999997E+02  0.45594000000E+02  0.51100000000E-03 0. -1.
    9900012    2    1    2    0    0 -0.24028687189E+02  0.11998697127E+02 -0.34092190270E+02  0.47787262930E+02  0.19999963005E+02 0.  0.
        -12    1    1    2    0    0  0.24028687189E+02 -0.11998697127E+02  0.34092190270E+02  0.43400737070E+02  0.00000000000E+00 0.  1.
         11    1    3    3    0    0 -0.63560801719E+01  0.17415476722E+01 -0.18067813603E+02  0.19232228994E+02  0.51100000000E-03 0. -1.
        -11    1    3    3    0    0 -0.39675495090E+01  0.77240365189E+01 -0.10341802173E+02  0.13503890613E+02  0.51100000000E-03 0.  1.
        -12    1    3    3    0    0 -0.13705057508E+02  0.25331129359E+01 -0.56825744948E+01  0.15051143323E+02  0.00000000000E+00 0.  1.
</event>
<event>
 7    1  0.4011333E-009  0.4778727E+02  0.7816164E-02  0.1312668E+00
        -11   -1    0    0    0    0  0.00000000000E+00  0.00000000000E+00  0.45593999997E+02  0.45594000000E+02  0.51100000000E-03 0. -1.
         11   -1    0    0    0    0 -0.00000000000E+00 -0.00000000000E+00 -0.45593999997E+02  0.45594000000E+02  0.51100000000E-03 0.  1.
    9900012    2    1    2    0    0  0.32818403314E+02 -0.23018375391E+02  0.16635204862E+02  0.47787271405E+02  0.20000001646E+02 0.  0.
        -12    1    1    2    0    0 -0.32818403314E+02  0.23018375391E+02 -0.16635204862E+02  0.43400728595E+02  0.00000000000E+00 0.  1.
         11    1    3    3    0    0  0.12516064200E+01 -0.14912017503E+01 -0.15434934911E+01  0.24844664838E+01  0.51100000000E-03 0. -1.
        -11    1    3    3    0    0  0.63801465400E+01 -0.97061342811E+00 -0.23330391747E+01  0.68623197499E+01  0.51100000000E-03 0.  1.
        -12    1    3    3    0    0  0.25186650354E+02 -0.20556560212E+02  0.20511737528E+02  0.38440485172E+02  0.00000000000E+00 0.  1.
</event>
<event>
 7    1  0.4011333E-009  0.4778727E+02  0.7816164E-02  0.1312668E+00
        -11   -1    0    0    0    0  0.00000000000E+00  0.00000000000E+00  0.45593999997E+02  0.45594000000E+02  0.51100000000E-03 0.  1.
         11   -1    0    0    0    0 -0.00000000000E+00 -0.00000000000E+00 -0.45593999997E+02  0.45594000000E+02  0.51100000000E-03 0. -1.
    9900012    2    1    2    0    0 -0.31608817369E+02  0.29668533513E+02 -0.20698172345E+01  0.47787270056E+02  0.19999995493E+02 0.  0.
        -12    1    1    2    0    0  0.31608817369E+02 -0.29668533513E+02  0.20698172345E+01  0.43400729944E+02  0.00000000000E+00 0.  1.
         11    1    3    3    0    0 -0.12236771321E+02  0.19758380567E+02 -0.28876697971E+01  0.23419453711E+02  0.51100000000E-03 0. -1.
        -11    1    3    3    0    0 -0.78639201487E+01  0.41462900521E+01  0.57464379015E+01  0.10585580292E+02  0.51100000000E-03 0.  1.
         12    1    3    3    0    0 -0.11508125900E+02  0.57638628932E+01 -0.49285853389E+01  0.13782236053E+02  0.00000000000E+00 0. -1.
</event>
<event>
 7    1  0.4011333E-009  0.4778727E+02  0.7816164E-02  0.1312668E+00
        -11   -1    0    0    0    0  0.00000000000E+00  0.00000000000E+00  0.45593999997E+02  0.45594000000E+02  0.51100000000E-03 0.  1.
         11   -1    0    0    0    0 -0.00000000000E+00 -0.00000000000E+00 -0.45593999997E+02  0.45594000000E+02  0.51100000000E-03 0. -1.
    9900012    2    1    2    0    0 -0.23348562586E+02 -0.33934008436E+02 -0.13673002227E+02  0.47787270821E+02  0.19999998983E+02 0.  0.
        -12    1    1    2    0    0  0.23348562586E+02  0.33934008436E+02  0.13673002227E+02  0.43400729179E+02  0.00000000000E+00 0.  1.
         11    1    3    3    0    0 -0.82306851119E+01 -0.70222416468E+01 -0.48488253075E+01  0.11856102322E+02  0.51100000000E-03 0.  1.
        -11    1    3    3    0    0 -0.13244333031E+02 -0.29086530553E+02 -0.80544755655E+01  0.32959265677E+02  0.51100000000E-03 0. -1.
        -12    1    3    3    0    0 -0.18735444425E+01  0.21747637642E+01 -0.76970135371E+00  0.29719028217E+01  0.00000000000E+00 0.  1.
</event>
<event>
 7    1  0.4011333E-009  0.4778727E+02  0.7816164E-02  0.1312668E+00
        -11   -1    0    0    0    0  0.00000000000E+00  0.00000000000E+00  0.45593999997E+02  0.45594000000E+02  0.51100000000E-03 0. -1.
         11   -1    0    0    0    0 -0.00000000000E+00 -0.00000000000E+00 -0.45593999997E+02  0.45594000000E+02  0.51100000000E-03 0.  1.
    9900012    2    1    2    0    0  0.11566205476E+01  0.33970142484E+02  0.26987309581E+02  0.47787271551E+02  0.20000002309E+02 0.  0.
        -12    1    1    2    0    0 -0.11566205476E+01 -0.33970142484E+02 -0.26987309581E+02  0.43400728449E+02  0.00000000000E+00 0.  1.
         11    1    3    3    0    0 -0.25913679853E+01  0.82850634613E+00  0.50478082115E+01  0.57342810187E+01  0.51100000000E-03 0. -1.
        -11    1    3    3    0    0  0.16081258539E+01  0.55969853333E+01  0.10788476421E+02  0.12259834311E+02  0.51100000000E-03 0.  1.
         12    1    3    3    0    0  0.21398626790E+01  0.27544650804E+02  0.11151024949E+02  0.29793156222E+02  0.00000000000E+00 0. -1.
</event>
<event>
 7    1  0.4011333E-009  0.4778727E+02  0.7816164E-02  0.1312668E+00
        -11   -1    0    0    0    0  0.00000000000E+00  0.00000000000E+00  0.45593999997E+02  0.45594000000E+02  0.51100000000E-03 0. -1.
         11   -1    0    0    0    0 -0.00000000000E+00 -0.00000000000E+00 -0.45593999997E+02  0.45594000000E+02  0.51100000000E-03 0.  1.
    9900012    2    1    2    0    0  0.25861346707E+02 -0.30843403644E+02  0.16232635606E+02  0.47787271198E+02  0.20000000701E+02 0.  0.
        -12    1    1    2    0    0 -0.25861346707E+02  0.30843403644E+02 -0.16232635606E+02  0.43400728802E+02  0.00000000000E+00 0.  1.
         11    1    3    3    0    0  0.13558526195E+02 -0.27424883592E+02  0.93908934043E+01  0.32002292915E+02  0.51100000000E-03 0. -1.
        -11    1    3    3    0    0  0.62336037651E+01 -0.34847433118E+01  0.74202699731E+00  0.71799621291E+01  0.51100000000E-03 0.  1.
         12    1    3    3    0    0  0.60692167465E+01  0.66223260282E-01  0.60997152043E+01  0.86050161540E+01  0.00000000000E+00 0. -1.
</event>
<event>
 7    1  0.4011333E-009  0.4778728E+02  0.7816164E-02  0.1312668E+00
        -11   -1    0    0    0    0  0.00000000000E+00  0.00000000000E+00  0.45593999997E+02  0.45594000000E+02  0.51100000000E-03 0.  1.
         11   -1    0    0    0    0 -0.00000000000E+00 -0.00000000000E+00 -0.45593999997E+02  0.45594000000E+02  0.51100000000E-03 0. -1.
    9900012    2    1    2    0    0 -0.18545757769E+02  0.22092367419E+02 -0.32428460705E+02  0.47787275431E+02  0.20000020002E+02 0.  0.
        -12    1    1    2    0    0  0.18545757769E+02 -0.22092367419E+02  0.32428460705E+02  0.43400724569E+02  0.00000000000E+00 0.  1.
         11    1    3    3    0    0 -0.47611161937E+01 -0.27561038208E+01 -0.38289301412E+01  0.67026145622E+01  0.51100000000E-03 0. -1.
        -11    1    3    3    0    0 -0.77466229556E+01  0.85995574130E+01 -0.75623715107E+01  0.13825773687E+02  0.51100000000E-03 0.  1.
        -12    1    3    3    0    0 -0.60380186197E+01  0.16248913827E+02 -0.21037159053E+02  0.27258887182E+02  0.00000000000E+00 0.  1.
</event>
<event>
 7    1  0.4011333E-009  0.4778727E+02  0.7816164E-02  0.1312668E+00
        -11   -1    0    0    0    0  0.00000000000E+00  0.00000000000E+00  0.45593999997E+02  0.45594000000E+02  0.51100000000E-03 0.  1.
         11   -1    0    0    0    0 -0.00000000000E+00 -0.00000000000E+00 -0.45593999997E+02  0.45594000000E+02  0.51100000000E-03 0. -1.
    9900012    2    1    2    0    0  0.30386120833E+02 -0.45865532780E+01  0.30647519013E+02  0.47787271528E+02  0.20000002206E+02 0.  0.
        -12    1    1    2    0    0 -0.30386120833E+02  0.45865532780E+01 -0.30647519013E+02  0.43400728472E+02  0.00000000000E+00 0.  1.
         11    1    3    3    0    0  0.96798779929E+01 -0.36445767893E+01  0.15565260912E+02  0.18688507844E+02  0.51100000000E-03 0. -1.
        -11    1    3    3    0    0  0.30455283532E+01  0.16285373878E+01  0.99445264679E+01  0.10527154597E+02  0.51100000000E-03 0.  1.
        -12    1    3    3    0    0  0.17660714486E+02 -0.25705138764E+01  0.51377316335E+01  0.18571609087E+02  0.00000000000E+00 0.  1.
</event>
<event>
 7    1  0.4011333E-009  0.4778727E+02  0.7816164E-02  0.1312668E+00
        -11   -1    0    0    0    0  0.00000000000E+00  0.00000000000E+00  0.45593999997E+02  0.45594000000E+02  0.51100000000E-03 0.  1.
         11   -1    0    0    0    0 -0.00000000000E+00 -0.00000000000E+00 -0.45593999997E+02  0.45594000000E+02  0.51100000000E-03 0. -1.
    9900012    2    1    2    0    0  0.19710956377E+02 -0.26205896184E+02  0.28431538265E+02  0.47787272307E+02  0.20000005757E+02 0.  0.
        -12    1    1    2    0    0 -0.19710956377E+02  0.26205896184E+02 -0.28431538265E+02  0.43400727693E+02  0.00000000000E+00 0.  1.
         11    1    3    3    0    0  0.52900955334E+00 -0.11222491093E+02  0.72281924864E+01  0.13359301042E+02  0.51100000000E-03 0.  1.
        -11    1    3    3    0    0  0.67011022842E+01 -0.12687308765E+02  0.98861122659E+01  0.17424344795E+02  0.51100000000E-03 0. -1.
        -12    1    3    3    0    0  0.12480844540E+02 -0.22960963259E+01  0.11317233513E+02  0.17003626471E+02  0.00000000000E+00 0.  1.
</event>
<event>
 7    1  0.4011333E-009  0.4778727E+02  0.7816164E-02  0.1312668E+00
        -11   -1    0    0    0    0  0.00000000000E+00  0.00000000000E+00  0.45593999997E+02  0.45594000000E+02  0.51100000000E-03 0.  1.
         11   -1    0    0    0    0 -0.00000000000E+00 -0.00000000000E+00 -0.45593999997E+02  0.45594000000E+02  0.51100000000E-03 0. -1.
    9900012    2    1    2    0    0  0.42397909935E+02  0.85466271549E+01 -0.36049774228E+01  0.47787268845E+02  0.19999989971E+02 0.  0.
        -12    1    1    2    0    0 -0.42397909935E+02 -0.85466271549E+01  0.36049774228E+01  0.43400731155E+02  0.00000000000E+00 0.  1.
         11    1    3    3    0    0  0.10644572880E+02 -0.21409553940E+00 -0.47925183699E+01  0.11675658495E+02  0.51100000000E-03 0. -1.
        -11    1    3    3    0    0  0.13048286109E+02 -0.37511495514E+01  0.88649473611E+00  0.13605688755E+02  0.51100000000E-03 0.  1.
        -12    1    3    3    0    0  0.18705050946E+02  0.12511872246E+02  0.30104621093E+00  0.22505921595E+02  0.00000000000E+00 0.  1.
</event>
<event>
 7    1  0.4011333E-009  0.4778727E+02  0.7816164E-02  0.1312668E+00
        -11   -1    0    0    0    0  0.00000000000E+00  0.00000000000E+00  0.45593999997E+02  0.45594000000E+02  0.51100000000E-03 0.  1.
         11   -1    0    0    0    0 -0.00000000000E+00 -0.00000000000E+00 -0.45593999997E+02  0.45594000000E+02  0.51100000000E-03 0. -1.
    9900012    2    1    2    0    0 -0.22980922914E+02  0.24293100983E+02 -0.27664882579E+02  0.47787270727E+02  0.19999998553E+02 0.  0.
        -12    1    1    2    0    0  0.22980922914E+02 -0.24293100983E+02  0.27664882579E+02  0.43400729273E+02  0.00000000000E+00 0.  1.
         11    1    3    3    0    0 -0.10284558476E+02  0.64521988388E+01 -0.10460813182E+02  0.16025967228E+02  0.51100000000E-03 0. -1.
        -11    1    3    3    0    0 -0.16269526711E+02  0.14398457870E+02 -0.14352948369E+02  0.26038821317E+02  0.51100000000E-03 0.  1.
        -12    1    3    3    0    0  0.35731622733E+01  0.34424442735E+01 -0.28511210274E+01  0.57224821818E+01  0.00000000000E+00 0.  1.
</event>
<event>
 7    1  0.4011333E-009  0.4778726E+02  0.7816164E-02  0.1312668E+00
        -11   -1    0    0    0    0  0.00000000000E+00  0.00000000000E+00  0.45593999997E+02  0.45594000000E+02  0.51100000000E-03 0.  1.
         11   -1    0    0    0    0 -0.00000000000E+00 -0.00000000000E+00 -0.45593999997E+02  0.45594000000E+02  0.51100000000E-03 0. -1.
    9900012    2    1    2    0    0 -0.19531064605E+02  0.33417830538E+02 -0.19631864624E+02  0.47787262782E+02  0.19999962329E+02 0.  0.
        -12    1    1    2    0    0  0.19531064605E+02 -0.33417830538E+02  0.19631864624E+02  0.43400737218E+02  0.00000000000E+00 0.  1.
         11    1    3    3    0    0  0.12651692246E+01  0.64476842052E+01 -0.14795252227E+01  0.67351525537E+01  0.51100000000E-03 0. -1.
        -11    1    3    3    0    0 -0.57921863939E+01  0.23503111053E+01 -0.86957611736E+01  0.10709325290E+02  0.51100000000E-03 0.  1.
         12    1    3    3    0    0 -0.15004047435E+02  0.24619835227E+02 -0.94565782278E+01  0.30342784939E+02  0.00000000000E+00 0. -1.
</event>
<event>
 7    1  0.4011333E-009  0.4778727E+02  0.7816164E-02  0.1312668E+00
        -11   -1    0    0    0    0  0.00000000000E+00  0.00000000000E+00  0.45593999997E+02  0.45594000000E+02  0.51100000000E-03 0.  1.
         11   -1    0    0    0    0 -0.00000000000E+00 -0.00000000000E+00 -0.45593999997E+02  0.45594000000E+02  0.51100000000E-03 0. -1.
    9900012    2    1    2    0    0  0.13469761660E+02 -0.35337093302E+02 -0.21295046090E+02  0.47787266939E+02  0.19999981283E+02 0.  0.
        -12    1    1    2    0    0 -0.13469761660E+02  0.35337093302E+02  0.21295046090E+02  0.43400733061E+02  0.00000000000E+00 0.  1.
         11    1    3    3    0    0  0.20300450781E+01 -0.13562477305E+01 -0.34832348155E+01  0.42536356175E+01  0.51100000000E-03 0. -1.
        -11    1    3    3    0    0  0.26130855308E+01 -0.17934432753E+02 -0.19911095942E+00  0.18124892816E+02  0.51100000000E-03 0.  1.
         12    1    3    3    0    0  0.88266310514E+01 -0.16046412819E+02 -0.17612700315E+02  0.25408738506E+02  0.00000000000E+00 0. -1.
</event>
<event>
 7    1  0.4011333E-009  0.4778727E+02  0.7816164E-02  0.1312668E+00
        -11   -1    0    0    0    0  0.00000000000E+00  0.00000000000E+00  0.45593999997E+02  0.45594000000E+02  0.51100000000E-03 0.  1.
         11   -1    0    0    0    0 -0.00000000000E+00 -0.00000000000E+00 -0.45593999997E+02  0.45594000000E+02  0.51100000000E-03 0. -1.
    9900012    2    1    2    0    0  0.90218323682E+01 -0.34655457414E+02 -0.24519969380E+02  0.47787273206E+02  0.20000009853E+02 0.  0.
        -12    1    1    2    0    0 -0.90218323682E+01  0.34655457414E+02  0.24519969380E+02  0.43400726794E+02  0.00000000000E+00 0.  1.
         11    1    3    3    0    0  0.41630397884E+01 -0.97610067359E+01 -0.51920898617E+01  0.11813803375E+02  0.51100000000E-03 0.  1.
        -11    1    3    3    0    0 -0.15997905688E+01 -0.15496479969E+02 -0.26999820280E+01  0.15811076007E+02  0.51100000000E-03 0. -1.
         12    1    3    3    0    0  0.64585831486E+01 -0.93979707092E+01 -0.16627897491E+02  0.20162393824E+02  0.00000000000E+00 0. -1.
</event>
<event>
 7    1  0.4011333E-009  0.4778727E+02  0.7816164E-02  0.1312668E+00
        -11   -1    0    0    0    0  0.00000000000E+00  0.00000000000E+00  0.45593999997E+02  0.45594000000E+02  0.51100000000E-03 0.  1.
         11   -1    0    0    0    0 -0.00000000000E+00 -0.00000000000E+00 -0.45593999997E+02  0.45594000000E+02  0.51100000000E-03 0. -1.
    9900012    2    1    2    0    0  0.16522327471E+02  0.31367043028E+01 -0.40009959882E+02  0.47787272947E+02  0.20000008676E+02 0.  0.
        -12    1    1    2    0    0 -0.16522327471E+02 -0.31367043028E+01  0.40009959882E+02  0.43400727053E+02  0.00000000000E+00 0.  1.
         11    1    3    3    0    0  0.51219634099E+01  0.50950758216E+01 -0.20051505696E+02  0.21313310107E+02  0.51100000000E-03 0. -1.
        -11    1    3    3    0    0 -0.22849368621E+01  0.19495529040E+01 -0.49524202247E+01  0.57920772900E+01  0.51100000000E-03 0.  1.
        -12    1    3    3    0    0  0.13685300923E+02 -0.39079244228E+01 -0.15006033961E+02  0.20681885550E+02  0.00000000000E+00 0.  1.
</event>
<event>
 7    1  0.4011333E-009  0.4778724E+02  0.7816164E-02  0.1312668E+00
        -11   -1    0    0    0    0  0.00000000000E+00  0.00000000000E+00  0.45593999997E+02  0.45594000000E+02  0.51100000000E-03 0. -1.
         11   -1    0    0    0    0 -0.00000000000E+00 -0.00000000000E+00 -0.45593999997E+02  0.45594000000E+02  0.51100000000E-03 0.  1.
    9900012    2    1    2    0    0  0.27443080923E+02  0.16950091537E+01  0.33580207634E+02  0.47787238586E+02  0.19999852008E+02 0.  0.
        -12    1    1    2    0    0 -0.27443080923E+02 -0.16950091537E+01 -0.33580207634E+02  0.43400761414E+02  0.00000000000E+00 0.  1.
         11    1    3    3    0    0  0.14000887806E+02  0.55244413211E+00  0.10226805685E+02  0.17346976932E+02  0.51100000000E-03 0. -1.
        -11    1    3    3    0    0  0.11573035925E+02 -0.38331669406E+01  0.21671491881E+02  0.24865274780E+02  0.51100000000E-03 0.  1.
        -12    1    3    3    0    0  0.18691571917E+01  0.49757319622E+01  0.16819100686E+01  0.55749868741E+01  0.00000000000E+00 0.  1.
</event>
<event>
 7    1  0.4011333E-009  0.4778727E+02  0.7816164E-02  0.1312668E+00
        -11   -1    0    0    0    0  0.00000000000E+00  0.00000000000E+00  0.45593999997E+02  0.45594000000E+02  0.51100000000E-03 0.  1.
         11   -1    0    0    0    0 -0.00000000000E+00 -0.00000000000E+00 -0.45593999997E+02  0.45594000000E+02  0.51100000000E-03 0. -1.
    9900012    2    1    2    0    0 -0.40221374309E+02  0.18319217715E+01 -0.16202104017E+02  0.47787273471E+02  0.20000011063E+02 0.  0.
        -12    1    1    2    0    0  0.40221374309E+02 -0.18319217715E+01  0.16202104017E+02  0.43400726529E+02  0.00000000000E+00 0.  1.
         11    1    3    3    0    0 -0.15542399975E+02  0.52791618229E+01 -0.13345770978E+02  0.21155267660E+02  0.51100000000E-03 0. -1.
        -11    1    3    3    0    0 -0.52551065171E+01 -0.13919499760E+01 -0.44631372105E+01  0.70337232859E+01  0.51100000000E-03 0.  1.
        -12    1    3    3    0    0 -0.19423867817E+02 -0.20552900754E+01  0.16068041710E+01  0.19598282524E+02  0.00000000000E+00 0.  1.
</event>
<event>
 7    1  0.4011333E-009  0.4778727E+02  0.7816164E-02  0.1312668E+00
        -11   -1    0    0    0    0  0.00000000000E+00  0.00000000000E+00  0.45593999997E+02  0.45594000000E+02  0.51100000000E-03 0.  1.
         11   -1    0    0    0    0 -0.00000000000E+00 -0.00000000000E+00 -0.45593999997E+02  0.45594000000E+02  0.51100000000E-03 0. -1.
    9900012    2    1    2    0    0  0.32756891841E+02  0.25504790332E+01 -0.28356734164E+02  0.47787270988E+02  0.19999999742E+02 0.  0.
        -12    1    1    2    0    0 -0.32756891841E+02 -0.25504790332E+01  0.28356734164E+02  0.43400729012E+02  0.00000000000E+00 0.  1.
         11    1    3    3    0    0  0.62584672580E+01 -0.50343822887E+01 -0.41386657843E+01  0.90355947332E+01  0.51100000000E-03 0. -1.
        -11    1    3    3    0    0  0.94985908077E+01 -0.21800766942E+01 -0.38416307633E+01  0.10475403997E+02  0.51100000000E-03 0.  1.
         12    1    3    3    0    0  0.16999833775E+02  0.97649380161E+01 -0.20376437616E+02  0.28276272257E+02  0.00000000000E+00 0. -1.
</event>
<event>
 7    1  0.4011333E-009  0.4778726E+02  0.7816164E-02  0.1312668E+00
        -11   -1    0    0    0    0  0.00000000000E+00  0.00000000000E+00  0.45593999997E+02  0.45594000000E+02  0.51100000000E-03 0.  1.
         11   -1    0    0    0    0 -0.00000000000E+00 -0.00000000000E+00 -0.45593999997E+02  0.45594000000E+02  0.51100000000E-03 0. -1.
    9900012    2    1    2    0    0  0.94635353058E+01 -0.15050300457E+02 -0.39592351122E+02  0.47787259088E+02  0.19999945488E+02 0.  0.
        -12    1    1    2    0    0 -0.94635353058E+01  0.15050300457E+02  0.39592351122E+02  0.43400740912E+02  0.00000000000E+00 0.  1.
         11    1    3    3    0    0  0.75858471738E+01 -0.15345322585E+02 -0.26335166148E+02  0.31409631944E+02  0.51100000000E-03 0. -1.
        -11    1    3    3    0    0  0.97733491673E+00 -0.26039929918E+01 -0.41297401289E-02  0.27813630394E+01  0.51100000000E-03 0.  1.
        -12    1    3    3    0    0  0.90035321529E+00  0.28990151198E+01 -0.13253055234E+02  0.13596264105E+02  0.00000000000E+00 0.  1.
</event>
<event>
 7    1  0.4011333E-009  0.4778727E+02  0.7816164E-02  0.1312668E+00
        -11   -1    0    0    0    0  0.00000000000E+00  0.00000000000E+00  0.45593999997E+02  0.45594000000E+02  0.51100000000E-03 0.  1.
         11   -1    0    0    0    0 -0.00000000000E+00 -0.00000000000E+00 -0.45593999997E+02  0.45594000000E+02  0.51100000000E-03 0. -1.
    9900012    2    1    2    0    0  0.10437738476E+02 -0.22195824153E+02 -0.35805337629E+02  0.47787271929E+02  0.20000004033E+02 0.  0.
        -12    1    1    2    0    0 -0.10437738476E+02  0.22195824153E+02  0.35805337629E+02  0.43400728071E+02  0.00000000000E+00 0.  1.
         11    1    3    3    0    0  0.74418645646E+00 -0.14192636860E+02 -0.28105957594E+02  0.31494913987E+02  0.51100000000E-03 0. -1.
        -11    1    3    3    0    0  0.59755711920E+01 -0.63874424676E+01 -0.84588404192E+01  0.12167943698E+02  0.51100000000E-03 0.  1.
         12    1    3    3    0    0  0.37179808276E+01 -0.16157448256E+01  0.75946038404E+00  0.41244142434E+01  0.00000000000E+00 0. -1.
</event>
<event>
 7    1  0.4011333E-009  0.4778726E+02  0.7816164E-02  0.1312668E+00
        -11   -1    0    0    0    0  0.00000000000E+00  0.00000000000E+00  0.45593999997E+02  0.45594000000E+02  0.51100000000E-03 0.  1.
         11   -1    0    0    0    0 -0.00000000000E+00 -0.00000000000E+00 -0.45593999997E+02  0.45594000000E+02  0.51100000000E-03 0. -1.
    9900012    2    1    2    0    0  0.21539902819E+02  0.10002994708E+02 -0.36326258236E+02  0.47787258601E+02  0.19999943264E+02 0.  0.
        -12    1    1    2    0    0 -0.21539902819E+02 -0.10002994708E+02  0.36326258236E+02  0.43400741399E+02  0.00000000000E+00 0.  1.
         11    1    3    3    0    0  0.20082517026E+02  0.90303912714E+01 -0.17421545993E+02  0.28077851087E+02  0.51100000000E-03 0. -1.
        -11    1    3    3    0    0  0.15922485883E+01  0.25369644719E+01 -0.59650061262E+01  0.66747840898E+01  0.51100000000E-03 0.  1.
        -12    1    3    3    0    0 -0.13486279460E+00 -0.15643610355E+01 -0.12939706117E+02  0.13034623424E+02  0.00000000000E+00 0.  1.
</event>
<event>
 7    1  0.4011333E-009  0.4778727E+02  0.7816164E-02  0.1312668E+00
        -11   -1    0    0    0    0  0.00000000000E+00  0.00000000000E+00  0.45593999997E+02  0.45594000000E+02  0.51100000000E-03 0.  1.
         11   -1    0    0    0    0 -0.00000000000E+00 -0.00000000000E+00 -0.45593999997E+02  0.45594000000E+02  0.51100000000E-03 0. -1.
    9900012    2    1    2    0    0 -0.18659725093E+02  0.62128353425E+01 -0.38689002162E+02  0.47787267842E+02  0.19999985398E+02 0.  0.
        -12    1    1    2    0    0  0.18659725093E+02 -0.62128353425E+01  0.38689002162E+02  0.43400732158E+02  0.00000000000E+00 0.  1.
         11    1    3    3    0    0  0.23468626261E+01  0.55121857592E+01 -0.12667314992E+02  0.14012595242E+02  0.51100000000E-03 0. -1.
        -11    1    3    3    0    0 -0.26582810265E+01 -0.39670505868E-01 -0.12470325180E+01  0.29365153033E+01  0.51100000000E-03 0.  1.
        -12    1    3    3    0    0 -0.18348306693E+02  0.74032008911E+00 -0.24774654652E+02  0.30838157297E+02  0.00000000000E+00 0.  1.
</event>
<event>
 7    1  0.4011333E-009  0.4778727E+02  0.7816164E-02  0.1312668E+00
        -11   -1    0    0    0    0  0.00000000000E+00  0.00000000000E+00  0.45593999997E+02  0.45594000000E+02  0.51100000000E-03 0.  1.
         11   -1    0    0    0    0 -0.00000000000E+00 -0.00000000000E+00 -0.45593999997E+02  0.45594000000E+02  0.51100000000E-03 0. -1.
    9900012    2    1    2    0    0 -0.96432328751E+01  0.73845298232E+01 -0.41666536523E+02  0.47787268591E+02  0.19999988813E+02 0.  0.
        -12    1    1    2    0    0  0.96432328751E+01 -0.73845298232E+01  0.41666536523E+02  0.43400731409E+02  0.00000000000E+00 0.  1.
         11    1    3    3    0    0 -0.70623488371E+01  0.38406380138E+01 -0.16585187869E+02  0.18430836344E+02  0.51100000000E-03 0. -1.
        -11    1    3    3    0    0 -0.25665593275E+01  0.13090762852E+01 -0.26534641251E+02  0.26690599357E+02  0.51100000000E-03 0.  1.
        -12    1    3    3    0    0 -0.14324710427E-01  0.22348155242E+01  0.14532925957E+01  0.26658328892E+01  0.00000000000E+00 0.  1.
</event>
<event>
 7    1  0.4011333E-009  0.4778727E+02  0.7816164E-02  0.1312668E+00
        -11   -1    0    0    0    0  0.00000000000E+00  0.00000000000E+00  0.45593999997E+02  0.45594000000E+02  0.51100000000E-03 0. -1.
         11   -1    0    0    0    0 -0.00000000000E+00 -0.00000000000E+00 -0.45593999997E+02  0.45594000000E+02  0.51100000000E-03 0.  1.
    9900012    2    1    2    0    0  0.97562258240E+01  0.30659437852E+02  0.29127969294E+02  0.47787266516E+02  0.19999979353E+02 0.  0.
        -12    1    1    2    0    0 -0.97562258240E+01 -0.30659437852E+02 -0.29127969294E+02  0.43400733484E+02  0.00000000000E+00 0.  1.
         11    1    3    3    0    0  0.72426082767E+01  0.20642997674E+02  0.22377114377E+02  0.31294152421E+02  0.51100000000E-03 0.  1.
        -11    1    3    3    0    0 -0.14680949067E+01  0.33445859577E+01  0.78384413588E+01  0.86477003347E+01  0.51100000000E-03 0. -1.
        -12    1    3    3    0    0  0.39817124540E+01  0.66718542203E+01 -0.10875864419E+01  0.78454137605E+01  0.00000000000E+00 0.  1.
</event>
<event>
 7    1  0.4011333E-009  0.4778727E+02  0.7816164E-02  0.1312668E+00
        -11   -1    0    0    0    0  0.00000000000E+00  0.00000000000E+00  0.45593999997E+02  0.45594000000E+02  0.51100000000E-03 0.  1.
         11   -1    0    0    0    0 -0.00000000000E+00 -0.00000000000E+00 -0.45593999997E+02  0.45594000000E+02  0.51100000000E-03 0. -1.
    9900012    2    1    2    0    0  0.37923979082E+02  0.49197575589E+01 -0.20522935129E+02  0.47787273392E+02  0.20000010703E+02 0.  0.
        -12    1    1    2    0    0 -0.37923979082E+02 -0.49197575589E+01  0.20522935129E+02  0.43400726608E+02  0.00000000000E+00 0.  1.
         11    1    3    3    0    0  0.29226329396E+02  0.65505304609E+00 -0.11214344971E+02  0.31310844094E+02  0.51100000000E-03 0. -1.
        -11    1    3    3    0    0  0.23828698566E+01 -0.26476617778E+01 -0.45560645154E+00  0.35910665746E+01  0.51100000000E-03 0.  1.
        -12    1    3    3    0    0  0.63147798285E+01  0.69123662906E+01 -0.88529837056E+01  0.12885362723E+02  0.00000000000E+00 0.  1.
</event>
<event>
 7    1  0.4011333E-009  0.4778727E+02  0.7816164E-02  0.1312668E+00
        -11   -1    0    0    0    0  0.00000000000E+00  0.00000000000E+00  0.45593999997E+02  0.45594000000E+02  0.51100000000E-03 0. -1.
         11   -1    0    0    0    0 -0.00000000000E+00 -0.00000000000E+00 -0.45593999997E+02  0.45594000000E+02  0.51100000000E-03 0.  1.
    9900012    2    1    2    0    0  0.23535362884E+02  0.31954635138E+02  0.17567333839E+02  0.47787271538E+02  0.20000002249E+02 0.  0.
        -12    1    1    2    0    0 -0.23535362884E+02 -0.31954635138E+02 -0.17567333839E+02  0.43400728462E+02  0.00000000000E+00 0.  1.
         11    1    3    3    0    0  0.40354450034E+01 -0.79690364647E+00  0.34270521777E+01  0.53539292755E+01  0.51100000000E-03 0.  1.
        -11    1    3    3    0    0  0.14573194500E+02  0.24498683074E+02  0.15932807306E+02  0.32656053332E+02  0.51100000000E-03 0. -1.
         12    1    3    3    0    0  0.49267233803E+01  0.82528557106E+01 -0.17925256451E+01  0.97772889307E+01  0.00000000000E+00 0. -1.
</event>
<event>
 7    1  0.4011333E-009  0.4778727E+02  0.7816164E-02  0.1312668E+00
        -11   -1    0    0    0    0  0.00000000000E+00  0.00000000000E+00  0.45593999997E+02  0.45594000000E+02  0.51100000000E-03 0. -1.
         11   -1    0    0    0    0 -0.00000000000E+00 -0.00000000000E+00 -0.45593999997E+02  0.45594000000E+02  0.51100000000E-03 0.  1.
    9900012    2    1    2    0    0  0.22816607182E+02 -0.31907689864E+02  0.18572157294E+02  0.47787271178E+02  0.20000000607E+02 0.  0.
        -12    1    1    2    0    0 -0.22816607182E+02  0.31907689864E+02 -0.18572157294E+02  0.43400728822E+02  0.00000000000E+00 0.  1.
         11    1    3    3    0    0  0.74352665074E+01 -0.57801283589E+01  0.10629392018E+02  0.14201304405E+02  0.51100000000E-03 0. -1.
        -11    1    3    3    0    0 -0.88904597216E+00 -0.78586564977E+01  0.37982115282E+01  0.87735566200E+01  0.51100000000E-03 0.  1.
         12    1    3    3    0    0  0.16270386646E+02 -0.18268905008E+02  0.41445537487E+01  0.24812410153E+02  0.00000000000E+00 0. -1.
</event>
<event>
 7    1  0.4011333E-009  0.4778727E+02  0.7816164E-02  0.1312668E+00
        -11   -1    0    0    0    0  0.00000000000E+00  0.00000000000E+00  0.45593999997E+02  0.45594000000E+02  0.51100000000E-03 0.  1.
         11   -1    0    0    0    0 -0.00000000000E+00 -0.00000000000E+00 -0.45593999997E+02  0.45594000000E+02  0.51100000000E-03 0. -1.
    9900012    2    1    2    0    0 -0.27877306422E+02  0.10144196977E+02 -0.31679241458E+02  0.47787270916E+02  0.19999999416E+02 0.  0.
        -12    1    1    2    0    0  0.27877306422E+02 -0.10144196977E+02  0.31679241458E+02  0.43400729084E+02  0.00000000000E+00 0.  1.
         11    1    3    3    0    0 -0.42957236066E+00  0.30707562313E+01 -0.69734167746E+00  0.31781066567E+01  0.51100000000E-03 0. -1.
        -11    1    3    3    0    0 -0.82057908150E+01  0.58663778088E+00 -0.19770371449E+02  0.21413704357E+02  0.51100000000E-03 0.  1.
         12    1    3    3    0    0 -0.19241943246E+02  0.64868029645E+01 -0.11211528332E+02  0.23195459903E+02  0.00000000000E+00 0. -1.
</event>
<event>
 7    1  0.4011333E-009  0.4778727E+02  0.7816164E-02  0.1312668E+00
        -11   -1    0    0    0    0  0.00000000000E+00  0.00000000000E+00  0.45593999997E+02  0.45594000000E+02  0.51100000000E-03 0. -1.
         11   -1    0    0    0    0 -0.00000000000E+00 -0.00000000000E+00 -0.45593999997E+02  0.45594000000E+02  0.51100000000E-03 0.  1.
    9900012    2    1    2    0    0 -0.41996760747E+02 -0.80898251390E+01  0.73790652402E+01  0.47787265123E+02  0.19999973003E+02 0.  0.
        -12    1    1    2    0    0  0.41996760747E+02  0.80898251390E+01 -0.73790652402E+01  0.43400734877E+02  0.00000000000E+00 0.  1.
         11    1    3    3    0    0 -0.47065404875E+01 -0.36056433907E+01  0.35889145520E+01  0.69305479974E+01  0.51100000000E-03 0. -1.
        -11    1    3    3    0    0 -0.40415288234E-01 -0.34124776927E+01  0.44628988198E+00  0.34417745886E+01  0.51100000000E-03 0.  1.
         12    1    3    3    0    0 -0.37249804971E+02 -0.10717040557E+01  0.33438608062E+01  0.37414942537E+02  0.00000000000E+00 0. -1.
</event>
<event>
 7    1  0.4011333E-009  0.4778727E+02  0.7816164E-02  0.1312668E+00
        -11   -1    0    0    0    0  0.00000000000E+00  0.00000000000E+00  0.45593999997E+02  0.45594000000E+02  0.51100000000E-03 0. -1.
         11   -1    0    0    0    0 -0.00000000000E+00 -0.00000000000E+00 -0.45593999997E+02  0.45594000000E+02  0.51100000000E-03 0.  1.
    9900012    2    1    2    0    0  0.15330207603E+02  0.37295713784E+01  0.40431404882E+02  0.47787268801E+02  0.19999989772E+02 0.  0.
        -12    1    1    2    0    0 -0.15330207603E+02 -0.37295713784E+01 -0.40431404882E+02  0.43400731199E+02  0.00000000000E+00 0.  1.
         11    1    3    3    0    0  0.71862315602E+01  0.21673579597E+01  0.10601024571E+02  0.12989268139E+02  0.51100000000E-03 0. -1.
        -11    1    3    3    0    0  0.12574051266E+02  0.19259276271E+01  0.17090539766E+02  0.21304987965E+02  0.51100000000E-03 0.  1.
         12    1    3    3    0    0 -0.44300752233E+01 -0.36371420836E+00  0.12739840546E+02  0.13493012697E+02  0.00000000000E+00 0. -1.
</event>
<event>
 7    1  0.4011333E-009  0.4778727E+02  0.7816164E-02  0.1312668E+00
        -11   -1    0    0    0    0  0.00000000000E+00  0.00000000000E+00  0.45593999997E+02  0.45594000000E+02  0.51100000000E-03 0.  1.
         11   -1    0    0    0    0 -0.00000000000E+00 -0.00000000000E+00 -0.45593999997E+02  0.45594000000E+02  0.51100000000E-03 0. -1.
    9900012    2    1    2    0    0  0.31021670070E+02  0.38114644437E+01 -0.30112323281E+02  0.47787270876E+02  0.19999999232E+02 0.  0.
        -12    1    1    2    0    0 -0.31021670070E+02 -0.38114644437E+01  0.30112323281E+02  0.43400729124E+02  0.00000000000E+00 0.  1.
         11    1    3    3    0    0  0.71435734707E+01  0.63791782968E+01 -0.25184526093E+01  0.99028865226E+01  0.51100000000E-03 0. -1.
        -11    1    3    3    0    0  0.71435058917E+00 -0.15437407676E+01  0.17291962622E+00  0.17097759444E+01  0.51100000000E-03 0.  1.
        -12    1    3    3    0    0  0.23163746010E+02 -0.10239730855E+01 -0.27766790297E+02  0.36174608409E+02  0.00000000000E+00 0.  1.
</event>
<event>
 7    1  0.4011333E-009  0.4778730E+02  0.7816164E-02  0.1312668E+00
        -11   -1    0    0    0    0  0.00000000000E+00  0.00000000000E+00  0.45593999997E+02  0.45594000000E+02  0.51100000000E-03 0.  1.
         11   -1    0    0    0    0 -0.00000000000E+00 -0.00000000000E+00 -0.45593999997E+02  0.45594000000E+02  0.51100000000E-03 0. -1.
    9900012    2    1    2    0    0 -0.37571511738E+02  0.20619688749E+02 -0.68432942869E+01  0.47787300293E+02  0.20000133353E+02 0.  0.
        -12    1    1    2    0    0  0.37571511738E+02 -0.20619688749E+02  0.68432942869E+01  0.43400699707E+02  0.00000000000E+00 0.  1.
         11    1    3    3    0    0 -0.30453786173E+02  0.12435220465E+02 -0.10764160853E+02  0.34611197024E+02  0.51100000000E-03 0. -1.
        -11    1    3    3    0    0 -0.20808266955E+01 -0.80448906071E+00  0.28299283421E+00  0.22488058144E+01  0.51100000000E-03 0.  1.
         12    1    3    3    0    0 -0.50368988694E+01  0.89889573442E+01  0.36378737320E+01  0.10927297454E+02  0.00000000000E+00 0. -1.
</event>
<event>
 7    1  0.4011333E-009  0.4778727E+02  0.7816164E-02  0.1312668E+00
        -11   -1    0    0    0    0  0.00000000000E+00  0.00000000000E+00  0.45593999997E+02  0.45594000000E+02  0.51100000000E-03 0. -1.
         11   -1    0    0    0    0 -0.00000000000E+00 -0.00000000000E+00 -0.45593999997E+02  0.45594000000E+02  0.51100000000E-03 0.  1.
    9900012    2    1    2    0    0  0.17535563912E+02 -0.15595581513E+02  0.36508970219E+02  0.47787273383E+02  0.20000010663E+02 0.  0.
        -12    1    1    2    0    0 -0.17535563912E+02  0.15595581513E+02 -0.36508970219E+02  0.43400726617E+02  0.00000000000E+00 0.  1.
         11    1    3    3    0    0  0.83783033902E+00  0.28719085531E+01  0.29731297247E+00  0.30063622002E+01  0.51100000000E-03 0.  1.
        -11    1    3    3    0    0  0.43193780759E+01 -0.11085481153E+02  0.15229916085E+02  0.19326025551E+02  0.51100000000E-03 0. -1.
        -12    1    3    3    0    0  0.12378355497E+02 -0.73820089125E+01  0.20981741161E+02  0.25454885632E+02  0.00000000000E+00 0.  1.
</event>
<event>
 7    1  0.4011333E-009  0.4778727E+02  0.7816164E-02  0.1312668E+00
        -11   -1    0    0    0    0  0.00000000000E+00  0.00000000000E+00  0.45593999997E+02  0.45594000000E+02  0.51100000000E-03 0. -1.
         11   -1    0    0    0    0 -0.00000000000E+00 -0.00000000000E+00 -0.45593999997E+02  0.45594000000E+02  0.51100000000E-03 0.  1.
    9900012    2    1    2    0    0 -0.37580960232E+02 -0.63366449184E+01  0.20763956025E+02  0.47787268317E+02  0.19999987566E+02 0.  0.
        -12    1    1    2    0    0  0.37580960232E+02  0.63366449184E+01 -0.20763956025E+02  0.43400731683E+02  0.00000000000E+00 0.  1.
         11    1    3    3    0    0 -0.20437827106E+02 -0.88228036369E+01  0.12524086677E+02  0.25542110097E+02  0.51100000000E-03 0. -1.
        -11    1    3    3    0    0 -0.17231857610E+02  0.25070348515E-01  0.45734967278E+01  0.17828472111E+02  0.51100000000E-03 0.  1.
        -12    1    3    3    0    0  0.88724484604E-01  0.24610883700E+01  0.36663726208E+01  0.44166861100E+01  0.00000000000E+00 0.  1.
</event>
<event>
 7    1  0.4011333E-009  0.4778724E+02  0.7816164E-02  0.1312668E+00
        -11   -1    0    0    0    0  0.00000000000E+00  0.00000000000E+00  0.45593999997E+02  0.45594000000E+02  0.51100000000E-03 0.  1.
         11   -1    0    0    0    0 -0.00000000000E+00 -0.00000000000E+00 -0.45593999997E+02  0.45594000000E+02  0.51100000000E-03 0. -1.
    9900012    2    1    2    0    0  0.26170323842E+02  0.15698942594E+02 -0.30859090540E+02  0.47787238284E+02  0.19999850631E+02 0.  0.
        -12    1    1    2    0    0 -0.26170323842E+02 -0.15698942594E+02  0.30859090540E+02  0.43400761716E+02  0.00000000000E+00 0.  1.
         11    1    3    3    0    0  0.11051566271E+02  0.46562739322E+00 -0.82055613038E+01  0.13772623660E+02  0.51100000000E-03 0. -1.
        -11    1    3    3    0    0  0.16812012656E+02  0.10228167361E+02 -0.15138967957E+02  0.24828361367E+02  0.51100000000E-03 0.  1.
        -12    1    3    3    0    0 -0.16932550844E+01  0.50051478404E+01 -0.75145612798E+01  0.91862532576E+01  0.00000000000E+00 0.  1.
</event>
<event>
 7    1  0.5713421E-009  0.4778728E+02  0.7816164E-02  0.1312668E+00
        -11   -1    0    0    0    0  0.00000000000E+00  0.00000000000E+00  0.45593999997E+02  0.45594000000E+02  0.51100000000E-03 0. -1.
         11   -1    0    0    0    0 -0.00000000000E+00 -0.00000000000E+00 -0.45593999997E+02  0.45594000000E+02  0.51100000000E-03 0.  1.
    9900012    2    1    2    0    0 -0.15469218855E+02 -0.13446940550E+02  0.38255790661E+02  0.47787280406E+02  0.20000042683E+02 0.  0.
        -12    1    1    2    0    0  0.15469218855E+02  0.13446940550E+02 -0.38255790661E+02  0.43400719594E+02  0.00000000000E+00 0.  1.
         11    1    3    3    0    0 -0.67430527712E+01 -0.28557162928E+01  0.13034844001E+02  0.14950954305E+02  0.51100000000E-03 0. -1.
        -11    1    3    3    0    0  0.18367097033E+01  0.23713096384E+01  0.92083751200E+01  0.96845642415E+01  0.51100000000E-03 0.  1.
        -12    1    3    3    0    0 -0.10562875787E+02 -0.12962533896E+02  0.16012571540E+02  0.23151761860E+02  0.00000000000E+00 0.  1.
</event>
<event>
 7    1  0.4011333E-009  0.4778727E+02  0.7816164E-02  0.1312668E+00
        -11   -1    0    0    0    0  0.00000000000E+00  0.00000000000E+00  0.45593999997E+02  0.45594000000E+02  0.51100000000E-03 0.  1.
         11   -1    0    0    0    0 -0.00000000000E+00 -0.00000000000E+00 -0.45593999997E+02  0.45594000000E+02  0.51100000000E-03 0. -1.
    9900012    2    1    2    0    0 -0.83159330698E+01  0.30890985618E+02 -0.29329432159E+02  0.47787270444E+02  0.19999997261E+02 0.  0.
        -12    1    1    2    0    0  0.83159330698E+01 -0.30890985618E+02  0.29329432159E+02  0.43400729556E+02  0.00000000000E+00 0.  1.
         11    1    3    3    0    0 -0.48498391054E+01  0.24997872224E+02 -0.16777032885E+02  0.30493989371E+02  0.51100000000E-03 0. -1.
        -11    1    3    3    0    0 -0.48309660265E+01  0.33933669655E+01 -0.18028022381E+01  0.61727844837E+01  0.51100000000E-03 0.  1.
         12    1    3    3    0    0  0.13648720621E+01  0.24997464280E+01 -0.10749597036E+02  0.11120496589E+02  0.00000000000E+00 0. -1.
</event>
<event>
 7    1  0.4011333E-009  0.4778727E+02  0.7816164E-02  0.1312668E+00
        -11   -1    0    0    0    0  0.00000000000E+00  0.00000000000E+00  0.45593999997E+02  0.45594000000E+02  0.51100000000E-03 0. -1.
         11   -1    0    0    0    0 -0.00000000000E+00 -0.00000000000E+00 -0.45593999997E+02  0.45594000000E+02  0.51100000000E-03 0.  1.
    9900012    2    1    2    0    0  0.37187898472E+02 -0.21230354389E+02  0.70679043469E+01  0.47787274060E+02  0.20000013750E+02 0.  0.
        -12    1    1    2    0    0 -0.37187898472E+02  0.21230354389E+02 -0.70679043469E+01  0.43400725940E+02  0.00000000000E+00 0.  1.
         11    1    3    3    0    0  0.12300747783E+02 -0.15376071233E+02  0.24118541163E+01  0.19838069541E+02  0.51100000000E-03 0. -1.
        -11    1    3    3    0    0  0.73783053581E+01 -0.35626386130E+01  0.61254390637E+01  0.10229994517E+02  0.51100000000E-03 0.  1.
         12    1    3    3    0    0  0.17508845331E+02 -0.22916445426E+01 -0.14693888331E+01  0.17719210001E+02  0.00000000000E+00 0. -1.
</event>
<event>
 7    1  0.4011333E-009  0.4778727E+02  0.7816164E-02  0.1312668E+00
        -11   -1    0    0    0    0  0.00000000000E+00  0.00000000000E+00  0.45593999997E+02  0.45594000000E+02  0.51100000000E-03 0.  1.
         11   -1    0    0    0    0 -0.00000000000E+00 -0.00000000000E+00 -0.45593999997E+02  0.45594000000E+02  0.51100000000E-03 0. -1.
    9900012    2    1    2    0    0  0.23262194351E+02  0.20792695825E+01 -0.36581009126E+02  0.47787271012E+02  0.19999999850E+02 0.  0.
        -12    1    1    2    0    0 -0.23262194351E+02 -0.20792695825E+01  0.36581009126E+02  0.43400728988E+02  0.00000000000E+00 0.  1.
         11    1    3    3    0    0  0.50619402046E+01 -0.46257648521E+01 -0.11995503010E+02  0.13817128205E+02  0.51100000000E-03 0. -1.
        -11    1    3    3    0    0  0.11689223512E+01 -0.66252839259E+00  0.14639008065E+01  0.19870403032E+01  0.51100000000E-03 0.  1.
        -12    1    3    3    0    0  0.17031331795E+02  0.73675628272E+01 -0.26049406923E+02  0.31983102504E+02  0.00000000000E+00 0.  1.
</event>
<event>
 7    1  0.4011333E-009  0.4778728E+02  0.7816164E-02  0.1312668E+00
        -11   -1    0    0    0    0  0.00000000000E+00  0.00000000000E+00  0.45593999997E+02  0.45594000000E+02  0.51100000000E-03 0.  1.
         11   -1    0    0    0    0 -0.00000000000E+00 -0.00000000000E+00 -0.45593999997E+02  0.45594000000E+02  0.51100000000E-03 0. -1.
    9900012    2    1    2    0    0  0.11963145248E+02 -0.21866799911E+02 -0.35529545848E+02  0.47787280988E+02  0.20000045338E+02 0.  0.
        -12    1    1    2    0    0 -0.11963145248E+02  0.21866799911E+02  0.35529545848E+02  0.43400719012E+02  0.00000000000E+00 0.  1.
         11    1    3    3    0    0 -0.23093009600E+01 -0.89878277862E+01 -0.88540931902E+01  0.12826101735E+02  0.51100000000E-03 0. -1.
        -11    1    3    3    0    0  0.10056016596E+02 -0.55624588505E+01 -0.67681428200E+01  0.13336872787E+02  0.51100000000E-03 0.  1.
         12    1    3    3    0    0  0.42164296113E+01 -0.73165132740E+01 -0.19907309838E+02  0.21624306466E+02  0.00000000000E+00 0. -1.
</event>
<event>
 7    1  0.4011333E-009  0.4778727E+02  0.7816164E-02  0.1312668E+00
        -11   -1    0    0    0    0  0.00000000000E+00  0.00000000000E+00  0.45593999997E+02  0.45594000000E+02  0.51100000000E-03 0.  1.
         11   -1    0    0    0    0 -0.00000000000E+00 -0.00000000000E+00 -0.45593999997E+02  0.45594000000E+02  0.51100000000E-03 0. -1.
    9900012    2    1    2    0    0  0.19209041535E+02 -0.24077314300E+02 -0.30576444353E+02  0.47787270860E+02  0.19999999159E+02 0.  0.
        -12    1    1    2    0    0 -0.19209041535E+02  0.24077314300E+02  0.30576444353E+02  0.43400729140E+02  0.00000000000E+00 0.  1.
         11    1    3    3    0    0  0.86427121997E+01 -0.53311120247E+01 -0.64463894485E+01  0.12028015912E+02  0.51100000000E-03 0. -1.
        -11    1    3    3    0    0  0.68205938272E+01 -0.19667287456E+02 -0.14453407413E+02  0.25342132549E+02  0.51100000000E-03 0.  1.
        -12    1    3    3    0    0  0.37457355081E+01  0.92108518058E+00 -0.96766474914E+01  0.10417122399E+02  0.00000000000E+00 0.  1.
</event>
<event>
 7    1  0.4011333E-009  0.4778727E+02  0.7816164E-02  0.1312668E+00
        -11   -1    0    0    0    0  0.00000000000E+00  0.00000000000E+00  0.45593999997E+02  0.45594000000E+02  0.51100000000E-03 0.  1.
         11   -1    0    0    0    0 -0.00000000000E+00 -0.00000000000E+00 -0.45593999997E+02  0.45594000000E+02  0.51100000000E-03 0. -1.
    9900012    2    1    2    0    0  0.16695826592E+00 -0.29124895080E+02 -0.32176636037E+02  0.47787270799E+02  0.19999998882E+02 0.  0.
        -12    1    1    2    0    0 -0.16695826592E+00  0.29124895080E+02  0.32176636037E+02  0.43400729201E+02  0.00000000000E+00 0.  1.
         11    1    3    3    0    0 -0.21627621924E+00 -0.13749781666E+02 -0.16043198134E+02  0.21130250304E+02  0.51100000000E-03 0. -1.
        -11    1    3    3    0    0 -0.13333797967E+01 -0.15162153752E+02 -0.59735054782E+01  0.16350889151E+02  0.51100000000E-03 0.  1.
         12    1    3    3    0    0  0.17166142819E+01 -0.21295966239E+00 -0.10159932425E+02  0.10306131345E+02  0.00000000000E+00 0. -1.
</event>
<event>
 7    1  0.4011333E-009  0.4778727E+02  0.7816164E-02  0.1312668E+00
        -11   -1    0    0    0    0  0.00000000000E+00  0.00000000000E+00  0.45593999997E+02  0.45594000000E+02  0.51100000000E-03 0.  1.
         11   -1    0    0    0    0 -0.00000000000E+00 -0.00000000000E+00 -0.45593999997E+02  0.45594000000E+02  0.51100000000E-03 0. -1.
    9900012    2    1    2    0    0 -0.16956730639E+02 -0.38499266994E+02 -0.10672344427E+02  0.47787271796E+02  0.20000003427E+02 0.  0.
        -12    1    1    2    0    0  0.16956730639E+02  0.38499266994E+02  0.10672344427E+02  0.43400728204E+02  0.00000000000E+00 0.  1.
         11    1    3    3    0    0 -0.10018612329E+02 -0.77774588225E+01  0.34884746994E+00  0.12687913680E+02  0.51100000000E-03 0. -1.
        -11    1    3    3    0    0 -0.11819886712E+01  0.49130523073E+00 -0.14802100174E+01  0.19569108323E+01  0.51100000000E-03 0.  1.
         12    1    3    3    0    0 -0.57561296384E+01 -0.31213113403E+02 -0.95409818793E+01  0.33142447283E+02  0.00000000000E+00 0. -1.
</event>
<event>
 7    1  0.4011333E-009  0.4778727E+02  0.7816164E-02  0.1312668E+00
        -11   -1    0    0    0    0  0.00000000000E+00  0.00000000000E+00  0.45593999997E+02  0.45594000000E+02  0.51100000000E-03 0.  1.
         11   -1    0    0    0    0 -0.00000000000E+00 -0.00000000000E+00 -0.45593999997E+02  0.45594000000E+02  0.51100000000E-03 0. -1.
    9900012    2    1    2    0    0 -0.10415172270E+02 -0.18522402654E+02 -0.37842673275E+02  0.47787272655E+02  0.20000007341E+02 0.  0.
        -12    1    1    2    0    0  0.10415172270E+02  0.18522402654E+02  0.37842673275E+02  0.43400727345E+02  0.00000000000E+00 0.  1.
         11    1    3    3    0    0 -0.13858610913E+01  0.16514700001E+00  0.10064411627E+01  0.17207000235E+01  0.51100000000E-03 0. -1.
        -11    1    3    3    0    0 -0.16524095768E+01  0.21153122611E+01 -0.42042781164E+01  0.49880816064E+01  0.51100000000E-03 0.  1.
         12    1    3    3    0    0 -0.73769016020E+01 -0.20802861915E+02 -0.34644836321E+02  0.41078491025E+02  0.00000000000E+00 0. -1.
</event>
<event>
 7    1  0.4011333E-009  0.4778722E+02  0.7816164E-02  0.1312668E+00
        -11   -1    0    0    0    0  0.00000000000E+00  0.00000000000E+00  0.45593999997E+02  0.45594000000E+02  0.51100000000E-03 0.  1.
         11   -1    0    0    0    0 -0.00000000000E+00 -0.00000000000E+00 -0.45593999997E+02  0.45594000000E+02  0.51100000000E-03 0. -1.
    9900012    2    1    2    0    0 -0.13571541528E+02 -0.15313932434E+02 -0.38274327512E+02  0.47787223365E+02  0.19999782611E+02 0.  0.
        -12    1    1    2    0    0  0.13571541528E+02  0.15313932434E+02  0.38274327512E+02  0.43400776635E+02  0.00000000000E+00 0.  1.
         11    1    3    3    0    0 -0.14107877937E+01  0.14773275163E+00 -0.49945695797E+01  0.51920971401E+01  0.51100000000E-03 0.  1.
        -11    1    3    3    0    0  0.16094728053E+01 -0.10601013964E+02 -0.20736619236E+02  0.23344791226E+02  0.51100000000E-03 0. -1.
         12    1    3    3    0    0 -0.13770226539E+02 -0.48606512215E+01 -0.12543138695E+02  0.19250334999E+02  0.00000000000E+00 0. -1.
</event>
<event>
 7    1  0.4011333E-009  0.4778727E+02  0.7816164E-02  0.1312668E+00
        -11   -1    0    0    0    0  0.00000000000E+00  0.00000000000E+00  0.45593999997E+02  0.45594000000E+02  0.51100000000E-03 0.  1.
         11   -1    0    0    0    0 -0.00000000000E+00 -0.00000000000E+00 -0.45593999997E+02  0.45594000000E+02  0.51100000000E-03 0. -1.
    9900012    2    1    2    0    0 -0.36392441674E+02  0.28138251081E+00 -0.23646023692E+02  0.47787269320E+02  0.19999992137E+02 0.  0.
        -12    1    1    2    0    0  0.36392441674E+02 -0.28138251081E+00  0.23646023692E+02  0.43400730680E+02  0.00000000000E+00 0.  1.
         11    1    3    3    0    0 -0.55643557826E+01 -0.62509256687E+00 -0.50368120786E+01  0.75314190010E+01  0.51100000000E-03 0. -1.
        -11    1    3    3    0    0 -0.38950738526E+01 -0.45195895567E+01  0.15673451419E+01  0.61688622235E+01  0.51100000000E-03 0.  1.
        -12    1    3    3    0    0 -0.26933012039E+02  0.54260646344E+01 -0.20176556755E+02  0.34086988095E+02  0.00000000000E+00 0.  1.
</event>
<event>
 7    1  0.4011333E-009  0.4778728E+02  0.7816164E-02  0.1312668E+00
        -11   -1    0    0    0    0  0.00000000000E+00  0.00000000000E+00  0.45593999997E+02  0.45594000000E+02  0.51100000000E-03 0.  1.
         11   -1    0    0    0    0 -0.00000000000E+00 -0.00000000000E+00 -0.45593999997E+02  0.45594000000E+02  0.51100000000E-03 0. -1.
    9900012    2    1    2    0    0  0.47728147126E+00  0.34611143613E+02 -0.26181363344E+02  0.47787275970E+02  0.20000022458E+02 0.  0.
        -12    1    1    2    0    0 -0.47728147126E+00 -0.34611143613E+02  0.26181363344E+02  0.43400724030E+02  0.00000000000E+00 0.  1.
         11    1    3    3    0    0 -0.16960515404E+01  0.32249034846E+02 -0.16094302451E+02  0.36081898661E+02  0.51100000000E-03 0. -1.
        -11    1    3    3    0    0 -0.41623492579E+00  0.13162314402E+01 -0.15619876777E+00  0.13892857999E+01  0.51100000000E-03 0.  1.
        -12    1    3    3    0    0  0.25895679374E+01  0.10458773260E+01 -0.99308621245E+01  0.10316091509E+02  0.00000000000E+00 0.  1.
</event>
<event>
 7    1  0.4011333E-009  0.4778727E+02  0.7816164E-02  0.1312668E+00
        -11   -1    0    0    0    0  0.00000000000E+00  0.00000000000E+00  0.45593999997E+02  0.45594000000E+02  0.51100000000E-03 0. -1.
         11   -1    0    0    0    0 -0.00000000000E+00 -0.00000000000E+00 -0.45593999997E+02  0.45594000000E+02  0.51100000000E-03 0.  1.
    9900012    2    1    2    0    0 -0.48411443259E+01  0.15881439666E+02  0.40099455280E+02  0.47787272840E+02  0.20000008186E+02 0.  0.
        -12    1    1    2    0    0  0.48411443259E+01 -0.15881439666E+02 -0.40099455280E+02  0.43400727160E+02  0.00000000000E+00 0.  1.
         11    1    3    3    0    0  0.20122599672E+01 -0.31881313041E+01  0.86275530024E+01  0.94153089412E+01  0.51100000000E-03 0. -1.
        -11    1    3    3    0    0 -0.50428749518E+01  0.32077495563E+01  0.91300259614E+01  0.10912269210E+02  0.51100000000E-03 0.  1.
         12    1    3    3    0    0 -0.18105293413E+01  0.15861821414E+02  0.22341876316E+02  0.27459694689E+02  0.00000000000E+00 0. -1.
</event>
<event>
 7    1  0.4011333E-009  0.4778726E+02  0.7816164E-02  0.1312668E+00
        -11   -1    0    0    0    0  0.00000000000E+00  0.00000000000E+00  0.45593999997E+02  0.45594000000E+02  0.51100000000E-03 0.  1.
         11   -1    0    0    0    0 -0.00000000000E+00 -0.00000000000E+00 -0.45593999997E+02  0.45594000000E+02  0.51100000000E-03 0. -1.
    9900012    2    1    2    0    0 -0.70812246916E+01 -0.21575480447E+02 -0.36986197731E+02  0.47787263575E+02  0.19999965942E+02 0.  0.
        -12    1    1    2    0    0  0.70812246916E+01  0.21575480447E+02  0.36986197731E+02  0.43400736425E+02  0.00000000000E+00 0.  1.
         11    1    3    3    0    0 -0.67894593191E+01 -0.74715645052E+01 -0.23579690551E+02  0.25650006642E+02  0.51100000000E-03 0. -1.
        -11    1    3    3    0    0 -0.29089635695E+01 -0.55955080953E+01 -0.11375472736E+02  0.13006658299E+02  0.51100000000E-03 0.  1.
        -12    1    3    3    0    0  0.26171981970E+01 -0.85084078466E+01 -0.20310344444E+01  0.91305986333E+01  0.00000000000E+00 0.  1.
</event>
<event>
 7    1  0.4011333E-009  0.4778722E+02  0.7816164E-02  0.1312668E+00
        -11   -1    0    0    0    0  0.00000000000E+00  0.00000000000E+00  0.45593999997E+02  0.45594000000E+02  0.51100000000E-03 0. -1.
         11   -1    0    0    0    0 -0.00000000000E+00 -0.00000000000E+00 -0.45593999997E+02  0.45594000000E+02  0.51100000000E-03 0.  1.
    9900012    2    1    2    0    0 -0.90868073965E+01 -0.23949120792E+02  0.35035655717E+02  0.47787220895E+02  0.19999771347E+02 0.  0.
        -12    1    1    2    0    0  0.90868073965E+01  0.23949120792E+02 -0.35035655717E+02  0.43400779105E+02  0.00000000000E+00 0.  1.
         11    1    3    3    0    0  0.39097081492E+00 -0.17936724571E+01  0.15488290717E+02  0.15596706981E+02  0.51100000000E-03 0.  1.
        -11    1    3    3    0    0 -0.62595852529E+00 -0.77996910173E+01  0.10366587317E+02  0.12988192210E+02  0.51100000000E-03 0. -1.
        -12    1    3    3    0    0 -0.88518196862E+01 -0.14355757318E+02  0.91807776836E+01  0.19202321703E+02  0.00000000000E+00 0.  1.
</event>
<event>
 7    1  0.4011333E-009  0.4778728E+02  0.7816164E-02  0.1312668E+00
        -11   -1    0    0    0    0  0.00000000000E+00  0.00000000000E+00  0.45593999997E+02  0.45594000000E+02  0.51100000000E-03 0.  1.
         11   -1    0    0    0    0 -0.00000000000E+00 -0.00000000000E+00 -0.45593999997E+02  0.45594000000E+02  0.51100000000E-03 0. -1.
    9900012    2    1    2    0    0 -0.27214040883E+01 -0.23853610620E+02 -0.36155524493E+02  0.47787277296E+02  0.20000028503E+02 0.  0.
        -12    1    1    2    0    0  0.27214040883E+01  0.23853610620E+02  0.36155524493E+02  0.43400722704E+02  0.00000000000E+00 0.  1.
         11    1    3    3    0    0 -0.42896018158E+01 -0.50877323275E+01 -0.19831695333E+02  0.20918457018E+02  0.51100000000E-03 0. -1.
        -11    1    3    3    0    0 -0.92558885959E+00 -0.15550568497E+01 -0.68092806159E+01  0.70456525113E+01  0.51100000000E-03 0.  1.
        -12    1    3    3    0    0  0.24937865871E+01 -0.17210821443E+02 -0.95145485445E+01  0.19823167766E+02  0.00000000000E+00 0.  1.
</event>
<event>
 7    1  0.4011333E-009  0.4778727E+02  0.7816164E-02  0.1312668E+00
        -11   -1    0    0    0    0  0.00000000000E+00  0.00000000000E+00  0.45593999997E+02  0.45594000000E+02  0.51100000000E-03 0.  1.
         11   -1    0    0    0    0 -0.00000000000E+00 -0.00000000000E+00 -0.45593999997E+02  0.45594000000E+02  0.51100000000E-03 0. -1.
    9900012    2    1    2    0    0 -0.25771446821E+02  0.49819586283E+01 -0.34563507101E+02  0.47787269520E+02  0.19999993050E+02 0.  0.
        -12    1    1    2    0    0  0.25771446821E+02 -0.49819586283E+01  0.34563507101E+02  0.43400730480E+02  0.00000000000E+00 0.  1.
         11    1    3    3    0    0 -0.23660174364E+02  0.55610310683E+01 -0.28391399301E+02  0.37373793921E+02  0.51100000000E-03 0. -1.
        -11    1    3    3    0    0 -0.26763462919E+01  0.31563151753E+01 -0.14923686388E+01  0.43991271151E+01  0.51100000000E-03 0.  1.
        -12    1    3    3    0    0  0.56507383473E+00 -0.37353876152E+01 -0.46797391612E+01  0.60143484844E+01  0.00000000000E+00 0.  1.
</event>
<event>
 7    1  0.4011333E-009  0.4778727E+02  0.7816164E-02  0.1312668E+00
        -11   -1    0    0    0    0  0.00000000000E+00  0.00000000000E+00  0.45593999997E+02  0.45594000000E+02  0.51100000000E-03 0. -1.
         11   -1    0    0    0    0 -0.00000000000E+00 -0.00000000000E+00 -0.45593999997E+02  0.45594000000E+02  0.51100000000E-03 0.  1.
    9900012    2    1    2    0    0 -0.13076202688E+02 -0.17303831302E+02  0.37592736917E+02  0.47787268170E+02  0.19999986896E+02 0.  0.
        -12    1    1    2    0    0  0.13076202688E+02  0.17303831302E+02 -0.37592736917E+02  0.43400731830E+02  0.00000000000E+00 0.  1.
         11    1    3    3    0    0  0.11271405719E+01  0.44611607504E+00  0.52785264683E+01  0.54159308857E+01  0.51100000000E-03 0.  1.
        -11    1    3    3    0    0 -0.27947459017E+01 -0.12054754590E+02  0.24414526531E+02  0.27371459934E+02  0.51100000000E-03 0. -1.
        -12    1    3    3    0    0 -0.11408597358E+02 -0.56951927869E+01  0.78996839168E+01  0.14999877351E+02  0.00000000000E+00 0.  1.
</event>
<event>
 7    1  0.4011333E-009  0.4778727E+02  0.7816164E-02  0.1312668E+00
        -11   -1    0    0    0    0  0.00000000000E+00  0.00000000000E+00  0.45593999997E+02  0.45594000000E+02  0.51100000000E-03 0.  1.
         11   -1    0    0    0    0 -0.00000000000E+00 -0.00000000000E+00 -0.45593999997E+02  0.45594000000E+02  0.51100000000E-03 0. -1.
    9900012    2    1    2    0    0 -0.86246197427E+01 -0.41767673242E+02 -0.80436719086E+01  0.47787271302E+02  0.20000001172E+02 0.  0.
        -12    1    1    2    0    0  0.86246197427E+01  0.41767673242E+02  0.80436719086E+01  0.43400728698E+02  0.00000000000E+00 0.  1.
         11    1    3    3    0    0 -0.95958109166E+01 -0.16725896944E+02 -0.43297792219E+00  0.19287889617E+02  0.51100000000E-03 0.  1.
        -11    1    3    3    0    0 -0.46767789863E+01 -0.16842050722E+02 -0.42235979270E+01  0.17982372311E+02  0.51100000000E-03 0. -1.
        -12    1    3    3    0    0  0.56479701602E+01 -0.81997255761E+01 -0.33870960594E+01  0.10517009374E+02  0.00000000000E+00 0.  1.
</event>
<event>
 7    1  0.4011333E-009  0.4778726E+02  0.7816164E-02  0.1312668E+00
        -11   -1    0    0    0    0  0.00000000000E+00  0.00000000000E+00  0.45593999997E+02  0.45594000000E+02  0.51100000000E-03 0.  1.
         11   -1    0    0    0    0 -0.00000000000E+00 -0.00000000000E+00 -0.45593999997E+02  0.45594000000E+02  0.51100000000E-03 0. -1.
    9900012    2    1    2    0    0 -0.26055681191E+02 -0.24856517531E+02 -0.24225586707E+02  0.47787262248E+02  0.19999959894E+02 0.  0.
        -12    1    1    2    0    0  0.26055681191E+02  0.24856517531E+02  0.24225586707E+02  0.43400737752E+02  0.00000000000E+00 0.  1.
         11    1    3    3    0    0 -0.11199791300E+02 -0.11237823622E+02 -0.93407672680E+01  0.18411244889E+02  0.51100000000E-03 0. -1.
        -11    1    3    3    0    0 -0.17155412096E+02 -0.98814742125E+01 -0.15224721878E+02  0.24974864431E+02  0.51100000000E-03 0.  1.
         12    1    3    3    0    0  0.22995222053E+01 -0.37372196965E+01  0.33990243917E+00  0.44011529286E+01  0.00000000000E+00 0. -1.
</event>
<event>
 7    1  0.4011333E-009  0.4778727E+02  0.7816164E-02  0.1312668E+00
        -11   -1    0    0    0    0  0.00000000000E+00  0.00000000000E+00  0.45593999997E+02  0.45594000000E+02  0.51100000000E-03 0. -1.
         11   -1    0    0    0    0 -0.00000000000E+00 -0.00000000000E+00 -0.45593999997E+02  0.45594000000E+02  0.51100000000E-03 0.  1.
    9900012    2    1    2    0    0  0.11841017961E+02 -0.41754197912E+02 -0.18989334456E-01  0.47787272930E+02  0.20000008597E+02 0.  0.
        -12    1    1    2    0    0 -0.11841017961E+02  0.41754197912E+02  0.18989334456E-01  0.43400727070E+02  0.00000000000E+00 0.  1.
         11    1    3    3    0    0  0.44475457242E+01 -0.21608587384E+02 -0.29001623319E+01  0.22251351723E+02  0.51100000000E-03 0. -1.
        -11    1    3    3    0    0  0.57201775776E+01 -0.22083405504E+02  0.26324266471E+01  0.22963599467E+02  0.51100000000E-03 0.  1.
        -12    1    3    3    0    0  0.16732946589E+01  0.19377949761E+01  0.24874635033E+00  0.25723217396E+01  0.00000000000E+00 0.  1.
</event>
<event>
 7    1  0.4011333E-009  0.4778727E+02  0.7816164E-02  0.1312668E+00
        -11   -1    0    0    0    0  0.00000000000E+00  0.00000000000E+00  0.45593999997E+02  0.45594000000E+02  0.51100000000E-03 0.  1.
         11   -1    0    0    0    0 -0.00000000000E+00 -0.00000000000E+00 -0.45593999997E+02  0.45594000000E+02  0.51100000000E-03 0. -1.
    9900012    2    1    2    0    0  0.11299691747E+02 -0.28133526703E+02 -0.31055514100E+02  0.47787270578E+02  0.19999997873E+02 0.  0.
        -12    1    1    2    0    0 -0.11299691747E+02  0.28133526703E+02  0.31055514100E+02  0.43400729422E+02  0.00000000000E+00 0.  1.
         11    1    3    3    0    0 -0.37251715671E+01 -0.62555192013E+01 -0.12384419937E+02  0.14366011316E+02  0.51100000000E-03 0. -1.
        -11    1    3    3    0    0  0.27840864422E+00  0.33617885054E+00  0.43734538096E+00  0.61789872640E+00  0.51100000000E-03 0.  1.
        -12    1    3    3    0    0  0.14746454670E+02 -0.22214186353E+02 -0.19108439544E+02  0.32803360536E+02  0.00000000000E+00 0.  1.
</event>
<event>
 7    1  0.4011333E-009  0.4778727E+02  0.7816164E-02  0.1312668E+00
        -11   -1    0    0    0    0  0.00000000000E+00  0.00000000000E+00  0.45593999997E+02  0.45594000000E+02  0.51100000000E-03 0.  1.
         11   -1    0    0    0    0 -0.00000000000E+00 -0.00000000000E+00 -0.45593999997E+02  0.45594000000E+02  0.51100000000E-03 0. -1.
    9900012    2    1    2    0    0 -0.53463854026E+00  0.28633250495E+02 -0.32610958398E+02  0.47787268671E+02  0.19999989179E+02 0.  0.
        -12    1    1    2    0    0  0.53463854026E+00 -0.28633250495E+02  0.32610958398E+02  0.43400731329E+02  0.00000000000E+00 0.  1.
         11    1    3    3    0    0  0.16332395347E+01  0.53344185838E+01 -0.10546203532E+02  0.11930880194E+02  0.51100000000E-03 0. -1.
        -11    1    3    3    0    0  0.31800068101E+01  0.15316645205E+02 -0.21004895263E+02  0.26190030335E+02  0.51100000000E-03 0.  1.
         12    1    3    3    0    0 -0.53478848850E+01  0.79821867064E+01 -0.10598596019E+01  0.96663581422E+01  0.00000000000E+00 0. -1.
</event>
<event>
 7    1  0.4011333E-009  0.4778728E+02  0.7816164E-02  0.1312668E+00
        -11   -1    0    0    0    0  0.00000000000E+00  0.00000000000E+00  0.45593999997E+02  0.45594000000E+02  0.51100000000E-03 0. -1.
         11   -1    0    0    0    0 -0.00000000000E+00 -0.00000000000E+00 -0.45593999997E+02  0.45594000000E+02  0.51100000000E-03 0.  1.
    9900012    2    1    2    0    0 -0.31021335931E+02  0.14015979385E+02  0.26923074592E+02  0.47787275277E+02  0.20000019297E+02 0.  0.
        -12    1    1    2    0    0  0.31021335931E+02 -0.14015979385E+02 -0.26923074592E+02  0.43400724723E+02  0.00000000000E+00 0.  1.
         11    1    3    3    0    0 -0.14681379045E+02  0.95877601606E+01  0.60393077000E+01  0.18545653758E+02  0.51100000000E-03 0.  1.
        -11    1    3    3    0    0 -0.99036478620E+01  0.23737131556E+01  0.37993171413E+01  0.10869754649E+02  0.51100000000E-03 0. -1.
         12    1    3    3    0    0 -0.64363090240E+01  0.20545060685E+01  0.17084449750E+02  0.18371866870E+02  0.00000000000E+00 0. -1.
</event>
<event>
 7    1  0.4011333E-009  0.4778727E+02  0.7816164E-02  0.1312668E+00
        -11   -1    0    0    0    0  0.00000000000E+00  0.00000000000E+00  0.45593999997E+02  0.45594000000E+02  0.51100000000E-03 0.  1.
         11   -1    0    0    0    0 -0.00000000000E+00 -0.00000000000E+00 -0.45593999997E+02  0.45594000000E+02  0.51100000000E-03 0. -1.
    9900012    2    1    2    0    0 -0.32847648289E+01 -0.27870294254E+02 -0.33107103957E+02  0.47787270580E+02  0.19999997882E+02 0.  0.
        -12    1    1    2    0    0  0.32847648289E+01  0.27870294254E+02  0.33107103957E+02  0.43400729420E+02  0.00000000000E+00 0.  1.
         11    1    3    3    0    0 -0.16592843054E+01 -0.11844785484E+02 -0.20932118977E+02  0.24108209654E+02  0.51100000000E-03 0. -1.
        -11    1    3    3    0    0  0.50573866662E+01 -0.87781181934E+01 -0.82619893639E+01  0.13072604462E+02  0.51100000000E-03 0.  1.
        -12    1    3    3    0    0 -0.66828671897E+01 -0.72473905758E+01 -0.39129956163E+01  0.10606456464E+02  0.00000000000E+00 0.  1.
</event>
<event>
 7    1  0.4011333E-009  0.4778727E+02  0.7816164E-02  0.1312668E+00
        -11   -1    0    0    0    0  0.00000000000E+00  0.00000000000E+00  0.45593999997E+02  0.45594000000E+02  0.51100000000E-03 0.  1.
         11   -1    0    0    0    0 -0.00000000000E+00 -0.00000000000E+00 -0.45593999997E+02  0.45594000000E+02  0.51100000000E-03 0. -1.
    9900012    2    1    2    0    0  0.42873736629E+02  0.28825026696E-01 -0.67427992439E+01  0.47787268842E+02  0.19999989957E+02 0.  0.
        -12    1    1    2    0    0 -0.42873736629E+02 -0.28825026696E-01  0.67427992439E+01  0.43400731158E+02  0.00000000000E+00 0.  1.
         11    1    3    3    0    0  0.22592080572E+02  0.18652078843E+01 -0.85236205992E+01  0.24218447791E+02  0.51100000000E-03 0. -1.
        -11    1    3    3    0    0  0.10426272177E+02  0.31502953136E+01 -0.33426750825E+01  0.11393199245E+02  0.51100000000E-03 0.  1.
        -12    1    3    3    0    0  0.98553838804E+01 -0.49866781712E+01  0.51234964378E+01  0.12175621806E+02  0.00000000000E+00 0.  1.
</event>
<event>
 7    1  0.4011333E-009  0.4778727E+02  0.7816164E-02  0.1312668E+00
        -11   -1    0    0    0    0  0.00000000000E+00  0.00000000000E+00  0.45593999997E+02  0.45594000000E+02  0.51100000000E-03 0.  1.
         11   -1    0    0    0    0 -0.00000000000E+00 -0.00000000000E+00 -0.45593999997E+02  0.45594000000E+02  0.51100000000E-03 0. -1.
    9900012    2    1    2    0    0  0.42790212766E+02 -0.39646611259E+00 -0.72432030884E+01  0.47787268613E+02  0.19999988914E+02 0.  0.
        -12    1    1    2    0    0 -0.42790212766E+02  0.39646611259E+00  0.72432030884E+01  0.43400731387E+02  0.00000000000E+00 0.  1.
         11    1    3    3    0    0  0.72764545853E+00  0.61687696309E+00 -0.11967329842E+01  0.15304166744E+01  0.51100000000E-03 0. -1.
        -11    1    3    3    0    0  0.20865014373E+02  0.58550206101E+01  0.36141670634E+01  0.21970259328E+02  0.51100000000E-03 0.  1.
         12    1    3    3    0    0  0.21197552935E+02 -0.68683636857E+01 -0.96606371676E+01  0.24286592611E+02  0.00000000000E+00 0. -1.
</event>
<event>
 7    1  0.4011333E-009  0.4778727E+02  0.7816164E-02  0.1312668E+00
        -11   -1    0    0    0    0  0.00000000000E+00  0.00000000000E+00  0.45593999997E+02  0.45594000000E+02  0.51100000000E-03 0.  1.
         11   -1    0    0    0    0 -0.00000000000E+00 -0.00000000000E+00 -0.45593999997E+02  0.45594000000E+02  0.51100000000E-03 0. -1.
    9900012    2    1    2    0    0 -0.60432099445E+01  0.40010478099E+02 -0.15692824745E+02  0.47787268524E+02  0.19999988509E+02 0.  0.
        -12    1    1    2    0    0  0.60432099445E+01 -0.40010478099E+02  0.15692824745E+02  0.43400731476E+02  0.00000000000E+00 0.  1.
         11    1    3    3    0    0 -0.20393278161E+01  0.28308633669E+01 -0.71727932621E+00  0.35619005091E+01  0.51100000000E-03 0. -1.
        -11    1    3    3    0    0 -0.11019836673E+02  0.23467947101E+02 -0.11863100870E+02  0.28511655580E+02  0.51100000000E-03 0.  1.
        -12    1    3    3    0    0  0.70159545447E+01  0.13711667631E+02 -0.31124445489E+01  0.15713712435E+02  0.00000000000E+00 0.  1.
</event>
<event>
 7    1  0.4011333E-009  0.4778724E+02  0.7816164E-02  0.1312668E+00
        -11   -1    0    0    0    0  0.00000000000E+00  0.00000000000E+00  0.45593999997E+02  0.45594000000E+02  0.51100000000E-03 0.  1.
         11   -1    0    0    0    0 -0.00000000000E+00 -0.00000000000E+00 -0.45593999997E+02  0.45594000000E+02  0.51100000000E-03 0. -1.
    9900012    2    1    2    0    0  0.73124562669E+01 -0.12386863341E+02 -0.40947765332E+02  0.47787240954E+02  0.19999862807E+02 0.  0.
        -12    1    1    2    0    0 -0.73124562669E+01  0.12386863341E+02  0.40947765332E+02  0.43400759046E+02  0.00000000000E+00 0.  1.
         11    1    3    3    0    0 -0.51916111799E+01 -0.21654077703E+01 -0.14839904359E+02  0.15870241936E+02  0.51100000000E-03 0. -1.
        -11    1    3    3    0    0  0.33065430632E+00 -0.40757359517E+01 -0.10049976145E+02  0.10850021963E+02  0.51100000000E-03 0.  1.
        -12    1    3    3    0    0  0.12173413140E+02 -0.61457196195E+01 -0.16057884827E+02  0.21066977056E+02  0.00000000000E+00 0.  1.
</event>
<event>
 7    1  0.4011333E-009  0.4778727E+02  0.7816164E-02  0.1312668E+00
        -11   -1    0    0    0    0  0.00000000000E+00  0.00000000000E+00  0.45593999997E+02  0.45594000000E+02  0.51100000000E-03 0. -1.
         11   -1    0    0    0    0 -0.00000000000E+00 -0.00000000000E+00 -0.45593999997E+02  0.45594000000E+02  0.51100000000E-03 0.  1.
    9900012    2    1    2    0    0  0.62441607599E+01  0.33894414935E+02  0.26378066545E+02  0.47787270720E+02  0.19999998521E+02 0.  0.
        -12    1    1    2    0    0 -0.62441607599E+01 -0.33894414935E+02 -0.26378066545E+02  0.43400729280E+02  0.00000000000E+00 0.  1.
         11    1    3    3    0    0 -0.23575661275E+01  0.27600964604E+01  0.16983389504E+01  0.40075685855E+01  0.51100000000E-03 0. -1.
        -11    1    3    3    0    0  0.10701348176E+02  0.10342737944E+02  0.13431891849E+02  0.20047613321E+02  0.51100000000E-03 0.  1.
        -12    1    3    3    0    0 -0.20996212881E+01  0.20791580530E+02  0.11247835746E+02  0.23732088814E+02  0.00000000000E+00 0.  1.
</event>
<event>
 7    1  0.4032171E-009  0.4778727E+02  0.7816164E-02  0.1312668E+00
        -11   -1    0    0    0    0  0.00000000000E+00  0.00000000000E+00  0.45593999997E+02  0.45594000000E+02  0.51100000000E-03 0.  1.
         11   -1    0    0    0    0 -0.00000000000E+00 -0.00000000000E+00 -0.45593999997E+02  0.45594000000E+02  0.51100000000E-03 0. -1.
    9900012    2    1    2    0    0  0.40094701102E+01 -0.35465198995E+02 -0.24693470161E+02  0.47787266608E+02  0.19999979773E+02 0.  0.
        -12    1    1    2    0    0 -0.40094701102E+01  0.35465198995E+02  0.24693470161E+02  0.43400733392E+02  0.00000000000E+00 0.  1.
         11    1    3    3    0    0  0.33478268846E+01 -0.25742755448E+02 -0.17479652404E+02  0.31295936658E+02  0.51100000000E-03 0. -1.
        -11    1    3    3    0    0  0.29385196821E+01 -0.51246163743E+01 -0.92466654370E+01  0.10972575489E+02  0.51100000000E-03 0.  1.
        -12    1    3    3    0    0 -0.22768764565E+01 -0.45978271733E+01  0.20328476792E+01  0.55187544610E+01  0.00000000000E+00 0.  1.
</event>
<event>
 7    1  0.4692557E-009  0.4778724E+02  0.7816164E-02  0.1312668E+00
        -11   -1    0    0    0    0  0.00000000000E+00  0.00000000000E+00  0.45593999997E+02  0.45594000000E+02  0.51100000000E-03 0.  1.
         11   -1    0    0    0    0 -0.00000000000E+00 -0.00000000000E+00 -0.45593999997E+02  0.45594000000E+02  0.51100000000E-03 0. -1.
    9900012    2    1    2    0    0 -0.40134581060E+02  0.16095122454E+02 -0.37132442077E+01  0.47787242561E+02  0.19999870133E+02 0.  0.
        -12    1    1    2    0    0  0.40134581060E+02 -0.16095122454E+02  0.37132442077E+01  0.43400757439E+02  0.00000000000E+00 0.  1.
         11    1    3    3    0    0 -0.28654925224E+02  0.13075677454E+02 -0.54261722759E+01  0.31961248823E+02  0.51100000000E-03 0. -1.
        -11    1    3    3    0    0 -0.20875561040E+01  0.50428549998E+01 -0.15596556484E+01  0.56763371146E+01  0.51100000000E-03 0.  1.
        -12    1    3    3    0    0 -0.93920997323E+01 -0.20234099991E+01  0.32725837165E+01  0.10149656624E+02  0.00000000000E+00 0.  1.
</event>
<event>
 7    1  0.4011333E-009  0.4778728E+02  0.7816164E-02  0.1312668E+00
        -11   -1    0    0    0    0  0.00000000000E+00  0.00000000000E+00  0.45593999997E+02  0.45594000000E+02  0.51100000000E-03 0.  1.
         11   -1    0    0    0    0 -0.00000000000E+00 -0.00000000000E+00 -0.45593999997E+02  0.45594000000E+02  0.51100000000E-03 0. -1.
    9900012    2    1    2    0    0  0.25336981628E+01 -0.24365820259E+02 -0.35826100219E+02  0.47787282492E+02  0.20000052195E+02 0.  0.
        -12    1    1    2    0    0 -0.25336981628E+01  0.24365820259E+02  0.35826100219E+02  0.43400717508E+02  0.00000000000E+00 0.  1.
         11    1    3    3    0    0  0.16418910773E+01  0.14136453713E+01 -0.40800119318E+00  0.22046915386E+01  0.51100000000E-03 0.  1.
        -11    1    3    3    0    0 -0.49595720523E+01 -0.47576394703E+01 -0.84187465780E+01  0.10867740449E+02  0.51100000000E-03 0. -1.
         12    1    3    3    0    0  0.58513791378E+01 -0.21021826160E+02 -0.26999352448E+02  0.34714850504E+02  0.00000000000E+00 0. -1.
</event>
<event>
 7    1  0.4011333E-009  0.4778728E+02  0.7816164E-02  0.1312668E+00
        -11   -1    0    0    0    0  0.00000000000E+00  0.00000000000E+00  0.45593999997E+02  0.45594000000E+02  0.51100000000E-03 0. -1.
         11   -1    0    0    0    0 -0.00000000000E+00 -0.00000000000E+00 -0.45593999997E+02  0.45594000000E+02  0.51100000000E-03 0.  1.
    9900012    2    1    2    0    0 -0.15916092478E+02 -0.19195987725E+02  0.35522033826E+02  0.47787276139E+02  0.20000023228E+02 0.  0.
        -12    1    1    2    0    0  0.15916092478E+02  0.19195987725E+02 -0.35522033826E+02  0.43400723861E+02  0.00000000000E+00 0.  1.
         11    1    3    3    0    0 -0.73398114320E+01 -0.39098210472E+00  0.33146534307E+01  0.80630407720E+01  0.51100000000E-03 0. -1.
        -11    1    3    3    0    0  0.13731499678E+01  0.48654513413E+00  0.29928677148E+01  0.33285919578E+01  0.51100000000E-03 0.  1.
         12    1    3    3    0    0 -0.99494310142E+01 -0.19291550755E+02  0.29214512680E+02  0.36395643409E+02  0.00000000000E+00 0. -1.
</event>
<event>
 7    1  0.4011333E-009  0.4778726E+02  0.7816164E-02  0.1312668E+00
        -11   -1    0    0    0    0  0.00000000000E+00  0.00000000000E+00  0.45593999997E+02  0.45594000000E+02  0.51100000000E-03 0.  1.
         11   -1    0    0    0    0 -0.00000000000E+00 -0.00000000000E+00 -0.45593999997E+02  0.45594000000E+02  0.51100000000E-03 0. -1.
    9900012    2    1    2    0    0 -0.43981555561E+01  0.28455489725E+02 -0.32474070778E+02  0.47787263362E+02  0.19999964973E+02 0.  0.
        -12    1    1    2    0    0  0.43981555561E+01 -0.28455489725E+02  0.32474070778E+02  0.43400736638E+02  0.00000000000E+00 0.  1.
         11    1    3    3    0    0  0.37783455441E+01  0.11022985273E+02 -0.88240898755E+01  0.14616656997E+02  0.51100000000E-03 0. -1.
        -11    1    3    3    0    0  0.35361409828E+01  0.52754325026E+01 -0.57728511624E+01  0.85825574245E+01  0.51100000000E-03 0.  1.
         12    1    3    3    0    0 -0.11712642083E+02  0.12157071950E+02 -0.17877129740E+02  0.24588048941E+02  0.00000000000E+00 0. -1.
</event>
<event>
 7    1  0.4011333E-009  0.4778728E+02  0.7816164E-02  0.1312668E+00
        -11   -1    0    0    0    0  0.00000000000E+00  0.00000000000E+00  0.45593999997E+02  0.45594000000E+02  0.51100000000E-03 0.  1.
         11   -1    0    0    0    0 -0.00000000000E+00 -0.00000000000E+00 -0.45593999997E+02  0.45594000000E+02  0.51100000000E-03 0. -1.
    9900012    2    1    2    0    0  0.98642237362E+01 -0.40517746279E+01 -0.42070207341E+02  0.47787284185E+02  0.20000059914E+02 0.  0.
        -12    1    1    2    0    0 -0.98642237362E+01  0.40517746279E+01  0.42070207341E+02  0.43400715815E+02  0.00000000000E+00 0.  1.
         11    1    3    3    0    0  0.10729301517E+02 -0.17782474376E+01 -0.12736722316E+02  0.16748258733E+02  0.51100000000E-03 0. -1.
        -11    1    3    3    0    0  0.26683031950E+01  0.13971502633E+01 -0.31262204834E+01  0.43410972772E+01  0.51100000000E-03 0.  1.
        -12    1    3    3    0    0 -0.35333809754E+01 -0.36706774536E+01 -0.26207264541E+02  0.26697928175E+02  0.00000000000E+00 0.  1.
</event>
<event>
 7    1  0.4011333E-009  0.4778726E+02  0.7816164E-02  0.1312668E+00
        -11   -1    0    0    0    0  0.00000000000E+00  0.00000000000E+00  0.45593999997E+02  0.45594000000E+02  0.51100000000E-03 0.  1.
         11   -1    0    0    0    0 -0.00000000000E+00 -0.00000000000E+00 -0.45593999997E+02  0.45594000000E+02  0.51100000000E-03 0. -1.
    9900012    2    1    2    0    0 -0.11050820763E+02 -0.21657327560E+02 -0.35950849351E+02  0.47787262153E+02  0.19999959461E+02 0.  0.
        -12    1    1    2    0    0  0.11050820763E+02  0.21657327560E+02  0.35950849351E+02  0.43400737847E+02  0.00000000000E+00 0.  1.
         11    1    3    3    0    0 -0.19561721598E+01 -0.12050206183E+02 -0.30028496340E+02  0.32415191982E+02  0.51100000000E-03 0. -1.
        -11    1    3    3    0    0 -0.13643342079E+00 -0.31249062708E+01 -0.13171833934E+01  0.33939100802E+01  0.51100000000E-03 0.  1.
        -12    1    3    3    0    0 -0.89582151828E+01 -0.64822151064E+01 -0.46051696180E+01  0.11978160091E+02  0.00000000000E+00 0.  1.
</event>
<event>
 7    1  0.4011333E-009  0.4778727E+02  0.7816164E-02  0.1312668E+00
        -11   -1    0    0    0    0  0.00000000000E+00  0.00000000000E+00  0.45593999997E+02  0.45594000000E+02  0.51100000000E-03 0. -1.
         11   -1    0    0    0    0 -0.00000000000E+00 -0.00000000000E+00 -0.45593999997E+02  0.45594000000E+02  0.51100000000E-03 0.  1.
    9900012    2    1    2    0    0  0.30815497148E+02  0.84500247216E+01  0.29370488255E+02  0.47787270022E+02  0.19999995336E+02 0.  0.
        -12    1    1    2    0    0 -0.30815497148E+02 -0.84500247216E+01 -0.29370488255E+02  0.43400729978E+02  0.00000000000E+00 0.  1.
         11    1    3    3    0    0  0.71945944756E+01  0.25104935743E+01  0.16794564142E+02  0.18442400946E+02  0.51100000000E-03 0. -1.
        -11    1    3    3    0    0  0.65793745171E+01 -0.12360918347E+01  0.77377420647E+01  0.10231751785E+02  0.51100000000E-03 0.  1.
        -12    1    3    3    0    0  0.17041528156E+02  0.71756229820E+01  0.48381820486E+01  0.19113117291E+02  0.00000000000E+00 0.  1.
</event>
<event>
 7    1  0.4011333E-009  0.4778726E+02  0.7816164E-02  0.1312668E+00
        -11   -1    0    0    0    0  0.00000000000E+00  0.00000000000E+00  0.45593999997E+02  0.45594000000E+02  0.51100000000E-03 0. -1.
         11   -1    0    0    0    0 -0.00000000000E+00 -0.00000000000E+00 -0.45593999997E+02  0.45594000000E+02  0.51100000000E-03 0.  1.
    9900012    2    1    2    0    0 -0.42559099570E+02  0.54708823992E+01  0.65128248092E+01  0.47787258101E+02  0.19999940985E+02 0.  0.
        -12    1    1    2    0    0  0.42559099570E+02 -0.54708823992E+01 -0.65128248092E+01  0.43400741899E+02  0.00000000000E+00 0.  1.
         11    1    3    3    0    0 -0.17677686401E+02 -0.47286957342E+01  0.56540924894E+01  0.19152804546E+02  0.51100000000E-03 0. -1.
        -11    1    3    3    0    0  0.87324526102E+00  0.44601757770E+00 -0.41629735046E+00  0.10652664975E+01  0.51100000000E-03 0.  1.
        -12    1    3    3    0    0 -0.25754658430E+02  0.97535605557E+01  0.12750296703E+01  0.27569187057E+02  0.00000000000E+00 0.  1.
</event>
<event>
 7    1  0.4011333E-009  0.4778727E+02  0.7816164E-02  0.1312668E+00
        -11   -1    0    0    0    0  0.00000000000E+00  0.00000000000E+00  0.45593999997E+02  0.45594000000E+02  0.51100000000E-03 0.  1.
         11   -1    0    0    0    0 -0.00000000000E+00 -0.00000000000E+00 -0.45593999997E+02  0.45594000000E+02  0.51100000000E-03 0. -1.
    9900012    2    1    2    0    0 -0.33228035631E+02 -0.27546164831E+02 -0.45529815206E+01  0.47787272016E+02  0.20000004430E+02 0.  0.
        -12    1    1    2    0    0  0.33228035631E+02  0.27546164831E+02  0.45529815206E+01  0.43400727984E+02  0.00000000000E+00 0.  1.
         11    1    3    3    0    0 -0.27597737861E+02 -0.19932835712E+02 -0.77006469859E+00  0.34052108223E+02  0.51100000000E-03 0. -1.
        -11    1    3    3    0    0 -0.38714994104E+01 -0.12299115307E+00  0.17578592871E+01  0.42536694797E+01  0.51100000000E-03 0.  1.
        -12    1    3    3    0    0 -0.17587983598E+01 -0.74903379661E+01 -0.55407761091E+01  0.94814943131E+01  0.00000000000E+00 0.  1.
</event>
<event>
 7    1  0.4011333E-009  0.4778728E+02  0.7816164E-02  0.1312668E+00
        -11   -1    0    0    0    0  0.00000000000E+00  0.00000000000E+00  0.45593999997E+02  0.45594000000E+02  0.51100000000E-03 0.  1.
         11   -1    0    0    0    0 -0.00000000000E+00 -0.00000000000E+00 -0.45593999997E+02  0.45594000000E+02  0.51100000000E-03 0. -1.
    9900012    2    1    2    0    0 -0.34209047306E+02 -0.24705320085E+02 -0.10149436344E+02  0.47787276317E+02  0.20000024041E+02 0.  0.
        -12    1    1    2    0    0  0.34209047306E+02  0.24705320085E+02  0.10149436344E+02  0.43400723683E+02  0.00000000000E+00 0.  1.
         11    1    3    3    0    0  0.47913888792E+00 -0.85938486969E-01 -0.47349270375E+00  0.67908401475E+00  0.51100000000E-03 0. -1.
        -11    1    3    3    0    0 -0.58852311461E+01 -0.44514605905E+01 -0.93934382550E+01  0.11945213667E+02  0.51100000000E-03 0.  1.
         12    1    3    3    0    0 -0.28802955048E+02 -0.20167921008E+02 -0.28250538563E+00  0.35162978636E+02  0.00000000000E+00 0. -1.
</event>
<event>
 7    1  0.4011333E-009  0.4778727E+02  0.7816164E-02  0.1312668E+00
        -11   -1    0    0    0    0  0.00000000000E+00  0.00000000000E+00  0.45593999997E+02  0.45594000000E+02  0.51100000000E-03 0.  1.
         11   -1    0    0    0    0 -0.00000000000E+00 -0.00000000000E+00 -0.45593999997E+02  0.45594000000E+02  0.51100000000E-03 0. -1.
    9900012    2    1    2    0    0 -0.12065710125E+02 -0.55219942548E+01 -0.41322506621E+02  0.47787270343E+02  0.19999996801E+02 0.  0.
        -12    1    1    2    0    0  0.12065710125E+02  0.55219942548E+01  0.41322506621E+02  0.43400729657E+02  0.00000000000E+00 0.  1.
         11    1    3    3    0    0  0.43922018021E+01  0.10134234583E+01 -0.50310997470E+01  0.67550298816E+01  0.51100000000E-03 0. -1.
        -11    1    3    3    0    0 -0.80246295201E+01 -0.49022452314E+01 -0.25875253103E+02  0.27530990005E+02  0.51100000000E-03 0.  1.
        -12    1    3    3    0    0 -0.84332824067E+01 -0.16331724817E+01 -0.10416153771E+02  0.13501250456E+02  0.00000000000E+00 0.  1.
</event>
<event>
 7    1  0.4011333E-009  0.4778727E+02  0.7816164E-02  0.1312668E+00
        -11   -1    0    0    0    0  0.00000000000E+00  0.00000000000E+00  0.45593999997E+02  0.45594000000E+02  0.51100000000E-03 0.  1.
         11   -1    0    0    0    0 -0.00000000000E+00 -0.00000000000E+00 -0.45593999997E+02  0.45594000000E+02  0.51100000000E-03 0. -1.
    9900012    2    1    2    0    0  0.14979669123E+02 -0.39062136191E+02 -0.11549125710E+02  0.47787271025E+02  0.19999999914E+02 0.  0.
        -12    1    1    2    0    0 -0.14979669123E+02  0.39062136191E+02  0.11549125710E+02  0.43400728975E+02  0.00000000000E+00 0.  1.
         11    1    3    3    0    0  0.12289699815E+00 -0.25289328360E+01 -0.25378107484E+01  0.35848415051E+01  0.51100000000E-03 0. -1.
        -11    1    3    3    0    0 -0.81033078403E+00  0.14671771631E+01 -0.18209240021E+01  0.24748756111E+01  0.51100000000E-03 0.  1.
         12    1    3    3    0    0  0.15667102909E+02 -0.38000380519E+02 -0.71903909590E+01  0.41727553909E+02  0.00000000000E+00 0. -1.
</event>
<event>
 7    1  0.4011333E-009  0.4778727E+02  0.7816164E-02  0.1312668E+00
        -11   -1    0    0    0    0  0.00000000000E+00  0.00000000000E+00  0.45593999997E+02  0.45594000000E+02  0.51100000000E-03 0.  1.
         11   -1    0    0    0    0 -0.00000000000E+00 -0.00000000000E+00 -0.45593999997E+02  0.45594000000E+02  0.51100000000E-03 0. -1.
    9900012    2    1    2    0    0  0.38050748258E+02 -0.16818549088E+02 -0.12365274887E+02  0.47787273515E+02  0.20000011264E+02 0.  0.
        -12    1    1    2    0    0 -0.38050748258E+02  0.16818549088E+02  0.12365274887E+02  0.43400726485E+02  0.00000000000E+00 0.  1.
         11    1    3    3    0    0  0.28207575142E+02 -0.18987876015E+02 -0.12664182213E+02  0.36284821101E+02  0.51100000000E-03 0. -1.
        -11    1    3    3    0    0  0.71359498384E+01 -0.92851533367E+00 -0.80998242791E+00  0.72415462863E+01  0.51100000000E-03 0.  1.
        -12    1    3    3    0    0  0.27072232766E+01  0.30978422605E+01  0.11088897533E+01  0.42609061273E+01  0.00000000000E+00 0.  1.
</event>
<event>
 7    1  0.4011333E-009  0.4778727E+02  0.7816164E-02  0.1312668E+00
        -11   -1    0    0    0    0  0.00000000000E+00  0.00000000000E+00  0.45593999997E+02  0.45594000000E+02  0.51100000000E-03 0.  1.
         11   -1    0    0    0    0 -0.00000000000E+00 -0.00000000000E+00 -0.45593999997E+02  0.45594000000E+02  0.51100000000E-03 0. -1.
    9900012    2    1    2    0    0 -0.68553437778E+01  0.12539243295E+02 -0.40980422809E+02  0.47787269427E+02  0.19999992625E+02 0.  0.
        -12    1    1    2    0    0  0.68553437778E+01 -0.12539243295E+02  0.40980422809E+02  0.43400730573E+02  0.00000000000E+00 0.  1.
         11    1    3    3    0    0 -0.54842112286E+01  0.42453199666E+01 -0.94533139746E+01  0.11724523862E+02  0.51100000000E-03 0. -1.
        -11    1    3    3    0    0 -0.69684870419E+01  0.22611251509E+01 -0.67757820534E+01  0.99791643587E+01  0.51100000000E-03 0.  1.
         12    1    3    3    0    0  0.55973544926E+01  0.60327981771E+01 -0.24751326781E+02  0.26083581207E+02  0.00000000000E+00 0. -1.
</event>
<event>
 7    1  0.4011333E-009  0.4778729E+02  0.7816164E-02  0.1312668E+00
        -11   -1    0    0    0    0  0.00000000000E+00  0.00000000000E+00  0.45593999997E+02  0.45594000000E+02  0.51100000000E-03 0.  1.
         11   -1    0    0    0    0 -0.00000000000E+00 -0.00000000000E+00 -0.45593999997E+02  0.45594000000E+02  0.51100000000E-03 0. -1.
    9900012    2    1    2    0    0 -0.34509937965E+02 -0.10501825119E+01 -0.26297965829E+02  0.47787289080E+02  0.20000082232E+02 0.  0.
        -12    1    1    2    0    0  0.34509937965E+02  0.10501825119E+01  0.26297965829E+02  0.43400710920E+02  0.00000000000E+00 0.  1.
         11    1    3    3    0    0  0.37396923355E+00  0.77630892250E+00  0.71562962704E+00  0.11201047072E+01  0.51100000000E-03 0.  1.
        -11    1    3    3    0    0 -0.18983534107E+02  0.55548932893E+01 -0.18873218860E+02  0.27339162333E+02  0.51100000000E-03 0. -1.
         12    1    3    3    0    0 -0.15900373091E+02 -0.73813847237E+01 -0.81403765952E+01  0.19328022040E+02  0.00000000000E+00 0. -1.
</event>
<event>
 7    1  0.4011333E-009  0.4778727E+02  0.7816164E-02  0.1312668E+00
        -11   -1    0    0    0    0  0.00000000000E+00  0.00000000000E+00  0.45593999997E+02  0.45594000000E+02  0.51100000000E-03 0. -1.
         11   -1    0    0    0    0 -0.00000000000E+00 -0.00000000000E+00 -0.45593999997E+02  0.45594000000E+02  0.51100000000E-03 0.  1.
    9900012    2    1    2    0    0  0.51381564579E+01 -0.42538120894E+02  0.69087583506E+01  0.47787270480E+02  0.19999997425E+02 0.  0.
        -12    1    1    2    0    0 -0.51381564579E+01  0.42538120894E+02 -0.69087583506E+01  0.43400729520E+02  0.00000000000E+00 0.  1.
         11    1    3    3    0    0  0.19504577870E+01 -0.18398590471E+00  0.16234627567E+01  0.25443600326E+01  0.51100000000E-03 0. -1.
        -11    1    3    3    0    0  0.84430600087E+01 -0.20281413827E+02  0.50980481178E+01  0.22552407943E+02  0.51100000000E-03 0.  1.
        -12    1    3    3    0    0 -0.52553613378E+01 -0.22072721162E+02  0.18724747613E+00  0.22690502504E+02  0.00000000000E+00 0.  1.
</event>
<event>
 7    1  0.4011333E-009  0.4778726E+02  0.7816164E-02  0.1312668E+00
        -11   -1    0    0    0    0  0.00000000000E+00  0.00000000000E+00  0.45593999997E+02  0.45594000000E+02  0.51100000000E-03 0.  1.
         11   -1    0    0    0    0 -0.00000000000E+00 -0.00000000000E+00 -0.45593999997E+02  0.45594000000E+02  0.51100000000E-03 0. -1.
    9900012    2    1    2    0    0  0.11353567512E+02  0.74216556947E+01 -0.41226683283E+02  0.47787264026E+02  0.19999968002E+02 0.  0.
        -12    1    1    2    0    0 -0.11353567512E+02 -0.74216556947E+01  0.41226683283E+02  0.43400735974E+02  0.00000000000E+00 0.  1.
         11    1    3    3    0    0  0.13905693914E+02  0.36542350753E+01 -0.39818416183E+02  0.42334714181E+02  0.51100000000E-03 0. -1.
        -11    1    3    3    0    0 -0.76273001332E+00  0.45714284323E+00  0.70679459967E+00  0.11359117570E+01  0.51100000000E-03 0.  1.
         12    1    3    3    0    0 -0.17893963888E+01  0.33102777761E+01 -0.21150617005E+01  0.43166380886E+01  0.00000000000E+00 0. -1.
</event>
<event>
 7    1  0.4011333E-009  0.4778727E+02  0.7816164E-02  0.1312668E+00
        -11   -1    0    0    0    0  0.00000000000E+00  0.00000000000E+00  0.45593999997E+02  0.45594000000E+02  0.51100000000E-03 0. -1.
         11   -1    0    0    0    0 -0.00000000000E+00 -0.00000000000E+00 -0.45593999997E+02  0.45594000000E+02  0.51100000000E-03 0.  1.
    9900012    2    1    2    0    0 -0.36027928271E+02  0.12092575022E+02  0.20961425474E+02  0.47787270235E+02  0.19999996311E+02 0.  0.
        -12    1    1    2    0    0  0.36027928271E+02 -0.12092575022E+02 -0.20961425474E+02  0.43400729765E+02  0.00000000000E+00 0.  1.
         11    1    3    3    0    0 -0.61146518361E+01  0.38566068051E+01  0.40874301691E+01  0.83047858957E+01  0.51100000000E-03 0. -1.
        -11    1    3    3    0    0 -0.23658732496E+02  0.84511878666E+00  0.50612244071E+01  0.24208796787E+02  0.51100000000E-03 0.  1.
        -12    1    3    3    0    0 -0.62545439391E+01  0.73908494306E+01  0.11812770898E+02  0.15273687553E+02  0.00000000000E+00 0.  1.
</event>
<event>
 7    1  0.4011333E-009  0.4778728E+02  0.7816164E-02  0.1312668E+00
        -11   -1    0    0    0    0  0.00000000000E+00  0.00000000000E+00  0.45593999997E+02  0.45594000000E+02  0.51100000000E-03 0.  1.
         11   -1    0    0    0    0 -0.00000000000E+00 -0.00000000000E+00 -0.45593999997E+02  0.45594000000E+02  0.51100000000E-03 0. -1.
    9900012    2    1    2    0    0  0.36692719383E+02 -0.18907443984E+02 -0.13408042899E+02  0.47787277563E+02  0.20000029720E+02 0.  0.
        -12    1    1    2    0    0 -0.36692719383E+02  0.18907443984E+02  0.13408042899E+02  0.43400722437E+02  0.00000000000E+00 0.  1.
         11    1    3    3    0    0  0.83803227525E+01 -0.75978080051E+01 -0.81775522993E+01  0.13958110824E+02  0.51100000000E-03 0. -1.
        -11    1    3    3    0    0  0.11267054457E+02 -0.97169834773E+01 -0.73217044149E+01  0.16582329144E+02  0.51100000000E-03 0.  1.
        -12    1    3    3    0    0  0.17045342173E+02 -0.15926525014E+01  0.20912138153E+01  0.17246837595E+02  0.00000000000E+00 0.  1.
</event>
<event>
 7    1  0.4011333E-009  0.4778727E+02  0.7816164E-02  0.1312668E+00
        -11   -1    0    0    0    0  0.00000000000E+00  0.00000000000E+00  0.45593999997E+02  0.45594000000E+02  0.51100000000E-03 0. -1.
         11   -1    0    0    0    0 -0.00000000000E+00 -0.00000000000E+00 -0.45593999997E+02  0.45594000000E+02  0.51100000000E-03 0.  1.
    9900012    2    1    2    0    0  0.28589458630E+02  0.12948762934E+02  0.29976590300E+02  0.47787267607E+02  0.19999984326E+02 0.  0.
        -12    1    1    2    0    0 -0.28589458630E+02 -0.12948762934E+02 -0.29976590300E+02  0.43400732393E+02  0.00000000000E+00 0.  1.
         11    1    3    3    0    0  0.22489157207E+02  0.14122380520E+02  0.29431507478E+02  0.39641108160E+02  0.51100000000E-03 0. -1.
        -11    1    3    3    0    0  0.54975627043E+01  0.14458410843E+00  0.22204443127E+01  0.59308071508E+01  0.51100000000E-03 0.  1.
        -12    1    3    3    0    0  0.60273871858E+00 -0.13182016951E+01 -0.16753614907E+01  0.22153522962E+01  0.00000000000E+00 0.  1.
</event>
<event>
 7    1  0.4011333E-009  0.4778725E+02  0.7816164E-02  0.1312668E+00
        -11   -1    0    0    0    0  0.00000000000E+00  0.00000000000E+00  0.45593999997E+02  0.45594000000E+02  0.51100000000E-03 0.  1.
         11   -1    0    0    0    0 -0.00000000000E+00 -0.00000000000E+00 -0.45593999997E+02  0.45594000000E+02  0.51100000000E-03 0. -1.
    9900012    2    1    2    0    0  0.17140796618E+02  0.29477838083E+02 -0.26849121869E+02  0.47787248948E+02  0.19999899253E+02 0.  0.
        -12    1    1    2    0    0 -0.17140796618E+02 -0.29477838083E+02  0.26849121869E+02  0.43400751052E+02  0.00000000000E+00 0.  1.
         11    1    3    3    0    0  0.40693001578E+01  0.17609930933E+02 -0.12704342792E+02  0.22092288185E+02  0.51100000000E-03 0. -1.
        -11    1    3    3    0    0  0.52439513325E+01  0.68524734887E+00 -0.10194894255E+02  0.11484966636E+02  0.51100000000E-03 0.  1.
         12    1    3    3    0    0  0.78275451280E+01  0.11182659802E+02 -0.39498848226E+01  0.14209994127E+02  0.00000000000E+00 0. -1.
</event>
<event>
 7    1  0.4011333E-009  0.4778727E+02  0.7816164E-02  0.1312668E+00
        -11   -1    0    0    0    0  0.00000000000E+00  0.00000000000E+00  0.45593999997E+02  0.45594000000E+02  0.51100000000E-03 0.  1.
         11   -1    0    0    0    0 -0.00000000000E+00 -0.00000000000E+00 -0.45593999997E+02  0.45594000000E+02  0.51100000000E-03 0. -1.
    9900012    2    1    2    0    0  0.11951764981E+02 -0.13142108726E+02 -0.39598780587E+02  0.47787272680E+02  0.20000007458E+02 0.  0.
        -12    1    1    2    0    0 -0.11951764981E+02  0.13142108726E+02  0.39598780587E+02  0.43400727320E+02  0.00000000000E+00 0.  1.
         11    1    3    3    0    0  0.73630263742E+01 -0.84408700590E+01 -0.31965692870E+02  0.33871344314E+02  0.51100000000E-03 0.  1.
        -11    1    3    3    0    0  0.38191782406E+01 -0.45608472574E+00 -0.86646336255E+01  0.94799795272E+01  0.51100000000E-03 0. -1.
        -12    1    3    3    0    0  0.76956036574E+00 -0.42451539411E+01  0.10315459082E+01  0.44359488388E+01  0.00000000000E+00 0.  1.
</event>
<event>
 7    1  0.4011333E-009  0.4778728E+02  0.7816164E-02  0.1312668E+00
        -11   -1    0    0    0    0  0.00000000000E+00  0.00000000000E+00  0.45593999997E+02  0.45594000000E+02  0.51100000000E-03 0. -1.
         11   -1    0    0    0    0 -0.00000000000E+00 -0.00000000000E+00 -0.45593999997E+02  0.45594000000E+02  0.51100000000E-03 0.  1.
    9900012    2    1    2    0    0  0.26948125272E+02 -0.30966692513E+02  0.14088482103E+02  0.47787276171E+02  0.20000023376E+02 0.  0.
        -12    1    1    2    0    0 -0.26948125272E+02  0.30966692513E+02 -0.14088482103E+02  0.43400723829E+02  0.00000000000E+00 0.  1.
         11    1    3    3    0    0  0.20333148066E+01  0.10248538678E+01  0.86062544116E+00  0.24342084883E+01  0.51100000000E-03 0. -1.
        -11    1    3    3    0    0  0.51696219275E+01  0.58435667269E+00  0.67983504334E+00  0.52467742034E+01  0.51100000000E-03 0.  1.
         12    1    3    3    0    0  0.19745188538E+02 -0.32575903054E+02  0.12548021618E+02  0.40106293480E+02  0.00000000000E+00 0. -1.
</event>
<event>
 7    1  0.4011333E-009  0.4778727E+02  0.7816164E-02  0.1312668E+00
        -11   -1    0    0    0    0  0.00000000000E+00  0.00000000000E+00  0.45593999997E+02  0.45594000000E+02  0.51100000000E-03 0.  1.
         11   -1    0    0    0    0 -0.00000000000E+00 -0.00000000000E+00 -0.45593999997E+02  0.45594000000E+02  0.51100000000E-03 0. -1.
    9900012    2    1    2    0    0  0.91803398993E+01  0.19386750041E+02 -0.37729278985E+02  0.47787271774E+02  0.20000003327E+02 0.  0.
        -12    1    1    2    0    0 -0.91803398993E+01 -0.19386750041E+02  0.37729278985E+02  0.43400728226E+02  0.00000000000E+00 0.  1.
         11    1    3    3    0    0  0.17118149938E+01 -0.66092312669E+00 -0.17106600578E+00  0.18429307615E+01  0.51100000000E-03 0. -1.
        -11    1    3    3    0    0  0.63531105496E+01  0.27029897681E+01 -0.20336846304E+02  0.21476859296E+02  0.51100000000E-03 0.  1.
         12    1    3    3    0    0  0.11154143559E+01  0.17344683400E+02 -0.17221366675E+02  0.24467481717E+02  0.00000000000E+00 0. -1.
</event>
<event>
 7    1  0.4011333E-009  0.4778727E+02  0.7816164E-02  0.1312668E+00
        -11   -1    0    0    0    0  0.00000000000E+00  0.00000000000E+00  0.45593999997E+02  0.45594000000E+02  0.51100000000E-03 0.  1.
         11   -1    0    0    0    0 -0.00000000000E+00 -0.00000000000E+00 -0.45593999997E+02  0.45594000000E+02  0.51100000000E-03 0. -1.
    9900012    2    1    2    0    0  0.25911325440E+02 -0.29925203786E+02 -0.17796314334E+02  0.47787269458E+02  0.19999992767E+02 0.  0.
        -12    1    1    2    0    0 -0.25911325440E+02  0.29925203786E+02  0.17796314334E+02  0.43400730542E+02  0.00000000000E+00 0.  1.
         11    1    3    3    0    0  0.10851803750E+01 -0.62693203085E+01 -0.43605550029E+01  0.77133931425E+01  0.51100000000E-03 0.  1.
        -11    1    3    3    0    0  0.14805245838E+02 -0.17630007596E+02 -0.10580040134E+01  0.23046297857E+02  0.51100000000E-03 0. -1.
        -12    1    3    3    0    0  0.10020899227E+02 -0.60258758813E+01 -0.12377755318E+02  0.17027578459E+02  0.00000000000E+00 0.  1.
</event>
<event>
 7    1  0.4011333E-009  0.4778727E+02  0.7816164E-02  0.1312668E+00
        -11   -1    0    0    0    0  0.00000000000E+00  0.00000000000E+00  0.45593999997E+02  0.45594000000E+02  0.51100000000E-03 0. -1.
         11   -1    0    0    0    0 -0.00000000000E+00 -0.00000000000E+00 -0.45593999997E+02  0.45594000000E+02  0.51100000000E-03 0.  1.
    9900012    2    1    2    0    0 -0.12619335505E+02  0.38502859858E+02 -0.15553302723E+02  0.47787273377E+02  0.20000010633E+02 0.  0.
        -12    1    1    2    0    0  0.12619335505E+02 -0.38502859858E+02  0.15553302723E+02  0.43400726623E+02  0.00000000000E+00 0.  1.
         11    1    3    3    0    0 -0.60993924339E+01  0.51304148522E+01 -0.46192574955E+01  0.92120184916E+01  0.51100000000E-03 0. -1.
        -11    1    3    3    0    0  0.31414617685E+01  0.16929731861E+01  0.35019330442E+00  0.35857462073E+01  0.51100000000E-03 0.  1.
         12    1    3    3    0    0 -0.96614048392E+01  0.31679471820E+02 -0.11284238532E+02  0.34989508678E+02  0.00000000000E+00 0. -1.
</event>
<event>
 7    1  0.4011333E-009  0.4778727E+02  0.7816164E-02  0.1312668E+00
        -11   -1    0    0    0    0  0.00000000000E+00  0.00000000000E+00  0.45593999997E+02  0.45594000000E+02  0.51100000000E-03 0.  1.
         11   -1    0    0    0    0 -0.00000000000E+00 -0.00000000000E+00 -0.45593999997E+02  0.45594000000E+02  0.51100000000E-03 0. -1.
    9900012    2    1    2    0    0  0.14277443812E+02  0.21662560098E+02 -0.34792409651E+02  0.47787266352E+02  0.19999978607E+02 0.  0.
        -12    1    1    2    0    0 -0.14277443812E+02 -0.21662560098E+02  0.34792409651E+02  0.43400733648E+02  0.00000000000E+00 0.  1.
         11    1    3    3    0    0 -0.19680226745E+00  0.61142630619E+01 -0.65531145116E+01  0.89647227501E+01  0.51100000000E-03 0. -1.
        -11    1    3    3    0    0 -0.18850042873E+01 -0.17697447540E+01 -0.14181364641E+01  0.29489572647E+01  0.51100000000E-03 0.  1.
         12    1    3    3    0    0  0.16359250366E+02  0.17318041790E+02 -0.26821158676E+02  0.35873586338E+02  0.00000000000E+00 0. -1.
</event>
<event>
 7    1  0.4011333E-009  0.4778728E+02  0.7816164E-02  0.1312668E+00
        -11   -1    0    0    0    0  0.00000000000E+00  0.00000000000E+00  0.45593999997E+02  0.45594000000E+02  0.51100000000E-03 0. -1.
         11   -1    0    0    0    0 -0.00000000000E+00 -0.00000000000E+00 -0.45593999997E+02  0.45594000000E+02  0.51100000000E-03 0.  1.
    9900012    2    1    2    0    0 -0.37776204433E+02 -0.15984739354E+02  0.14179887900E+02  0.47787277259E+02  0.20000028334E+02 0.  0.
        -12    1    1    2    0    0  0.37776204433E+02  0.15984739354E+02 -0.14179887900E+02  0.43400722741E+02  0.00000000000E+00 0.  1.
         11    1    3    3    0    0 -0.22584256129E+02 -0.85882849471E+01  0.76684807933E+01  0.25349809884E+02  0.51100000000E-03 0. -1.
        -11    1    3    3    0    0 -0.12443267639E+02 -0.12748931684E+01 -0.77436709121E+00  0.12532354399E+02  0.51100000000E-03 0.  1.
        -12    1    3    3    0    0 -0.27486806652E+01 -0.61215612381E+01  0.72857741979E+01  0.99051129754E+01  0.00000000000E+00 0.  1.
</event>
<event>
 7    1  0.4011333E-009  0.4778727E+02  0.7816164E-02  0.1312668E+00
        -11   -1    0    0    0    0  0.00000000000E+00  0.00000000000E+00  0.45593999997E+02  0.45594000000E+02  0.51100000000E-03 0. -1.
         11   -1    0    0    0    0 -0.00000000000E+00 -0.00000000000E+00 -0.45593999997E+02  0.45594000000E+02  0.51100000000E-03 0.  1.
    9900012    2    1    2    0    0 -0.30552072388E+02 -0.19530401051E+02  0.23848649709E+02  0.47787265152E+02  0.19999973135E+02 0.  0.
        -12    1    1    2    0    0  0.30552072388E+02  0.19530401051E+02 -0.23848649709E+02  0.43400734848E+02  0.00000000000E+00 0.  1.
         11    1    3    3    0    0 -0.82062052170E+01  0.53358959002E+00  0.81588261382E+01  0.11584168772E+02  0.51100000000E-03 0. -1.
        -11    1    3    3    0    0 -0.16901799586E+02 -0.67833325433E+01  0.98714191119E+01  0.20715437364E+02  0.51100000000E-03 0.  1.
         12    1    3    3    0    0 -0.54440675849E+01 -0.13280658097E+02  0.58184044585E+01  0.15487659016E+02  0.00000000000E+00 0. -1.
</event>
<event>
 7    1  0.4011333E-009  0.4778727E+02  0.7816164E-02  0.1312668E+00
        -11   -1    0    0    0    0  0.00000000000E+00  0.00000000000E+00  0.45593999997E+02  0.45594000000E+02  0.51100000000E-03 0. -1.
         11   -1    0    0    0    0 -0.00000000000E+00 -0.00000000000E+00 -0.45593999997E+02  0.45594000000E+02  0.51100000000E-03 0.  1.
    9900012    2    1    2    0    0  0.35493581583E+01 -0.39469364261E+02  0.17697298714E+02  0.47787273735E+02  0.20000012269E+02 0.  0.
        -12    1    1    2    0    0 -0.35493581583E+01  0.39469364261E+02 -0.17697298714E+02  0.43400726265E+02  0.00000000000E+00 0.  1.
         11    1    3    3    0    0 -0.35091210038E+01 -0.51449686939E+01  0.46960163241E+00  0.62454110381E+01  0.51100000000E-03 0. -1.
        -11    1    3    3    0    0 -0.23921839089E+01 -0.21897387466E+00  0.13126794754E+01  0.27374479133E+01  0.51100000000E-03 0.  1.
         12    1    3    3    0    0  0.94506630710E+01 -0.34105421693E+02  0.15915017606E+02  0.38804414784E+02  0.00000000000E+00 0. -1.
</event>
<event>
 7    1  0.4011333E-009  0.4778727E+02  0.7816164E-02  0.1312668E+00
        -11   -1    0    0    0    0  0.00000000000E+00  0.00000000000E+00  0.45593999997E+02  0.45594000000E+02  0.51100000000E-03 0.  1.
         11   -1    0    0    0    0 -0.00000000000E+00 -0.00000000000E+00 -0.45593999997E+02  0.45594000000E+02  0.51100000000E-03 0. -1.
    9900012    2    1    2    0    0  0.30562694888E+02  0.21225563514E+01 -0.30741503145E+02  0.47787267520E+02  0.19999983928E+02 0.  0.
        -12    1    1    2    0    0 -0.30562694888E+02 -0.21225563514E+01  0.30741503145E+02  0.43400732480E+02  0.00000000000E+00 0.  1.
         11    1    3    3    0    0  0.63419173149E+01 -0.33431315009E+01 -0.85325265891E+01  0.11144525729E+02  0.51100000000E-03 0. -1.
        -11    1    3    3    0    0 -0.15563685250E+01 -0.92379417894E+00  0.29409193021E+00  0.18336218244E+01  0.51100000000E-03 0.  1.
        -12    1    3    3    0    0  0.25777146098E+02  0.63894820313E+01 -0.22503068486E+02  0.34809119966E+02  0.00000000000E+00 0.  1.
</event>
<event>
 7    1  0.4011333E-009  0.4778727E+02  0.7816164E-02  0.1312668E+00
        -11   -1    0    0    0    0  0.00000000000E+00  0.00000000000E+00  0.45593999997E+02  0.45594000000E+02  0.51100000000E-03 0.  1.
         11   -1    0    0    0    0 -0.00000000000E+00 -0.00000000000E+00 -0.45593999997E+02  0.45594000000E+02  0.51100000000E-03 0. -1.
    9900012    2    1    2    0    0 -0.24700617855E+02  0.68739317737E+01 -0.35017879515E+02  0.47787270212E+02  0.19999996204E+02 0.  0.
        -12    1    1    2    0    0  0.24700617855E+02 -0.68739317737E+01  0.35017879515E+02  0.43400729788E+02  0.00000000000E+00 0.  1.
         11    1    3    3    0    0 -0.70511652435E+01  0.14485420552E+01 -0.19653945489E+01  0.74619019941E+01  0.51100000000E-03 0. -1.
        -11    1    3    3    0    0 -0.19851957769E+02  0.44265220958E+01 -0.26970578585E+02  0.33780266941E+02  0.51100000000E-03 0.  1.
        -12    1    3    3    0    0  0.22025051577E+01  0.99886762264E+00 -0.60819063806E+01  0.65451012765E+01  0.00000000000E+00 0.  1.
</event>
<event>
 7    1  0.4011333E-009  0.4778727E+02  0.7816164E-02  0.1312668E+00
        -11   -1    0    0    0    0  0.00000000000E+00  0.00000000000E+00  0.45593999997E+02  0.45594000000E+02  0.51100000000E-03 0. -1.
         11   -1    0    0    0    0 -0.00000000000E+00 -0.00000000000E+00 -0.45593999997E+02  0.45594000000E+02  0.51100000000E-03 0.  1.
    9900012    2    1    2    0    0 -0.16388637821E+02 -0.21115513411E+02  0.34193140161E+02  0.47787272007E+02  0.20000004387E+02 0.  0.
        -12    1    1    2    0    0  0.16388637821E+02  0.21115513411E+02 -0.34193140161E+02  0.43400727993E+02  0.00000000000E+00 0.  1.
         11    1    3    3    0    0 -0.13088042891E+02 -0.24117310363E+01  0.20207028168E+02  0.24195811641E+02  0.51100000000E-03 0. -1.
        -11    1    3    3    0    0 -0.25938425306E+00 -0.10085396279E+01  0.85602178503E+00  0.13480378071E+01  0.51100000000E-03 0.  1.
         12    1    3    3    0    0 -0.30412106778E+01 -0.17695242747E+02  0.13130090208E+02  0.22243422559E+02  0.00000000000E+00 0. -1.
</event>
<event>
 7    1  0.4011333E-009  0.4778728E+02  0.7816164E-02  0.1312668E+00
        -11   -1    0    0    0    0  0.00000000000E+00  0.00000000000E+00  0.45593999997E+02  0.45594000000E+02  0.51100000000E-03 0.  1.
         11   -1    0    0    0    0 -0.00000000000E+00 -0.00000000000E+00 -0.45593999997E+02  0.45594000000E+02  0.51100000000E-03 0. -1.
    9900012    2    1    2    0    0 -0.15020294585E+02  0.35508920518E+02 -0.19928115907E+02  0.47787280082E+02  0.20000041204E+02 0.  0.
        -12    1    1    2    0    0  0.15020294585E+02 -0.35508920518E+02  0.19928115907E+02  0.43400719918E+02  0.00000000000E+00 0.  1.
         11    1    3    3    0    0 -0.53567896899E+01  0.53192366720E+01 -0.24172469515E+01  0.79266990381E+01  0.51100000000E-03 0. -1.
        -11    1    3    3    0    0 -0.48517653456E+01  0.20219210962E+02 -0.19622484520E+02  0.28590173450E+02  0.51100000000E-03 0.  1.
         12    1    3    3    0    0 -0.48117395499E+01  0.99704728847E+01  0.21116155643E+01  0.11270407594E+02  0.00000000000E+00 0. -1.
</event>
<event>
 7    1  0.4011333E-009  0.4778727E+02  0.7816164E-02  0.1312668E+00
        -11   -1    0    0    0    0  0.00000000000E+00  0.00000000000E+00  0.45593999997E+02  0.45594000000E+02  0.51100000000E-03 0.  1.
         11   -1    0    0    0    0 -0.00000000000E+00 -0.00000000000E+00 -0.45593999997E+02  0.45594000000E+02  0.51100000000E-03 0. -1.
    9900012    2    1    2    0    0 -0.15893516814E+00  0.41910719682E+02 -0.11273409134E+02  0.47787269151E+02  0.19999991369E+02 0.  0.
        -12    1    1    2    0    0  0.15893516814E+00 -0.41910719682E+02  0.11273409134E+02  0.43400730849E+02  0.00000000000E+00 0.  1.
         11    1    3    3    0    0  0.49955114829E+01  0.11881792108E+02 -0.17463396957E+00  0.12890407905E+02  0.51100000000E-03 0. -1.
        -11    1    3    3    0    0  0.43362091918E+00  0.26431902009E+02 -0.90781134665E+01  0.27950771283E+02  0.51100000000E-03 0.  1.
        -12    1    3    3    0    0 -0.55880675702E+01  0.35970255656E+01 -0.20206616980E+01  0.69460899639E+01  0.00000000000E+00 0.  1.
</event>
<event>
 7    1  0.4011333E-009  0.4778727E+02  0.7816164E-02  0.1312668E+00
        -11   -1    0    0    0    0  0.00000000000E+00  0.00000000000E+00  0.45593999997E+02  0.45594000000E+02  0.51100000000E-03 0.  1.
         11   -1    0    0    0    0 -0.00000000000E+00 -0.00000000000E+00 -0.45593999997E+02  0.45594000000E+02  0.51100000000E-03 0. -1.
    9900012    2    1    2    0    0 -0.43264771995E+02  0.33153140581E+01 -0.88967030558E+00  0.47787270556E+02  0.19999997771E+02 0.  0.
        -12    1    1    2    0    0  0.43264771995E+02 -0.33153140581E+01  0.88967030558E+00  0.43400729444E+02  0.00000000000E+00 0.  1.
         11    1    3    3    0    0  0.16198489410E+00 -0.30604508564E+00  0.96613079328E+00  0.10263097345E+01  0.51100000000E-03 0. -1.
        -11    1    3    3    0    0 -0.12443175585E+02 -0.24302163388E+01  0.62973313227E+01  0.14156092404E+02  0.51100000000E-03 0.  1.
         12    1    3    3    0    0 -0.30983581304E+02  0.60515754826E+01 -0.81531324216E+01  0.32604868417E+02  0.00000000000E+00 0. -1.
</event>
<event>
 7    1  0.4011333E-009  0.4778727E+02  0.7816164E-02  0.1312668E+00
        -11   -1    0    0    0    0  0.00000000000E+00  0.00000000000E+00  0.45593999997E+02  0.45594000000E+02  0.51100000000E-03 0.  1.
         11   -1    0    0    0    0 -0.00000000000E+00 -0.00000000000E+00 -0.45593999997E+02  0.45594000000E+02  0.51100000000E-03 0. -1.
    9900012    2    1    2    0    0  0.58031528365E+01 -0.14306080854E+01 -0.42987209311E+02  0.47787269745E+02  0.19999994073E+02 0.  0.
        -12    1    1    2    0    0 -0.58031528365E+01  0.14306080854E+01  0.42987209311E+02  0.43400730255E+02  0.00000000000E+00 0.  1.
         11    1    3    3    0    0  0.14470556780E+01 -0.30022818405E+01 -0.42233976640E+01  0.53800329436E+01  0.51100000000E-03 0. -1.
        -11    1    3    3    0    0 -0.42466356844E+01 -0.46994091708E+01 -0.17837005262E+02  0.18928209587E+02  0.51100000000E-03 0.  1.
         12    1    3    3    0    0  0.86027328429E+01  0.62710829258E+01 -0.20926806385E+02  0.23479027214E+02  0.00000000000E+00 0. -1.
</event>
<event>
 7    1  0.4011333E-009  0.4778727E+02  0.7816164E-02  0.1312668E+00
        -11   -1    0    0    0    0  0.00000000000E+00  0.00000000000E+00  0.45593999997E+02  0.45594000000E+02  0.51100000000E-03 0.  1.
         11   -1    0    0    0    0 -0.00000000000E+00 -0.00000000000E+00 -0.45593999997E+02  0.45594000000E+02  0.51100000000E-03 0. -1.
    9900012    2    1    2    0    0 -0.16145890048E+02 -0.31234717595E+02 -0.25442597891E+02  0.47787272632E+02  0.20000007237E+02 0.  0.
        -12    1    1    2    0    0  0.16145890048E+02  0.31234717595E+02  0.25442597891E+02  0.43400727368E+02  0.00000000000E+00 0.  1.
         11    1    3    3    0    0  0.78921669785E-01 -0.10912192908E+02 -0.37241966487E+01  0.11530473695E+02  0.51100000000E-03 0. -1.
        -11    1    3    3    0    0 -0.52688775128E+01 -0.76123429451E+00 -0.90638792660E+01  0.10511634293E+02  0.51100000000E-03 0.  1.
         12    1    3    3    0    0 -0.10955934205E+02 -0.19561290393E+02 -0.12654521976E+02  0.25745164644E+02  0.00000000000E+00 0. -1.
</event>
<event>
 7    1  0.4011333E-009  0.4778727E+02  0.7816164E-02  0.1312668E+00
        -11   -1    0    0    0    0  0.00000000000E+00  0.00000000000E+00  0.45593999997E+02  0.45594000000E+02  0.51100000000E-03 0.  1.
         11   -1    0    0    0    0 -0.00000000000E+00 -0.00000000000E+00 -0.45593999997E+02  0.45594000000E+02  0.51100000000E-03 0. -1.
    9900012    2    1    2    0    0 -0.93095299881E+01  0.63405019570E+01 -0.41913648696E+02  0.47787271196E+02  0.20000000693E+02 0.  0.
        -12    1    1    2    0    0  0.93095299881E+01 -0.63405019570E+01  0.41913648696E+02  0.43400728804E+02  0.00000000000E+00 0.  1.
         11    1    3    3    0    0 -0.14145205597E+02  0.58377621427E+01 -0.25257252942E+02  0.29531256910E+02  0.51100000000E-03 0.  1.
        -11    1    3    3    0    0 -0.69912773253E+00 -0.14394240000E+01 -0.39072730377E+01  0.42222628874E+01  0.51100000000E-03 0. -1.
        -12    1    3    3    0    0  0.55348033414E+01  0.19421638143E+01 -0.12749122716E+02  0.14033751400E+02  0.00000000000E+00 0.  1.
</event>
<event>
 7    1  0.4011333E-009  0.4778728E+02  0.7816164E-02  0.1312668E+00
        -11   -1    0    0    0    0  0.00000000000E+00  0.00000000000E+00  0.45593999997E+02  0.45594000000E+02  0.51100000000E-03 0.  1.
         11   -1    0    0    0    0 -0.00000000000E+00 -0.00000000000E+00 -0.45593999997E+02  0.45594000000E+02  0.51100000000E-03 0. -1.
    9900012    2    1    2    0    0  0.17349666226E+02  0.10640308739E+01 -0.39767818136E+02  0.47787280660E+02  0.20000043843E+02 0.  0.
        -12    1    1    2    0    0 -0.17349666226E+02 -0.10640308739E+01  0.39767818136E+02  0.43400719340E+02  0.00000000000E+00 0.  1.
         11    1    3    3    0    0  0.44602888623E+01 -0.37959803146E+00 -0.41805156849E+01  0.61249475960E+01  0.51100000000E-03 0. -1.
        -11    1    3    3    0    0  0.79170785436E+01 -0.53307245316E+00 -0.27592420137E+01  0.84010544372E+01  0.51100000000E-03 0.  1.
         12    1    3    3    0    0  0.49722988204E+01  0.19767013585E+01 -0.32828060438E+02  0.33261278627E+02  0.00000000000E+00 0. -1.
</event>
<event>
 7    1  0.4011333E-009  0.4778728E+02  0.7816164E-02  0.1312668E+00
        -11   -1    0    0    0    0  0.00000000000E+00  0.00000000000E+00  0.45593999997E+02  0.45594000000E+02  0.51100000000E-03 0.  1.
         11   -1    0    0    0    0 -0.00000000000E+00 -0.00000000000E+00 -0.45593999997E+02  0.45594000000E+02  0.51100000000E-03 0. -1.
    9900012    2    1    2    0    0 -0.11268833665E+01  0.37331128324E+02 -0.22107452629E+02  0.47787280308E+02  0.20000042237E+02 0.  0.
        -12    1    1    2    0    0  0.11268833665E+01 -0.37331128324E+02  0.22107452629E+02  0.43400719692E+02  0.00000000000E+00 0.  1.
         11    1    3    3    0    0  0.29759329342E+01  0.13301943209E+02  0.16422596614E+00  0.13631758522E+02  0.51100000000E-03 0. -1.
        -11    1    3    3    0    0 -0.36527377691E+00 -0.51256576249E+00  0.21033322554E+00  0.66361805269E+00  0.51100000000E-03 0.  1.
        -12    1    3    3    0    0 -0.37375425238E+01  0.24541750877E+02 -0.22482011820E+02  0.33491903734E+02  0.00000000000E+00 0.  1.
</event>
<event>
 7    1  0.4011333E-009  0.4778729E+02  0.7816164E-02  0.1312668E+00
        -11   -1    0    0    0    0  0.00000000000E+00  0.00000000000E+00  0.45593999997E+02  0.45594000000E+02  0.51100000000E-03 0.  1.
         11   -1    0    0    0    0 -0.00000000000E+00 -0.00000000000E+00 -0.45593999997E+02  0.45594000000E+02  0.51100000000E-03 0. -1.
    9900012    2    1    2    0    0  0.32120772554E+02 -0.26974709241E+02 -0.11146430861E+02  0.47787286998E+02  0.20000072740E+02 0.  0.
        -12    1    1    2    0    0 -0.32120772554E+02  0.26974709241E+02  0.11146430861E+02  0.43400713002E+02  0.00000000000E+00 0.  1.
         11    1    3    3    0    0  0.12385811665E+01 -0.98838054154E+01 -0.31852810108E+01  0.10457997331E+02  0.51100000000E-03 0. -1.
        -11    1    3    3    0    0  0.18773104436E+02 -0.11166753341E+02 -0.93844408776E+01  0.23773799890E+02  0.51100000000E-03 0.  1.
        -12    1    3    3    0    0  0.12109086951E+02 -0.59241504852E+01  0.14232910277E+01  0.13555489778E+02  0.00000000000E+00 0.  1.
</event>
<event>
 7    1  0.4011333E-009  0.4778727E+02  0.7816164E-02  0.1312668E+00
        -11   -1    0    0    0    0  0.00000000000E+00  0.00000000000E+00  0.45593999997E+02  0.45594000000E+02  0.51100000000E-03 0.  1.
         11   -1    0    0    0    0 -0.00000000000E+00 -0.00000000000E+00 -0.45593999997E+02  0.45594000000E+02  0.51100000000E-03 0. -1.
    9900012    2    1    2    0    0 -0.27022905687E+02  0.33554950244E+02 -0.52393949914E+01  0.47787269851E+02  0.19999994557E+02 0.  0.
        -12    1    1    2    0    0  0.27022905687E+02 -0.33554950244E+02  0.52393949914E+01  0.43400730149E+02  0.00000000000E+00 0.  1.
         11    1    3    3    0    0 -0.22318968089E+02  0.27060773177E+02 -0.48596910109E+01  0.35412404302E+02  0.51100000000E-03 0. -1.
        -11    1    3    3    0    0 -0.41141312754E+01  0.82704351016E+01  0.18945457909E+01  0.94295003545E+01  0.51100000000E-03 0.  1.
        -12    1    3    3    0    0 -0.58980632260E+00 -0.17762580344E+01 -0.22742497714E+01  0.29453651940E+01  0.00000000000E+00 0.  1.
</event>
<event>
 7    1  0.4011333E-009  0.4778727E+02  0.7816164E-02  0.1312668E+00
        -11   -1    0    0    0    0  0.00000000000E+00  0.00000000000E+00  0.45593999997E+02  0.45594000000E+02  0.51100000000E-03 0.  1.
         11   -1    0    0    0    0 -0.00000000000E+00 -0.00000000000E+00 -0.45593999997E+02  0.45594000000E+02  0.51100000000E-03 0. -1.
    9900012    2    1    2    0    0 -0.26657962352E+02  0.33531261638E+02 -0.69735796615E+01  0.47787271007E+02  0.19999999828E+02 0.  0.
        -12    1    1    2    0    0  0.26657962352E+02 -0.33531261638E+02  0.69735796615E+01  0.43400728993E+02  0.00000000000E+00 0.  1.
         11    1    3    3    0    0  0.41013602592E+00  0.45224446242E+00  0.68951394702E+00  0.92095947675E+00  0.51100000000E-03 0. -1.
        -11    1    3    3    0    0 -0.11428058958E+02  0.37921850113E+01 -0.64113987980E+01  0.13641379458E+02  0.51100000000E-03 0.  1.
         12    1    3    3    0    0 -0.15640039421E+02  0.29286832165E+02 -0.12516948106E+01  0.33224932073E+02  0.00000000000E+00 0. -1.
</event>
<event>
 7    1  0.4011333E-009  0.4778728E+02  0.7816164E-02  0.1312668E+00
        -11   -1    0    0    0    0  0.00000000000E+00  0.00000000000E+00  0.45593999997E+02  0.45594000000E+02  0.51100000000E-03 0.  1.
         11   -1    0    0    0    0 -0.00000000000E+00 -0.00000000000E+00 -0.45593999997E+02  0.45594000000E+02  0.51100000000E-03 0. -1.
    9900012    2    1    2    0    0 -0.14135343312E+02  0.28812009050E+02 -0.29217852895E+02  0.47787277381E+02  0.20000028890E+02 0.  0.
        -12    1    1    2    0    0  0.14135343312E+02 -0.28812009050E+02  0.29217852895E+02  0.43400722619E+02  0.00000000000E+00 0.  1.
         11    1    3    3    0    0  0.34706403920E+00  0.25452797371E+01  0.20436244718E+00  0.25769490989E+01  0.51100000000E-03 0. -1.
        -11    1    3    3    0    0 -0.43739147885E+01 -0.16118270785E+01 -0.36213603781E+01  0.59028271496E+01  0.51100000000E-03 0.  1.
         12    1    3    3    0    0 -0.10108492563E+02  0.27878556391E+02 -0.25800854964E+02  0.39307501132E+02  0.00000000000E+00 0. -1.
</event>
<event>
 7    1  0.4011333E-009  0.4778727E+02  0.7816164E-02  0.1312668E+00
        -11   -1    0    0    0    0  0.00000000000E+00  0.00000000000E+00  0.45593999997E+02  0.45594000000E+02  0.51100000000E-03 0.  1.
         11   -1    0    0    0    0 -0.00000000000E+00 -0.00000000000E+00 -0.45593999997E+02  0.45594000000E+02  0.51100000000E-03 0. -1.
    9900012    2    1    2    0    0 -0.27745671280E+02 -0.33335970548E+02  0.15856152666E+01  0.47787269788E+02  0.19999994270E+02 0.  0.
        -12    1    1    2    0    0  0.27745671280E+02  0.33335970548E+02 -0.15856152666E+01  0.43400730212E+02  0.00000000000E+00 0.  1.
         11    1    3    3    0    0 -0.21642075205E+02 -0.23436211695E+02 -0.35039916689E+01  0.32092263797E+02  0.51100000000E-03 0. -1.
        -11    1    3    3    0    0 -0.47265274264E+01 -0.10256529955E+02  0.96776476294E+00  0.11334594705E+02  0.51100000000E-03 0.  1.
        -12    1    3    3    0    0 -0.13770686489E+01  0.35677110123E+00  0.41218421725E+01  0.43604112854E+01  0.00000000000E+00 0.  1.
</event>
<event>
 7    1  0.4011333E-009  0.4778727E+02  0.7816164E-02  0.1312668E+00
        -11   -1    0    0    0    0  0.00000000000E+00  0.00000000000E+00  0.45593999997E+02  0.45594000000E+02  0.51100000000E-03 0.  1.
         11   -1    0    0    0    0 -0.00000000000E+00 -0.00000000000E+00 -0.45593999997E+02  0.45594000000E+02  0.51100000000E-03 0. -1.
    9900012    2    1    2    0    0 -0.21189078394E+02 -0.58671423261E-01 -0.37876680976E+02  0.47787269046E+02  0.19999990890E+02 0.  0.
        -12    1    1    2    0    0  0.21189078394E+02  0.58671423261E-01  0.37876680976E+02  0.43400730954E+02  0.00000000000E+00 0.  1.
         11    1    3    3    0    0 -0.10244553483E+02  0.23607139946E+01 -0.15122975083E+02  0.18418149262E+02  0.51100000000E-03 0. -1.
        -11    1    3    3    0    0 -0.99836423876E+01 -0.26337147980E+01 -0.47964213633E+01  0.11384868340E+02  0.51100000000E-03 0.  1.
        -12    1    3    3    0    0 -0.96088252360E+00  0.21432938014E+00 -0.17957284530E+02  0.17984251444E+02  0.00000000000E+00 0.  1.
</event>
<event>
 7    1  0.4011333E-009  0.4778728E+02  0.7816164E-02  0.1312668E+00
        -11   -1    0    0    0    0  0.00000000000E+00  0.00000000000E+00  0.45593999997E+02  0.45594000000E+02  0.51100000000E-03 0. -1.
         11   -1    0    0    0    0 -0.00000000000E+00 -0.00000000000E+00 -0.45593999997E+02  0.45594000000E+02  0.51100000000E-03 0.  1.
    9900012    2    1    2    0    0  0.38126089440E+02 -0.17162082397E+02 -0.11639880051E+02  0.47787279087E+02  0.20000036667E+02 0.  0.
        -12    1    1    2    0    0 -0.38126089440E+02  0.17162082397E+02  0.11639880051E+02  0.43400720913E+02  0.00000000000E+00 0.  1.
         11    1    3    3    0    0  0.21913495458E+02 -0.11598057646E+02 -0.42550554247E+01  0.25155948029E+02  0.51100000000E-03 0. -1.
        -11    1    3    3    0    0  0.67735115221E+01 -0.69646704465E+01  0.12081032548E+01  0.97901280126E+01  0.51100000000E-03 0.  1.
         12    1    3    3    0    0  0.94390824603E+01  0.14006456954E+01 -0.85929278813E+01  0.12841203044E+02  0.00000000000E+00 0. -1.
</event>
<event>
 7    1  0.4011333E-009  0.4778726E+02  0.7816164E-02  0.1312668E+00
        -11   -1    0    0    0    0  0.00000000000E+00  0.00000000000E+00  0.45593999997E+02  0.45594000000E+02  0.51100000000E-03 0.  1.
         11   -1    0    0    0    0 -0.00000000000E+00 -0.00000000000E+00 -0.45593999997E+02  0.45594000000E+02  0.51100000000E-03 0. -1.
    9900012    2    1    2    0    0  0.53593276660E+01  0.27636970417E+02 -0.33031793690E+02  0.47787263587E+02  0.19999965998E+02 0.  0.
        -12    1    1    2    0    0 -0.53593276660E+01 -0.27636970417E+02  0.33031793690E+02  0.43400736413E+02  0.00000000000E+00 0.  1.
         11    1    3    3    0    0  0.34816567999E+01  0.27817617023E+02 -0.25766073098E+02  0.38076663117E+02  0.51100000000E-03 0. -1.
        -11    1    3    3    0    0  0.24726771998E+01  0.24502735294E+01 -0.26912659646E+01  0.44001006416E+01  0.51100000000E-03 0.  1.
         12    1    3    3    0    0 -0.59500633368E+00 -0.26309201357E+01 -0.45744546268E+01  0.53104998286E+01  0.00000000000E+00 0. -1.
</event>
<event>
 7    1  0.4011333E-009  0.4778727E+02  0.7816164E-02  0.1312668E+00
        -11   -1    0    0    0    0  0.00000000000E+00  0.00000000000E+00  0.45593999997E+02  0.45594000000E+02  0.51100000000E-03 0.  1.
         11   -1    0    0    0    0 -0.00000000000E+00 -0.00000000000E+00 -0.45593999997E+02  0.45594000000E+02  0.51100000000E-03 0. -1.
    9900012    2    1    2    0    0  0.28897259808E+02 -0.29589186423E+02 -0.13154913534E+02  0.47787270425E+02  0.19999997177E+02 0.  0.
        -12    1    1    2    0    0 -0.28897259808E+02  0.29589186423E+02  0.13154913534E+02  0.43400729575E+02  0.00000000000E+00 0.  1.
         11    1    3    3    0    0  0.80469867232E+00 -0.13423230055E+00  0.18619477091E+01  0.20328324565E+01  0.51100000000E-03 0. -1.
        -11    1    3    3    0    0 -0.60575701261E+00 -0.51066893710E+01 -0.40729532857E+01  0.65600431873E+01  0.51100000000E-03 0.  1.
         12    1    3    3    0    0  0.28698318148E+02 -0.24348264751E+02 -0.10943907958E+02  0.39194394781E+02  0.00000000000E+00 0. -1.
</event>
<event>
 7    1  0.4011333E-009  0.4778726E+02  0.7816164E-02  0.1312668E+00
        -11   -1    0    0    0    0  0.00000000000E+00  0.00000000000E+00  0.45593999997E+02  0.45594000000E+02  0.51100000000E-03 0.  1.
         11   -1    0    0    0    0 -0.00000000000E+00 -0.00000000000E+00 -0.45593999997E+02  0.45594000000E+02  0.51100000000E-03 0. -1.
    9900012    2    1    2    0    0 -0.33012777199E+02 -0.15872881119E+02 -0.23277288599E+02  0.47787262934E+02  0.19999963019E+02 0.  0.
        -12    1    1    2    0    0  0.33012777199E+02  0.15872881119E+02  0.23277288599E+02  0.43400737066E+02  0.00000000000E+00 0.  1.
         11    1    3    3    0    0 -0.13151215971E+01 -0.20484144164E+00  0.55395952604E+00  0.14416574659E+01  0.51100000000E-03 0. -1.
        -11    1    3    3    0    0 -0.18039219313E+02 -0.34307039730E+01 -0.30232801772E+01  0.18609765890E+02  0.51100000000E-03 0.  1.
         12    1    3    3    0    0 -0.13658436289E+02 -0.12237335704E+02 -0.20807967948E+02  0.27735839578E+02  0.00000000000E+00 0. -1.
</event>
<event>
 7    1  0.4011333E-009  0.4778727E+02  0.7816164E-02  0.1312668E+00
        -11   -1    0    0    0    0  0.00000000000E+00  0.00000000000E+00  0.45593999997E+02  0.45594000000E+02  0.51100000000E-03 0.  1.
         11   -1    0    0    0    0 -0.00000000000E+00 -0.00000000000E+00 -0.45593999997E+02  0.45594000000E+02  0.51100000000E-03 0. -1.
    9900012    2    1    2    0    0 -0.12674636728E+02 -0.16398140690E+02 -0.38132373470E+02  0.47787270274E+02  0.19999996487E+02 0.  0.
        -12    1    1    2    0    0  0.12674636728E+02  0.16398140690E+02  0.38132373470E+02  0.43400729726E+02  0.00000000000E+00 0.  1.
         11    1    3    3    0    0 -0.76186903413E+01 -0.38846960606E+01 -0.60754964798E+01  0.10490327151E+02  0.51100000000E-03 0. -1.
        -11    1    3    3    0    0  0.22750007427E+01 -0.19422832388E+01 -0.26751604329E+00  0.30032744886E+01  0.51100000000E-03 0.  1.
         12    1    3    3    0    0 -0.73309471293E+01 -0.10571161391E+02 -0.31789360947E+02  0.34293668634E+02  0.00000000000E+00 0. -1.
</event>
<event>
 7    1  0.4011333E-009  0.4778727E+02  0.7816164E-02  0.1312668E+00
        -11   -1    0    0    0    0  0.00000000000E+00  0.00000000000E+00  0.45593999997E+02  0.45594000000E+02  0.51100000000E-03 0.  1.
         11   -1    0    0    0    0 -0.00000000000E+00 -0.00000000000E+00 -0.45593999997E+02  0.45594000000E+02  0.51100000000E-03 0. -1.
    9900012    2    1    2    0    0 -0.50603969167E+01  0.10120308532E+02 -0.41899822536E+02  0.47787269703E+02  0.19999993885E+02 0.  0.
        -12    1    1    2    0    0  0.50603969167E+01 -0.10120308532E+02  0.41899822536E+02  0.43400730297E+02  0.00000000000E+00 0.  1.
         11    1    3    3    0    0 -0.80168662150E+01  0.76782143584E+01 -0.24460424952E+02  0.26861450236E+02  0.51100000000E-03 0. -1.
        -11    1    3    3    0    0  0.48626529652E+00  0.54639392186E+01 -0.36358128489E+01  0.65810501485E+01  0.51100000000E-03 0.  1.
         12    1    3    3    0    0  0.24702040017E+01 -0.30218450451E+01 -0.13803584735E+02  0.14344769319E+02  0.00000000000E+00 0. -1.
</event>
<event>
 7    1  0.4011333E-009  0.4778727E+02  0.7816164E-02  0.1312668E+00
        -11   -1    0    0    0    0  0.00000000000E+00  0.00000000000E+00  0.45593999997E+02  0.45594000000E+02  0.51100000000E-03 0.  1.
         11   -1    0    0    0    0 -0.00000000000E+00 -0.00000000000E+00 -0.45593999997E+02  0.45594000000E+02  0.51100000000E-03 0. -1.
    9900012    2    1    2    0    0  0.69132963276E+00 -0.42354137529E+02 -0.94484069768E+01  0.47787270779E+02  0.19999998789E+02 0.  0.
        -12    1    1    2    0    0 -0.69132963276E+00  0.42354137529E+02  0.94484069768E+01  0.43400729221E+02  0.00000000000E+00 0.  1.
         11    1    3    3    0    0 -0.18941385356E+01 -0.11910480051E+02  0.21001504975E+01  0.12241647283E+02  0.51100000000E-03 0. -1.
        -11    1    3    3    0    0 -0.45735038598E+01 -0.20244070662E+02 -0.45267667144E+01  0.21242197430E+02  0.51100000000E-03 0.  1.
         12    1    3    3    0    0  0.71589720281E+01 -0.10199586817E+02 -0.70217907599E+01  0.14303426065E+02  0.00000000000E+00 0. -1.
</event>
<event>
 7    1  0.4011333E-009  0.4778727E+02  0.7816164E-02  0.1312668E+00
        -11   -1    0    0    0    0  0.00000000000E+00  0.00000000000E+00  0.45593999997E+02  0.45594000000E+02  0.51100000000E-03 0.  1.
         11   -1    0    0    0    0 -0.00000000000E+00 -0.00000000000E+00 -0.45593999997E+02  0.45594000000E+02  0.51100000000E-03 0. -1.
    9900012    2    1    2    0    0  0.83225423916E+01 -0.40034131480E+02 -0.14547400415E+02  0.47787271273E+02  0.20000001043E+02 0.  0.
        -12    1    1    2    0    0 -0.83225423916E+01  0.40034131480E+02  0.14547400415E+02  0.43400728727E+02  0.00000000000E+00 0.  1.
         11    1    3    3    0    0  0.78266742684E-01 -0.26695758261E+01 -0.67223326025E+01  0.72334304901E+01  0.51100000000E-03 0. -1.
        -11    1    3    3    0    0  0.52714768745E+01 -0.53700866159E+01 -0.19256788790E+00  0.75275083098E+01  0.51100000000E-03 0.  1.
         12    1    3    3    0    0  0.29727987743E+01 -0.31994469038E+02 -0.76324999242E+01  0.33026332473E+02  0.00000000000E+00 0. -1.
</event>
<event>
 7    1  0.4011333E-009  0.4778727E+02  0.7816164E-02  0.1312668E+00
        -11   -1    0    0    0    0  0.00000000000E+00  0.00000000000E+00  0.45593999997E+02  0.45594000000E+02  0.51100000000E-03 0.  1.
         11   -1    0    0    0    0 -0.00000000000E+00 -0.00000000000E+00 -0.45593999997E+02  0.45594000000E+02  0.51100000000E-03 0. -1.
    9900012    2    1    2    0    0  0.42221062669E+02  0.24200474053E+01 -0.97544025548E+01  0.47787272684E+02  0.20000007477E+02 0.  0.
        -12    1    1    2    0    0 -0.42221062669E+02 -0.24200474053E+01  0.97544025548E+01  0.43400727316E+02  0.00000000000E+00 0.  1.
         11    1    3    3    0    0  0.11313794967E+01  0.14073406405E+01  0.22651788255E+01  0.28968366569E+01  0.51100000000E-03 0. -1.
        -11    1    3    3    0    0  0.12614084341E+01  0.24832553259E+01 -0.28678715467E+01  0.39977988595E+01  0.51100000000E-03 0.  1.
         12    1    3    3    0    0  0.39828274738E+02 -0.14705485611E+01 -0.91517098336E+01  0.40892637168E+02  0.00000000000E+00 0. -1.
</event>
<event>
 7    1  0.4011333E-009  0.4778727E+02  0.7816164E-02  0.1312668E+00
        -11   -1    0    0    0    0  0.00000000000E+00  0.00000000000E+00  0.45593999997E+02  0.45594000000E+02  0.51100000000E-03 0.  1.
         11   -1    0    0    0    0 -0.00000000000E+00 -0.00000000000E+00 -0.45593999997E+02  0.45594000000E+02  0.51100000000E-03 0. -1.
    9900012    2    1    2    0    0  0.30702463948E+02  0.84866536665E+01 -0.29478106424E+02  0.47787270268E+02  0.19999996458E+02 0.  0.
        -12    1    1    2    0    0 -0.30702463948E+02 -0.84866536665E+01  0.29478106424E+02  0.43400729732E+02  0.00000000000E+00 0.  1.
         11    1    3    3    0    0  0.10992199377E+02  0.10402471401E+02 -0.92580543492E+01  0.17741235272E+02  0.51100000000E-03 0. -1.
        -11    1    3    3    0    0  0.51403391320E+01 -0.29977807932E+00 -0.97465922297E-01  0.51499954520E+01  0.51100000000E-03 0.  1.
        -12    1    3    3    0    0  0.14569925439E+02 -0.16160396549E+01 -0.20122586153E+02  0.24896039543E+02  0.00000000000E+00 0.  1.
</event>
<event>
 7    1  0.4011333E-009  0.4778727E+02  0.7816164E-02  0.1312668E+00
        -11   -1    0    0    0    0  0.00000000000E+00  0.00000000000E+00  0.45593999997E+02  0.45594000000E+02  0.51100000000E-03 0.  1.
         11   -1    0    0    0    0 -0.00000000000E+00 -0.00000000000E+00 -0.45593999997E+02  0.45594000000E+02  0.51100000000E-03 0. -1.
    9900012    2    1    2    0    0 -0.23441310362E+02 -0.35900119147E+02 -0.67312343635E+01  0.47787273021E+02  0.20000009010E+02 0.  0.
        -12    1    1    2    0    0  0.23441310362E+02  0.35900119147E+02  0.67312343635E+01  0.43400726979E+02  0.00000000000E+00 0.  1.
         11    1    3    3    0    0 -0.80361503354E+01 -0.13223112077E+02  0.14291121014E+01  0.15539394032E+02  0.51100000000E-03 0. -1.
        -11    1    3    3    0    0 -0.70130167497E+01 -0.20289200616E+02 -0.19854268229E+01  0.21558663815E+02  0.51100000000E-03 0.  1.
        -12    1    3    3    0    0 -0.83921432772E+01 -0.23878064546E+01 -0.61749196421E+01  0.10689215174E+02  0.00000000000E+00 0.  1.
</event>
<event>
 7    1  0.4011333E-009  0.4778727E+02  0.7816164E-02  0.1312668E+00
        -11   -1    0    0    0    0  0.00000000000E+00  0.00000000000E+00  0.45593999997E+02  0.45594000000E+02  0.51100000000E-03 0.  1.
         11   -1    0    0    0    0 -0.00000000000E+00 -0.00000000000E+00 -0.45593999997E+02  0.45594000000E+02  0.51100000000E-03 0. -1.
    9900012    2    1    2    0    0  0.18244886713E+02 -0.22399595122E+02 -0.32388351778E+02  0.47787273236E+02  0.20000009991E+02 0.  0.
        -12    1    1    2    0    0 -0.18244886713E+02  0.22399595122E+02  0.32388351778E+02  0.43400726764E+02  0.00000000000E+00 0.  1.
         11    1    3    3    0    0 -0.15013473278E+01 -0.90989568199E+01 -0.81017765845E+01  0.12275334745E+02  0.51100000000E-03 0. -1.
        -11    1    3    3    0    0  0.96248508650E+01 -0.11401846972E+02 -0.18256559002E+02  0.23578418425E+02  0.51100000000E-03 0.  1.
        -12    1    3    3    0    0  0.10121383176E+02 -0.18987913300E+01 -0.60300161907E+01  0.11933520066E+02  0.00000000000E+00 0.  1.
</event>
<event>
 7    1  0.4011333E-009  0.4778726E+02  0.7816164E-02  0.1312668E+00
        -11   -1    0    0    0    0  0.00000000000E+00  0.00000000000E+00  0.45593999997E+02  0.45594000000E+02  0.51100000000E-03 0.  1.
         11   -1    0    0    0    0 -0.00000000000E+00 -0.00000000000E+00 -0.45593999997E+02  0.45594000000E+02  0.51100000000E-03 0. -1.
    9900012    2    1    2    0    0  0.59354621111E+01 -0.24294377085E+02 -0.35470797201E+02  0.47787263572E+02  0.19999965931E+02 0.  0.
        -12    1    1    2    0    0 -0.59354621111E+01  0.24294377085E+02  0.35470797201E+02  0.43400736428E+02  0.00000000000E+00 0.  1.
         11    1    3    3    0    0  0.16200396089E+01 -0.51458936225E+01 -0.13792716650E+02  0.14810259362E+02  0.51100000000E-03 0. -1.
        -11    1    3    3    0    0 -0.28402113855E+01  0.89156231873E+00 -0.62231631352E+00  0.30412106040E+01  0.51100000000E-03 0.  1.
         12    1    3    3    0    0  0.71556338877E+01 -0.20040045781E+02 -0.21055764237E+02  0.29935793607E+02  0.00000000000E+00 0. -1.
</event>
<event>
 7    1  0.4011333E-009  0.4778727E+02  0.7816164E-02  0.1312668E+00
        -11   -1    0    0    0    0  0.00000000000E+00  0.00000000000E+00  0.45593999997E+02  0.45594000000E+02  0.51100000000E-03 0.  1.
         11   -1    0    0    0    0 -0.00000000000E+00 -0.00000000000E+00 -0.45593999997E+02  0.45594000000E+02  0.51100000000E-03 0. -1.
    9900012    2    1    2    0    0 -0.34124158242E+02 -0.98036869040E+01 -0.24961030945E+02  0.47787268226E+02  0.19999987151E+02 0.  0.
        -12    1    1    2    0    0  0.34124158242E+02  0.98036869040E+01  0.24961030945E+02  0.43400731774E+02  0.00000000000E+00 0.  1.
         11    1    3    3    0    0 -0.25859995602E+02 -0.61922219781E+01 -0.12920517969E+02  0.29563876106E+02  0.51100000000E-03 0. -1.
        -11    1    3    3    0    0 -0.29504376807E+01 -0.31643105571E+01  0.72695082281E+00  0.43870720953E+01  0.51100000000E-03 0.  1.
         12    1    3    3    0    0 -0.53137249595E+01 -0.44715436880E+00 -0.12767463799E+02  0.13836320025E+02  0.00000000000E+00 0. -1.
</event>
<event>
 7    1  0.4011333E-009  0.4778727E+02  0.7816164E-02  0.1312668E+00
        -11   -1    0    0    0    0  0.00000000000E+00  0.00000000000E+00  0.45593999997E+02  0.45594000000E+02  0.51100000000E-03 0. -1.
         11   -1    0    0    0    0 -0.00000000000E+00 -0.00000000000E+00 -0.45593999997E+02  0.45594000000E+02  0.51100000000E-03 0.  1.
    9900012    2    1    2    0    0 -0.10618451364E+02 -0.38750531394E+02  0.16409399371E+02  0.47787267513E+02  0.19999983899E+02 0.  0.
        -12    1    1    2    0    0  0.10618451364E+02  0.38750531394E+02 -0.16409399371E+02  0.43400732487E+02  0.00000000000E+00 0.  1.
         11    1    3    3    0    0 -0.50464404309E+01 -0.11608985364E+02  0.11521883837E+02  0.17116918812E+02  0.51100000000E-03 0. -1.
        -11    1    3    3    0    0 -0.78866111409E+01 -0.10459332594E+02  0.44089022523E+01  0.13821530050E+02  0.51100000000E-03 0.  1.
         12    1    3    3    0    0  0.23146002080E+01 -0.16682213436E+02  0.47861328201E+00  0.16848818651E+02  0.00000000000E+00 0. -1.
</event>
<event>
 7    1  0.4011333E-009  0.4778727E+02  0.7816164E-02  0.1312668E+00
        -11   -1    0    0    0    0  0.00000000000E+00  0.00000000000E+00  0.45593999997E+02  0.45594000000E+02  0.51100000000E-03 0. -1.
         11   -1    0    0    0    0 -0.00000000000E+00 -0.00000000000E+00 -0.45593999997E+02  0.45594000000E+02  0.51100000000E-03 0.  1.
    9900012    2    1    2    0    0 -0.42720066781E+02 -0.66990959017E+00 -0.76269619744E+01  0.47787269205E+02  0.19999991613E+02 0.  0.
        -12    1    1    2    0    0  0.42720066781E+02  0.66990959017E+00  0.76269619744E+01  0.43400730795E+02  0.00000000000E+00 0.  1.
         11    1    3    3    0    0 -0.14788829606E+02  0.33238645136E+01  0.48895259993E+01  0.15926864763E+02  0.51100000000E-03 0. -1.
        -11    1    3    3    0    0 -0.15859799180E+02 -0.57583949436E+01 -0.52979192065E+01  0.17685030125E+02  0.51100000000E-03 0.  1.
        -12    1    3    3    0    0 -0.12071437994E+02  0.17646208398E+01 -0.72185687672E+01  0.14175374316E+02  0.00000000000E+00 0.  1.
</event>
<event>
 7    1  0.4011333E-009  0.4778726E+02  0.7816164E-02  0.1312668E+00
        -11   -1    0    0    0    0  0.00000000000E+00  0.00000000000E+00  0.45593999997E+02  0.45594000000E+02  0.51100000000E-03 0.  1.
         11   -1    0    0    0    0 -0.00000000000E+00 -0.00000000000E+00 -0.45593999997E+02  0.45594000000E+02  0.51100000000E-03 0. -1.
    9900012    2    1    2    0    0 -0.14200389339E+01 -0.27863965013E+02 -0.33244649978E+02  0.47787264879E+02  0.19999971891E+02 0.  0.
        -12    1    1    2    0    0  0.14200389339E+01  0.27863965013E+02  0.33244649978E+02  0.43400735121E+02  0.00000000000E+00 0.  1.
         11    1    3    3    0    0  0.18992310204E+01 -0.60939217167E+01 -0.26818416892E+01  0.69235276749E+01  0.51100000000E-03 0. -1.
        -11    1    3    3    0    0  0.41554452662E+01 -0.22694635049E+00 -0.64524791641E+01  0.76781324311E+01  0.51100000000E-03 0.  1.
         12    1    3    3    0    0 -0.74747152206E+01 -0.21543096946E+02 -0.24110329125E+02  0.33185604773E+02  0.00000000000E+00 0. -1.
</event>
<event>
 7    1  0.4408884E-009  0.4778727E+02  0.7816164E-02  0.1312668E+00
        -11   -1    0    0    0    0  0.00000000000E+00  0.00000000000E+00  0.45593999997E+02  0.45594000000E+02  0.51100000000E-03 0. -1.
         11   -1    0    0    0    0 -0.00000000000E+00 -0.00000000000E+00 -0.45593999997E+02  0.45594000000E+02  0.51100000000E-03 0.  1.
    9900012    2    1    2    0    0 -0.33495833479E+02 -0.77534528322E+01  0.26486540390E+02  0.47787265984E+02  0.19999976929E+02 0.  0.
        -12    1    1    2    0    0  0.33495833479E+02  0.77534528322E+01 -0.26486540390E+02  0.43400734016E+02  0.00000000000E+00 0.  1.
         11    1    3    3    0    0 -0.26043259800E+02 -0.55371810932E+01  0.19892353605E+02  0.33235786250E+02  0.51100000000E-03 0. -1.
        -11    1    3    3    0    0 -0.38686869794E+01 -0.51826240443E+01  0.74022917824E+01  0.98295602558E+01  0.51100000000E-03 0.  1.
        -12    1    3    3    0    0 -0.35838866994E+01  0.29663523053E+01 -0.80810499708E+00  0.47219194783E+01  0.00000000000E+00 0.  1.
</event>
<event>
 7    1  0.4011333E-009  0.4778727E+02  0.7816164E-02  0.1312668E+00
        -11   -1    0    0    0    0  0.00000000000E+00  0.00000000000E+00  0.45593999997E+02  0.45594000000E+02  0.51100000000E-03 0.  1.
         11   -1    0    0    0    0 -0.00000000000E+00 -0.00000000000E+00 -0.45593999997E+02  0.45594000000E+02  0.51100000000E-03 0. -1.
    9900012    2    1    2    0    0  0.41900259013E+02 -0.90495154704E+01  0.67895741130E+01  0.47787265534E+02  0.19999974875E+02 0.  0.
        -12    1    1    2    0    0 -0.41900259013E+02  0.90495154704E+01 -0.67895741130E+01  0.43400734466E+02  0.00000000000E+00 0.  1.
         11    1    3    3    0    0  0.12457456249E+02  0.48173259752E+00 -0.17927711369E+01  0.12595011357E+02  0.51100000000E-03 0. -1.
        -11    1    3    3    0    0  0.16043840093E+02  0.90136206044E+00  0.85681891982E+01  0.18210742020E+02  0.51100000000E-03 0.  1.
         12    1    3    3    0    0  0.13398962671E+02 -0.10432610128E+02  0.14156051657E-01  0.16981512157E+02  0.00000000000E+00 0. -1.
</event>
<event>
 7    1  0.4011333E-009  0.4778728E+02  0.7816164E-02  0.1312668E+00
        -11   -1    0    0    0    0  0.00000000000E+00  0.00000000000E+00  0.45593999997E+02  0.45594000000E+02  0.51100000000E-03 0.  1.
         11   -1    0    0    0    0 -0.00000000000E+00 -0.00000000000E+00 -0.45593999997E+02  0.45594000000E+02  0.51100000000E-03 0. -1.
    9900012    2    1    2    0    0  0.65128290233E+01  0.34580521420E+02 -0.25404587361E+02  0.47787280391E+02  0.20000042616E+02 0.  0.
        -12    1    1    2    0    0 -0.65128290233E+01 -0.34580521420E+02  0.25404587361E+02  0.43400719609E+02  0.00000000000E+00 0.  1.
         11    1    3    3    0    0  0.48596922814E+01  0.69340280103E+01 -0.81353738311E+00  0.85064209190E+01  0.51100000000E-03 0. -1.
        -11    1    3    3    0    0 -0.46952839488E+01  0.83934337862E+01 -0.40962625597E+01  0.10453458246E+02  0.51100000000E-03 0.  1.
         12    1    3    3    0    0  0.63484206908E+01  0.19253059624E+02 -0.20494787418E+02  0.28827401226E+02  0.00000000000E+00 0. -1.
</event>
<event>
 7    1  0.4011333E-009  0.4778727E+02  0.7816164E-02  0.1312668E+00
        -11   -1    0    0    0    0  0.00000000000E+00  0.00000000000E+00  0.45593999997E+02  0.45594000000E+02  0.51100000000E-03 0.  1.
         11   -1    0    0    0    0 -0.00000000000E+00 -0.00000000000E+00 -0.45593999997E+02  0.45594000000E+02  0.51100000000E-03 0. -1.
    9900012    2    1    2    0    0 -0.80223212502E+01  0.12393410895E+02 -0.40812609699E+02  0.47787269795E+02  0.19999994304E+02 0.  0.
        -12    1    1    2    0    0  0.80223212502E+01 -0.12393410895E+02  0.40812609699E+02  0.43400730205E+02  0.00000000000E+00 0.  1.
         11    1    3    3    0    0 -0.31764184869E+00 -0.14342954356E+00 -0.17376506188E+01  0.17722579699E+01  0.51100000000E-03 0. -1.
        -11    1    3    3    0    0 -0.11313548782E+02  0.11175828102E+01 -0.12679796739E+02  0.17030050587E+02  0.51100000000E-03 0.  1.
         12    1    3    3    0    0  0.36088693803E+01  0.11419257629E+02 -0.26395162341E+02  0.28984961238E+02  0.00000000000E+00 0. -1.
</event>
<event>
 7    1  0.4011333E-009  0.4778727E+02  0.7816164E-02  0.1312668E+00
        -11   -1    0    0    0    0  0.00000000000E+00  0.00000000000E+00  0.45593999997E+02  0.45594000000E+02  0.51100000000E-03 0.  1.
         11   -1    0    0    0    0 -0.00000000000E+00 -0.00000000000E+00 -0.45593999997E+02  0.45594000000E+02  0.51100000000E-03 0. -1.
    9900012    2    1    2    0    0  0.30581016865E+02 -0.26686574522E+02 -0.15370462250E+02  0.47787274637E+02  0.20000016381E+02 0.  0.
        -12    1    1    2    0    0 -0.30581016865E+02  0.26686574522E+02  0.15370462250E+02  0.43400725363E+02  0.00000000000E+00 0.  1.
         11    1    3    3    0    0  0.64307292987E+01 -0.20732558564E+01 -0.90536033497E+01  0.11296920068E+02  0.51100000000E-03 0. -1.
        -11    1    3    3    0    0  0.74554880159E+00 -0.53726451753E+01  0.45946600338E+00  0.54435529266E+01  0.51100000000E-03 0.  1.
         12    1    3    3    0    0  0.23404738765E+02 -0.19240673490E+02 -0.67763249039E+01  0.31046801642E+02  0.00000000000E+00 0. -1.
</event>
<event>
 7    1  0.4011333E-009  0.4778727E+02  0.7816164E-02  0.1312668E+00
        -11   -1    0    0    0    0  0.00000000000E+00  0.00000000000E+00  0.45593999997E+02  0.45594000000E+02  0.51100000000E-03 0.  1.
         11   -1    0    0    0    0 -0.00000000000E+00 -0.00000000000E+00 -0.45593999997E+02  0.45594000000E+02  0.51100000000E-03 0. -1.
    9900012    2    1    2    0    0  0.14306161063E+01 -0.20169670533E+02 -0.38402616126E+02  0.47787271928E+02  0.20000004031E+02 0.  0.
        -12    1    1    2    0    0 -0.14306161063E+01  0.20169670533E+02  0.38402616126E+02  0.43400728072E+02  0.00000000000E+00 0.  1.
         11    1    3    3    0    0 -0.45536194151E+01 -0.25184027102E+01 -0.13433144719E+02  0.14405803667E+02  0.51100000000E-03 0. -1.
        -11    1    3    3    0    0  0.23557364338E+01 -0.39392964534E+01 -0.15891848672E+02  0.16541414848E+02  0.51100000000E-03 0.  1.
        -12    1    3    3    0    0  0.36284990876E+01 -0.13711971369E+02 -0.90776227344E+01  0.16840053414E+02  0.00000000000E+00 0.  1.
</event>
<event>
 7    1  0.4011333E-009  0.4778727E+02  0.7816164E-02  0.1312668E+00
        -11   -1    0    0    0    0  0.00000000000E+00  0.00000000000E+00  0.45593999997E+02  0.45594000000E+02  0.51100000000E-03 0.  1.
         11   -1    0    0    0    0 -0.00000000000E+00 -0.00000000000E+00 -0.45593999997E+02  0.45594000000E+02  0.51100000000E-03 0. -1.
    9900012    2    1    2    0    0 -0.34798916074E+02  0.14123544773E+02  0.21752797599E+02  0.47787270970E+02  0.19999999663E+02 0.  0.
        -12    1    1    2    0    0  0.34798916074E+02 -0.14123544773E+02 -0.21752797599E+02  0.43400729030E+02  0.00000000000E+00 0.  1.
         11    1    3    3    0    0 -0.11367694352E+02  0.52493268316E+01  0.36669623531E+01  0.13047088573E+02  0.51100000000E-03 0. -1.
        -11    1    3    3    0    0 -0.55633484952E+01  0.97765763686E+01  0.10215113213E+02  0.15194763249E+02  0.51100000000E-03 0.  1.
        -12    1    3    3    0    0 -0.17867873227E+02 -0.90235842692E+00  0.78707220332E+01  0.19545419149E+02  0.00000000000E+00 0.  1.
</event>
<event>
 7    1  0.4011333E-009  0.4778723E+02  0.7816164E-02  0.1312668E+00
        -11   -1    0    0    0    0  0.00000000000E+00  0.00000000000E+00  0.45593999997E+02  0.45594000000E+02  0.51100000000E-03 0.  1.
         11   -1    0    0    0    0 -0.00000000000E+00 -0.00000000000E+00 -0.45593999997E+02  0.45594000000E+02  0.51100000000E-03 0. -1.
    9900012    2    1    2    0    0 -0.20502869442E+02 -0.16711621217E+02 -0.34409017269E+02  0.47787234932E+02  0.19999835349E+02 0.  0.
        -12    1    1    2    0    0  0.20502869442E+02  0.16711621217E+02  0.34409017269E+02  0.43400765068E+02  0.00000000000E+00 0.  1.
         11    1    3    3    0    0 -0.75996790008E+01 -0.38694101340E+01 -0.20901770944E+02  0.22574576066E+02  0.51100000000E-03 0. -1.
        -11    1    3    3    0    0 -0.69408264923E+01  0.15584373308E+00 -0.52048438033E+01  0.86769671512E+01  0.51100000000E-03 0.  1.
        -12    1    3    3    0    0 -0.59623639491E+01 -0.12998054816E+02 -0.83024025217E+01  0.16535691715E+02  0.00000000000E+00 0.  1.
</event>
<event>
 7    1  0.4011333E-009  0.4778728E+02  0.7816164E-02  0.1312668E+00
        -11   -1    0    0    0    0  0.00000000000E+00  0.00000000000E+00  0.45593999997E+02  0.45594000000E+02  0.51100000000E-03 0. -1.
         11   -1    0    0    0    0 -0.00000000000E+00 -0.00000000000E+00 -0.45593999997E+02  0.45594000000E+02  0.51100000000E-03 0.  1.
    9900012    2    1    2    0    0 -0.33824117696E+02 -0.21092050216E+02  0.17166166938E+02  0.47787276417E+02  0.20000024494E+02 0.  0.
        -12    1    1    2    0    0  0.33824117696E+02  0.21092050216E+02 -0.17166166938E+02  0.43400723583E+02  0.00000000000E+00 0.  1.
         11    1    3    3    0    0 -0.28039590038E+02 -0.16411408787E+02  0.12350018237E+02  0.34757386245E+02  0.51100000000E-03 0.  1.
        -11    1    3    3    0    0 -0.79987814239E+01 -0.54890866326E+01  0.33980217393E+01  0.10278965334E+02  0.51100000000E-03 0. -1.
        -12    1    3    3    0    0  0.22142537656E+01  0.80844520366E+00  0.14181269617E+01  0.27509248382E+01  0.00000000000E+00 0.  1.
</event>
<event>
 7    1  0.4011333E-009  0.4778727E+02  0.7816164E-02  0.1312668E+00
        -11   -1    0    0    0    0  0.00000000000E+00  0.00000000000E+00  0.45593999997E+02  0.45594000000E+02  0.51100000000E-03 0.  1.
         11   -1    0    0    0    0 -0.00000000000E+00 -0.00000000000E+00 -0.45593999997E+02  0.45594000000E+02  0.51100000000E-03 0. -1.
    9900012    2    1    2    0    0 -0.34326021628E+02 -0.74517472040E+01 -0.25491546897E+02  0.47787271199E+02  0.20000000706E+02 0.  0.
        -12    1    1    2    0    0  0.34326021628E+02  0.74517472040E+01  0.25491546897E+02  0.43400728801E+02  0.00000000000E+00 0.  1.
         11    1    3    3    0    0 -0.21401059931E+02 -0.45977862180E+01 -0.21806658270E+02  0.30897821112E+02  0.51100000000E-03 0. -1.
        -11    1    3    3    0    0 -0.80034628221E+01  0.20499094495E+01 -0.52220855214E+01  0.97738284899E+01  0.51100000000E-03 0.  1.
        -12    1    3    3    0    0 -0.49214988753E+01 -0.49038704355E+01  0.15371968944E+01  0.71156215976E+01  0.00000000000E+00 0.  1.
</event>
<event>
 7    1  0.4011333E-009  0.4778727E+02  0.7816164E-02  0.1312668E+00
        -11   -1    0    0    0    0  0.00000000000E+00  0.00000000000E+00  0.45593999997E+02  0.45594000000E+02  0.51100000000E-03 0.  1.
         11   -1    0    0    0    0 -0.00000000000E+00 -0.00000000000E+00 -0.45593999997E+02  0.45594000000E+02  0.51100000000E-03 0. -1.
    9900012    2    1    2    0    0 -0.29030901225E+02 -0.12489783173E+02 -0.29746177804E+02  0.47787274159E+02  0.20000014198E+02 0.  0.
        -12    1    1    2    0    0  0.29030901225E+02  0.12489783173E+02  0.29746177804E+02  0.43400725841E+02  0.00000000000E+00 0.  1.
         11    1    3    3    0    0 -0.19975610525E+02 -0.66670922047E+01 -0.11290491945E+02  0.23894567226E+02  0.51100000000E-03 0. -1.
        -11    1    3    3    0    0 -0.10350761508E+01 -0.22486444111E-01  0.13797079441E+01  0.17249587097E+01  0.51100000000E-03 0.  1.
         12    1    3    3    0    0 -0.80202145487E+01 -0.58002045243E+01 -0.19835393803E+02  0.22167748222E+02  0.00000000000E+00 0. -1.
</event>
<event>
 7    1  0.4011333E-009  0.4778727E+02  0.7816164E-02  0.1312668E+00
        -11   -1    0    0    0    0  0.00000000000E+00  0.00000000000E+00  0.45593999997E+02  0.45594000000E+02  0.51100000000E-03 0.  1.
         11   -1    0    0    0    0 -0.00000000000E+00 -0.00000000000E+00 -0.45593999997E+02  0.45594000000E+02  0.51100000000E-03 0. -1.
    9900012    2    1    2    0    0  0.32451075151E+02  0.27346070023E+01 -0.28689248339E+02  0.47787270465E+02  0.19999997359E+02 0.  0.
        -12    1    1    2    0    0 -0.32451075151E+02 -0.27346070023E+01  0.28689248339E+02  0.43400729535E+02  0.00000000000E+00 0.  1.
         11    1    3    3    0    0  0.31424680074E+02  0.57441491132E+01 -0.18614356792E+02  0.36972963714E+02  0.51100000000E-03 0. -1.
        -11    1    3    3    0    0  0.23867402965E+00 -0.74356595530E+00 -0.46366813075E+00  0.90820923740E+00  0.51100000000E-03 0.  1.
        -12    1    3    3    0    0  0.78772104741E+00 -0.22659761556E+01 -0.96112234166E+01  0.99060975137E+01  0.00000000000E+00 0.  1.
</event>
<event>
 7    1  0.4011333E-009  0.4778727E+02  0.7816164E-02  0.1312668E+00
        -11   -1    0    0    0    0  0.00000000000E+00  0.00000000000E+00  0.45593999997E+02  0.45594000000E+02  0.51100000000E-03 0. -1.
         11   -1    0    0    0    0 -0.00000000000E+00 -0.00000000000E+00 -0.45593999997E+02  0.45594000000E+02  0.51100000000E-03 0.  1.
    9900012    2    1    2    0    0  0.26732637098E+02  0.24258506480E+02  0.24093862822E+02  0.47787271337E+02  0.20000001332E+02 0.  0.
        -12    1    1    2    0    0 -0.26732637098E+02 -0.24258506480E+02 -0.24093862822E+02  0.43400728663E+02  0.00000000000E+00 0.  1.
         11    1    3    3    0    0  0.84365421878E+01  0.12834551348E+02  0.76995059976E+01  0.17180900595E+02  0.51100000000E-03 0. -1.
        -11    1    3    3    0    0  0.49520844360E+01  0.10021280188E+02  0.12204459811E+02  0.16549865147E+02  0.51100000000E-03 0.  1.
        -12    1    3    3    0    0  0.13344010474E+02  0.14026749440E+01  0.41898970137E+01  0.14056505594E+02  0.00000000000E+00 0.  1.
</event>
<event>
 7    1  0.4011333E-009  0.4778727E+02  0.7816164E-02  0.1312668E+00
        -11   -1    0    0    0    0  0.00000000000E+00  0.00000000000E+00  0.45593999997E+02  0.45594000000E+02  0.51100000000E-03 0.  1.
         11   -1    0    0    0    0 -0.00000000000E+00 -0.00000000000E+00 -0.45593999997E+02  0.45594000000E+02  0.51100000000E-03 0. -1.
    9900012    2    1    2    0    0 -0.16485754021E+02 -0.20843297975E+02 -0.34313261924E+02  0.47787273048E+02  0.20000009134E+02 0.  0.
        -12    1    1    2    0    0  0.16485754021E+02  0.20843297975E+02  0.34313261924E+02  0.43400726952E+02  0.00000000000E+00 0.  1.
         11    1    3    3    0    0 -0.26977096501E+01  0.13573511530E+00  0.62737684130E+00  0.27730242228E+01  0.51100000000E-03 0. -1.
        -11    1    3    3    0    0 -0.11109378101E+02 -0.96943132258E+01 -0.10945559038E+02  0.18363094882E+02  0.51100000000E-03 0.  1.
         12    1    3    3    0    0 -0.26786662695E+01 -0.11284719865E+02 -0.23995079727E+02  0.26651153943E+02  0.00000000000E+00 0. -1.
</event>
<event>
 7    1  0.4011333E-009  0.4778727E+02  0.7816164E-02  0.1312668E+00
        -11   -1    0    0    0    0  0.00000000000E+00  0.00000000000E+00  0.45593999997E+02  0.45594000000E+02  0.51100000000E-03 0.  1.
         11   -1    0    0    0    0 -0.00000000000E+00 -0.00000000000E+00 -0.45593999997E+02  0.45594000000E+02  0.51100000000E-03 0. -1.
    9900012    2    1    2    0    0  0.16565164749E+00 -0.21950423996E+02 -0.37440279182E+02  0.47787273517E+02  0.20000011271E+02 0.  0.
        -12    1    1    2    0    0 -0.16565164749E+00  0.21950423996E+02  0.37440279182E+02  0.43400726483E+02  0.00000000000E+00 0.  1.
         11    1    3    3    0    0 -0.47993830801E+01 -0.20162776715E+02 -0.25333827621E+02  0.32731857036E+02  0.51100000000E-03 0. -1.
        -11    1    3    3    0    0 -0.14289777928E+01 -0.44692692399E+00 -0.57446758398E+01  0.59365833585E+01  0.51100000000E-03 0.  1.
        -12    1    3    3    0    0  0.63940125203E+01 -0.13407203568E+01 -0.63617757208E+01  0.91188331220E+01  0.00000000000E+00 0.  1.
</event>
<event>
 7    1  0.4011333E-009  0.4778727E+02  0.7816164E-02  0.1312668E+00
        -11   -1    0    0    0    0  0.00000000000E+00  0.00000000000E+00  0.45593999997E+02  0.45594000000E+02  0.51100000000E-03 0.  1.
         11   -1    0    0    0    0 -0.00000000000E+00 -0.00000000000E+00 -0.45593999997E+02  0.45594000000E+02  0.51100000000E-03 0. -1.
    9900012    2    1    2    0    0 -0.26483315272E+02  0.26901089688E+02 -0.21414684279E+02  0.47787270548E+02  0.19999997737E+02 0.  0.
        -12    1    1    2    0    0  0.26483315272E+02 -0.26901089688E+02  0.21414684279E+02  0.43400729452E+02  0.00000000000E+00 0.  1.
         11    1    3    3    0    0 -0.10305508626E+02  0.18883654148E+02 -0.15089945249E+02  0.26277411400E+02  0.51100000000E-03 0. -1.
        -11    1    3    3    0    0 -0.50992753996E+01  0.53929945094E+01 -0.68674050248E+01  0.10111787746E+02  0.51100000000E-03 0.  1.
        -12    1    3    3    0    0 -0.11078531247E+02  0.26244410304E+01  0.54266599485E+00  0.11398071402E+02  0.00000000000E+00 0.  1.
</event>
<event>
 7    1  0.4011333E-009  0.4778727E+02  0.7816164E-02  0.1312668E+00
        -11   -1    0    0    0    0  0.00000000000E+00  0.00000000000E+00  0.45593999997E+02  0.45594000000E+02  0.51100000000E-03 0.  1.
         11   -1    0    0    0    0 -0.00000000000E+00 -0.00000000000E+00 -0.45593999997E+02  0.45594000000E+02  0.51100000000E-03 0. -1.
    9900012    2    1    2    0    0  0.42774746677E+02  0.20488303797E+01 -0.70531298849E+01  0.47787270739E+02  0.19999998608E+02 0.  0.
        -12    1    1    2    0    0 -0.42774746677E+02 -0.20488303797E+01  0.70531298849E+01  0.43400729261E+02  0.00000000000E+00 0.  1.
         11    1    3    3    0    0  0.46907775509E+01  0.43064540717E+01  0.41005683127E+00  0.63809942462E+01  0.51100000000E-03 0. -1.
        -11    1    3    3    0    0  0.24188013109E+02  0.35621826394E+01 -0.94473812412E+01  0.26210725588E+02  0.51100000000E-03 0.  1.
        -12    1    3    3    0    0  0.13895956018E+02 -0.58198063313E+01  0.19841945250E+01  0.15195550904E+02  0.00000000000E+00 0.  1.
</event>
<event>
 7    1  0.4011333E-009  0.4778727E+02  0.7816164E-02  0.1312668E+00
        -11   -1    0    0    0    0  0.00000000000E+00  0.00000000000E+00  0.45593999997E+02  0.45594000000E+02  0.51100000000E-03 0. -1.
         11   -1    0    0    0    0 -0.00000000000E+00 -0.00000000000E+00 -0.45593999997E+02  0.45594000000E+02  0.51100000000E-03 0.  1.
    9900012    2    1    2    0    0  0.20920558665E+02 -0.33642143409E+02  0.17724559870E+02  0.47787267165E+02  0.19999982314E+02 0.  0.
        -12    1    1    2    0    0 -0.20920558665E+02  0.33642143409E+02 -0.17724559870E+02  0.43400732835E+02  0.00000000000E+00 0.  1.
         11    1    3    3    0    0 -0.26164269669E+01 -0.34049494430E+01  0.18224625936E+01  0.46648409350E+01  0.51100000000E-03 0. -1.
        -11    1    3    3    0    0  0.90192880289E+01 -0.36138827966E+01  0.30154396461E+01  0.10173523575E+02  0.51100000000E-03 0.  1.
         12    1    3    3    0    0  0.14517697603E+02 -0.26623311169E+02  0.12886657630E+02  0.32948902655E+02  0.00000000000E+00 0. -1.
</event>
<event>
 7    1  0.4011333E-009  0.4778727E+02  0.7816164E-02  0.1312668E+00
        -11   -1    0    0    0    0  0.00000000000E+00  0.00000000000E+00  0.45593999997E+02  0.45594000000E+02  0.51100000000E-03 0.  1.
         11   -1    0    0    0    0 -0.00000000000E+00 -0.00000000000E+00 -0.45593999997E+02  0.45594000000E+02  0.51100000000E-03 0. -1.
    9900012    2    1    2    0    0 -0.17164161403E+02  0.23094179573E+02 -0.32491129790E+02  0.47787273256E+02  0.20000010085E+02 0.  0.
        -12    1    1    2    0    0  0.17164161403E+02 -0.23094179573E+02  0.32491129790E+02  0.43400726744E+02  0.00000000000E+00 0.  1.
         11    1    3    3    0    0 -0.38217532534E+01  0.20989872732E-01 -0.22521898828E+00  0.38284412440E+01  0.51100000000E-03 0. -1.
        -11    1    3    3    0    0 -0.62709139049E+01  0.15385974428E+01 -0.35272256589E+01  0.73575107477E+01  0.51100000000E-03 0.  1.
         12    1    3    3    0    0 -0.70714942450E+01  0.21534592258E+02 -0.28738685143E+02  0.36601321265E+02  0.00000000000E+00 0. -1.
</event>
<event>
 7    1  0.4011333E-009  0.4778727E+02  0.7816164E-02  0.1312668E+00
        -11   -1    0    0    0    0  0.00000000000E+00  0.00000000000E+00  0.45593999997E+02  0.45594000000E+02  0.51100000000E-03 0.  1.
         11   -1    0    0    0    0 -0.00000000000E+00 -0.00000000000E+00 -0.45593999997E+02  0.45594000000E+02  0.51100000000E-03 0. -1.
    9900012    2    1    2    0    0 -0.65713326927E+01  0.24963114858E+01 -0.42827667804E+02  0.47787272887E+02  0.20000008400E+02 0.  0.
        -12    1    1    2    0    0  0.65713326927E+01 -0.24963114858E+01  0.42827667804E+02  0.43400727113E+02  0.00000000000E+00 0.  1.
         11    1    3    3    0    0  0.43346776151E+01  0.40992697798E+00 -0.76000205841E+01  0.87588688364E+01  0.51100000000E-03 0. -1.
        -11    1    3    3    0    0 -0.37297592395E+01  0.65753861841E+01 -0.22560747716E+02  0.23793573612E+02  0.51100000000E-03 0.  1.
        -12    1    3    3    0    0 -0.71762510683E+01 -0.44890016764E+01 -0.12666899504E+02  0.15234830439E+02  0.00000000000E+00 0.  1.
</event>
<event>
 7    1  0.4011333E-009  0.4778727E+02  0.7816164E-02  0.1312668E+00
        -11   -1    0    0    0    0  0.00000000000E+00  0.00000000000E+00  0.45593999997E+02  0.45594000000E+02  0.51100000000E-03 0.  1.
         11   -1    0    0    0    0 -0.00000000000E+00 -0.00000000000E+00 -0.45593999997E+02  0.45594000000E+02  0.51100000000E-03 0. -1.
    9900012    2    1    2    0    0 -0.12606442148E+02  0.32568920284E+02 -0.25767544660E+02  0.47787270629E+02  0.19999998107E+02 0.  0.
        -12    1    1    2    0    0  0.12606442148E+02 -0.32568920284E+02  0.25767544660E+02  0.43400729371E+02  0.00000000000E+00 0.  1.
         11    1    3    3    0    0 -0.38438642919E+01  0.86737515236E+01 -0.85370904980E+01  0.12762882614E+02  0.51100000000E-03 0. -1.
        -11    1    3    3    0    0 -0.68638310203E+01  0.25664627720E+01  0.32448319641E+00  0.73351344256E+01  0.51100000000E-03 0.  1.
        -12    1    3    3    0    0 -0.18987468353E+01  0.21328705989E+02 -0.17554937358E+02  0.27689253590E+02  0.00000000000E+00 0.  1.
</event>
<event>
 7    1  0.4146952E-009  0.4778727E+02  0.7816164E-02  0.1312668E+00
        -11   -1    0    0    0    0  0.00000000000E+00  0.00000000000E+00  0.45593999997E+02  0.45594000000E+02  0.51100000000E-03 0. -1.
         11   -1    0    0    0    0 -0.00000000000E+00 -0.00000000000E+00 -0.45593999997E+02  0.45594000000E+02  0.51100000000E-03 0.  1.
    9900012    2    1    2    0    0 -0.39915389998E+02  0.29317142680E+01  0.16786599500E+02  0.47787271550E+02  0.20000002306E+02 0.  0.
        -12    1    1    2    0    0  0.39915389998E+02 -0.29317142680E+01 -0.16786599500E+02  0.43400728450E+02  0.00000000000E+00 0.  1.
         11    1    3    3    0    0 -0.24160563772E+02  0.66207092363E+01  0.10448041659E+02  0.27142737654E+02  0.51100000000E-03 0. -1.
        -11    1    3    3    0    0 -0.25001138596E+00  0.23620982776E+01  0.27214732532E+01  0.36122611887E+01  0.51100000000E-03 0.  1.
         12    1    3    3    0    0 -0.15504814839E+02 -0.60510932459E+01  0.36170845876E+01  0.17032272708E+02  0.00000000000E+00 0. -1.
</event>
<event>
 7    1  0.4011333E-009  0.4778727E+02  0.7816164E-02  0.1312668E+00
        -11   -1    0    0    0    0  0.00000000000E+00  0.00000000000E+00  0.45593999997E+02  0.45594000000E+02  0.51100000000E-03 0.  1.
         11   -1    0    0    0    0 -0.00000000000E+00 -0.00000000000E+00 -0.45593999997E+02  0.45594000000E+02  0.51100000000E-03 0. -1.
    9900012    2    1    2    0    0  0.33719048283E+02  0.24340715076E+02  0.12416870037E+02  0.47787270870E+02  0.19999999204E+02 0.  0.
        -12    1    1    2    0    0 -0.33719048283E+02 -0.24340715076E+02 -0.12416870037E+02  0.43400729130E+02  0.00000000000E+00 0.  1.
         11    1    3    3    0    0  0.57410107822E+01  0.97883743012E+01 -0.14155759619E+01  0.11435704256E+02  0.51100000000E-03 0. -1.
        -11    1    3    3    0    0  0.19551025664E+02  0.11636748519E+02  0.40409539645E+01  0.23108133413E+02  0.51100000000E-03 0.  1.
        -12    1    3    3    0    0  0.84270118374E+01  0.29155922552E+01  0.97914920342E+01  0.13243433201E+02  0.00000000000E+00 0.  1.
</event>
<event>
 7    1  0.4011333E-009  0.4778728E+02  0.7816164E-02  0.1312668E+00
        -11   -1    0    0    0    0  0.00000000000E+00  0.00000000000E+00  0.45593999997E+02  0.45594000000E+02  0.51100000000E-03 0.  1.
         11   -1    0    0    0    0 -0.00000000000E+00 -0.00000000000E+00 -0.45593999997E+02  0.45594000000E+02  0.51100000000E-03 0. -1.
    9900012    2    1    2    0    0  0.27911225406E+02 -0.25540762023E+02 -0.21266297360E+02  0.47787280746E+02  0.20000044232E+02 0.  0.
        -12    1    1    2    0    0 -0.27911225406E+02  0.25540762023E+02  0.21266297360E+02  0.43400719254E+02  0.00000000000E+00 0.  1.
         11    1    3    3    0    0  0.12120709053E+02 -0.38689487967E+01 -0.11515656280E+02  0.17160731120E+02  0.51100000000E-03 0. -1.
        -11    1    3    3    0    0  0.13969687122E+00  0.12540109432E+01 -0.24396198696E+00  0.12851367140E+01  0.51100000000E-03 0.  1.
         12    1    3    3    0    0  0.15650819481E+02 -0.22925824170E+02 -0.95066790933E+01  0.29341412912E+02  0.00000000000E+00 0. -1.
</event>
<event>
 7    1  0.4011333E-009  0.4778728E+02  0.7816164E-02  0.1312668E+00
        -11   -1    0    0    0    0  0.00000000000E+00  0.00000000000E+00  0.45593999997E+02  0.45594000000E+02  0.51100000000E-03 0. -1.
         11   -1    0    0    0    0 -0.00000000000E+00 -0.00000000000E+00 -0.45593999997E+02  0.45594000000E+02  0.51100000000E-03 0.  1.
    9900012    2    1    2    0    0  0.94474148238E+01  0.40357672918E+02  0.12869620607E+02  0.47787279444E+02  0.20000038298E+02 0.  0.
        -12    1    1    2    0    0 -0.94474148238E+01 -0.40357672918E+02 -0.12869620607E+02  0.43400720556E+02  0.00000000000E+00 0.  1.
         11    1    3    3    0    0 -0.18731546756E+01  0.44407286601E+01  0.43706344495E+01  0.65062450940E+01  0.51100000000E-03 0. -1.
        -11    1    3    3    0    0 -0.85519358861E+00  0.10552265363E+02 -0.28166465415E+01  0.10955143010E+02  0.51100000000E-03 0.  1.
         12    1    3    3    0    0  0.12175763088E+02  0.25364678895E+02  0.11315632699E+02  0.30325891340E+02  0.00000000000E+00 0. -1.
</event>
<event>
 7    1  0.4011333E-009  0.4778727E+02  0.7816164E-02  0.1312668E+00
        -11   -1    0    0    0    0  0.00000000000E+00  0.00000000000E+00  0.45593999997E+02  0.45594000000E+02  0.51100000000E-03 0.  1.
         11   -1    0    0    0    0 -0.00000000000E+00 -0.00000000000E+00 -0.45593999997E+02  0.45594000000E+02  0.51100000000E-03 0. -1.
    9900012    2    1    2    0    0 -0.45093498749E+01 -0.54299637891E+01 -0.42822945834E+02  0.47787269212E+02  0.19999991643E+02 0.  0.
        -12    1    1    2    0    0  0.45093498749E+01  0.54299637891E+01  0.42822945834E+02  0.43400730788E+02  0.00000000000E+00 0.  1.
         11    1    3    3    0    0 -0.14672704659E+00 -0.53576848253E+01 -0.28053642476E+02  0.28561042907E+02  0.51100000000E-03 0. -1.
        -11    1    3    3    0    0 -0.25952849005E+01 -0.57250599557E+01 -0.63741856738E+01  0.89522096980E+01  0.51100000000E-03 0.  1.
        -12    1    3    3    0    0 -0.17673379277E+01  0.56527809919E+01 -0.83951176850E+01  0.10274016607E+02  0.00000000000E+00 0.  1.
</event>
<event>
 7    1  0.4011333E-009  0.4778726E+02  0.7816164E-02  0.1312668E+00
        -11   -1    0    0    0    0  0.00000000000E+00  0.00000000000E+00  0.45593999997E+02  0.45594000000E+02  0.51100000000E-03 0. -1.
         11   -1    0    0    0    0 -0.00000000000E+00 -0.00000000000E+00 -0.45593999997E+02  0.45594000000E+02  0.51100000000E-03 0.  1.
    9900012    2    1    2    0    0  0.32525582388E+02 -0.15477907561E+02  0.24210435619E+02  0.47787258934E+02  0.19999944785E+02 0.  0.
        -12    1    1    2    0    0 -0.32525582388E+02  0.15477907561E+02 -0.24210435619E+02  0.43400741066E+02  0.00000000000E+00 0.  1.
         11    1    3    3    0    0  0.15485991256E+02 -0.74782202452E+01  0.16453191831E+02  0.23800151783E+02  0.51100000000E-03 0. -1.
        -11    1    3    3    0    0  0.89659493503E+01  0.20824731950E+01  0.59116804702E+01  0.10939511351E+02  0.51100000000E-03 0.  1.
         12    1    3    3    0    0  0.80736417823E+01 -0.10082160511E+02  0.18455633183E+01  0.13047595800E+02  0.00000000000E+00 0. -1.
</event>
<event>
 7    1  0.4011333E-009  0.4778729E+02  0.7816164E-02  0.1312668E+00
        -11   -1    0    0    0    0  0.00000000000E+00  0.00000000000E+00  0.45593999997E+02  0.45594000000E+02  0.51100000000E-03 0.  1.
         11   -1    0    0    0    0 -0.00000000000E+00 -0.00000000000E+00 -0.45593999997E+02  0.45594000000E+02  0.51100000000E-03 0. -1.
    9900012    2    1    2    0    0  0.16070795668E+02  0.26370209759E+02 -0.30495299185E+02  0.47787289079E+02  0.20000082225E+02 0.  0.
        -12    1    1    2    0    0 -0.16070795668E+02 -0.26370209759E+02  0.30495299185E+02  0.43400710921E+02  0.00000000000E+00 0.  1.
         11    1    3    3    0    0  0.11050684728E+02  0.13579662898E+02 -0.16285649016E+02  0.23911236721E+02  0.51100000000E-03 0. -1.
        -11    1    3    3    0    0  0.68559876710E+01  0.90766953023E+01 -0.15774063933E+02  0.19447674868E+02  0.51100000000E-03 0.  1.
        -12    1    3    3    0    0 -0.18358767308E+01  0.37138515584E+01  0.15644137640E+01  0.44283774899E+01  0.00000000000E+00 0.  1.
</event>
<event>
 7    1  0.4011333E-009  0.4778727E+02  0.7816164E-02  0.1312668E+00
        -11   -1    0    0    0    0  0.00000000000E+00  0.00000000000E+00  0.45593999997E+02  0.45594000000E+02  0.51100000000E-03 0.  1.
         11   -1    0    0    0    0 -0.00000000000E+00 -0.00000000000E+00 -0.45593999997E+02  0.45594000000E+02  0.51100000000E-03 0. -1.
    9900012    2    1    2    0    0  0.32480569922E+02 -0.10276653632E+02 -0.26889148094E+02  0.47787270541E+02  0.19999997706E+02 0.  0.
        -12    1    1    2    0    0 -0.32480569922E+02  0.10276653632E+02  0.26889148094E+02  0.43400729459E+02  0.00000000000E+00 0.  1.
         11    1    3    3    0    0  0.25496341446E+02 -0.10209270303E+02 -0.17933657174E+02  0.32801047044E+02  0.51100000000E-03 0. -1.
        -11    1    3    3    0    0  0.73073954767E+01  0.74463039096E+00 -0.15216616679E+01  0.75011970754E+01  0.51100000000E-03 0.  1.
         12    1    3    3    0    0 -0.32316700104E+00 -0.81201371972E+00 -0.74338292521E+01  0.74850264221E+01  0.00000000000E+00 0. -1.
</event>
<event>
 7    1  0.4011333E-009  0.4778727E+02  0.7816164E-02  0.1312668E+00
        -11   -1    0    0    0    0  0.00000000000E+00  0.00000000000E+00  0.45593999997E+02  0.45594000000E+02  0.51100000000E-03 0.  1.
         11   -1    0    0    0    0 -0.00000000000E+00 -0.00000000000E+00 -0.45593999997E+02  0.45594000000E+02  0.51100000000E-03 0. -1.
    9900012    2    1    2    0    0  0.16006115462E+02  0.23329909985E+02 -0.32911139549E+02  0.47787267996E+02  0.19999986101E+02 0.  0.
        -12    1    1    2    0    0 -0.16006115462E+02 -0.23329909985E+02  0.32911139549E+02  0.43400732004E+02  0.00000000000E+00 0.  1.
         11    1    3    3    0    0  0.35606826650E+01  0.10196872763E+02 -0.46157085813E+01  0.11745613699E+02  0.51100000000E-03 0. -1.
        -11    1    3    3    0    0  0.29496908807E+01  0.97801582046E+01 -0.67078753636E+01  0.12220792239E+02  0.51100000000E-03 0.  1.
         12    1    3    3    0    0  0.94957419162E+01  0.33528790173E+01 -0.21587555604E+02  0.23820862058E+02  0.00000000000E+00 0. -1.
</event>
<event>
 7    1  0.4011333E-009  0.4778728E+02  0.7816164E-02  0.1312668E+00
        -11   -1    0    0    0    0  0.00000000000E+00  0.00000000000E+00  0.45593999997E+02  0.45594000000E+02  0.51100000000E-03 0. -1.
         11   -1    0    0    0    0 -0.00000000000E+00 -0.00000000000E+00 -0.45593999997E+02  0.45594000000E+02  0.51100000000E-03 0.  1.
    9900012    2    1    2    0    0  0.32151336351E+02 -0.28920426041E+02  0.36773178340E+01  0.47787284130E+02  0.20000059662E+02 0.  0.
        -12    1    1    2    0    0 -0.32151336351E+02  0.28920426041E+02 -0.36773178340E+01  0.43400715870E+02  0.00000000000E+00 0.  1.
         11    1    3    3    0    0  0.18118672124E+02 -0.74869232791E+01  0.25406112599E+01  0.19768535746E+02  0.51100000000E-03 0.  1.
        -11    1    3    3    0    0  0.80303444915E+01 -0.32890243850E+01  0.19336756836E+01  0.88906251730E+01  0.51100000000E-03 0. -1.
         12    1    3    3    0    0  0.60023197359E+01 -0.18144478377E+02 -0.79696910956E+00  0.19128123210E+02  0.00000000000E+00 0. -1.
</event>
<event>
 7    1  0.4011333E-009  0.4778727E+02  0.7816164E-02  0.1312668E+00
        -11   -1    0    0    0    0  0.00000000000E+00  0.00000000000E+00  0.45593999997E+02  0.45594000000E+02  0.51100000000E-03 0. -1.
         11   -1    0    0    0    0 -0.00000000000E+00 -0.00000000000E+00 -0.45593999997E+02  0.45594000000E+02  0.51100000000E-03 0.  1.
    9900012    2    1    2    0    0  0.32936785228E+02 -0.50720043883E+01  0.27804070800E+02  0.47787269560E+02  0.19999993231E+02 0.  0.
        -12    1    1    2    0    0 -0.32936785228E+02  0.50720043883E+01 -0.27804070800E+02  0.43400730440E+02  0.00000000000E+00 0.  1.
         11    1    3    3    0    0  0.12828347582E+02  0.17588608922E+01  0.88939922568E+01  0.15708697968E+02  0.51100000000E-03 0. -1.
        -11    1    3    3    0    0  0.15548468348E+02 -0.42366538514E+01  0.44830597787E+01  0.16727280982E+02  0.51100000000E-03 0.  1.
        -12    1    3    3    0    0  0.45599692979E+01 -0.25942114291E+01  0.14427018765E+02  0.15351290609E+02  0.00000000000E+00 0.  1.
</event>
<event>
 7    1  0.4011333E-009  0.4778727E+02  0.7816164E-02  0.1312668E+00
        -11   -1    0    0    0    0  0.00000000000E+00  0.00000000000E+00  0.45593999997E+02  0.45594000000E+02  0.51100000000E-03 0.  1.
         11   -1    0    0    0    0 -0.00000000000E+00 -0.00000000000E+00 -0.45593999997E+02  0.45594000000E+02  0.51100000000E-03 0. -1.
    9900012    2    1    2    0    0  0.14228203982E+02 -0.36201570833E+02 -0.19251700910E+02  0.47787268355E+02  0.19999987740E+02 0.  0.
        -12    1    1    2    0    0 -0.14228203982E+02  0.36201570833E+02  0.19251700910E+02  0.43400731645E+02  0.00000000000E+00 0.  1.
         11    1    3    3    0    0  0.14732203504E+01 -0.86805378372E+00 -0.42779452639E+01  0.46070284907E+01  0.51100000000E-03 0. -1.
        -11    1    3    3    0    0 -0.32421194744E+00 -0.59648907070E+00 -0.45865054880E+01  0.46364798555E+01  0.51100000000E-03 0.  1.
         12    1    3    3    0    0  0.13079195579E+02 -0.34737027979E+02 -0.10387250159E+02  0.38543760009E+02  0.00000000000E+00 0. -1.
</event>
<event>
 7    1  0.4011333E-009  0.4778728E+02  0.7816164E-02  0.1312668E+00
        -11   -1    0    0    0    0  0.00000000000E+00  0.00000000000E+00  0.45593999997E+02  0.45594000000E+02  0.51100000000E-03 0.  1.
         11   -1    0    0    0    0 -0.00000000000E+00 -0.00000000000E+00 -0.45593999997E+02  0.45594000000E+02  0.51100000000E-03 0. -1.
    9900012    2    1    2    0    0 -0.21944790949E+02  0.21730587937E+02  0.30493115063E+02  0.47787281479E+02  0.20000047576E+02 0.  0.
        -12    1    1    2    0    0  0.21944790949E+02 -0.21730587937E+02 -0.30493115063E+02  0.43400718521E+02  0.00000000000E+00 0.  1.
         11    1    3    3    0    0 -0.10311854148E+02  0.20599473479E+02  0.24836439571E+02  0.33875084862E+02  0.51100000000E-03 0. -1.
        -11    1    3    3    0    0 -0.99732367688E-01 -0.77390137950E+00 -0.24438821886E+00  0.81767704688E+00  0.51100000000E-03 0.  1.
         12    1    3    3    0    0 -0.11533204434E+02  0.19050158369E+01  0.59010637105E+01  0.13094519570E+02  0.00000000000E+00 0. -1.
</event>
<event>
 7    1  0.4011333E-009  0.4778727E+02  0.7816164E-02  0.1312668E+00
        -11   -1    0    0    0    0  0.00000000000E+00  0.00000000000E+00  0.45593999997E+02  0.45594000000E+02  0.51100000000E-03 0.  1.
         11   -1    0    0    0    0 -0.00000000000E+00 -0.00000000000E+00 -0.45593999997E+02  0.45594000000E+02  0.51100000000E-03 0. -1.
    9900012    2    1    2    0    0  0.17314355524E+02 -0.26692056509E+02 -0.29518984324E+02  0.47787271626E+02  0.20000002650E+02 0.  0.
        -12    1    1    2    0    0 -0.17314355524E+02  0.26692056509E+02  0.29518984324E+02  0.43400728374E+02  0.00000000000E+00 0.  1.
         11    1    3    3    0    0 -0.26760163372E+01 -0.79791798323E+01 -0.51713926670E+01  0.98778376486E+01  0.51100000000E-03 0. -1.
        -11    1    3    3    0    0  0.22121508942E+01 -0.65507363424E+01 -0.94918411872E+01  0.11743117456E+02  0.51100000000E-03 0.  1.
         12    1    3    3    0    0  0.17778220966E+02 -0.12162140334E+02 -0.14855750470E+02  0.26166316521E+02  0.00000000000E+00 0. -1.
</event>
<event>
 7    1  0.4011333E-009  0.4778728E+02  0.7816164E-02  0.1312668E+00
        -11   -1    0    0    0    0  0.00000000000E+00  0.00000000000E+00  0.45593999997E+02  0.45594000000E+02  0.51100000000E-03 0.  1.
         11   -1    0    0    0    0 -0.00000000000E+00 -0.00000000000E+00 -0.45593999997E+02  0.45594000000E+02  0.51100000000E-03 0. -1.
    9900012    2    1    2    0    0  0.13985382319E+02 -0.14690136913E+02 -0.38369671896E+02  0.47787276935E+02  0.20000026859E+02 0.  0.
        -12    1    1    2    0    0 -0.13985382319E+02  0.14690136913E+02  0.38369671896E+02  0.43400723065E+02  0.00000000000E+00 0.  1.
         11    1    3    3    0    0  0.55455939242E+01 -0.43310307735E+00 -0.13530423221E+02  0.14629201723E+02  0.51100000000E-03 0. -1.
        -11    1    3    3    0    0  0.10522305676E+02 -0.37339123809E+01 -0.14015006648E+02  0.17918745213E+02  0.51100000000E-03 0.  1.
        -12    1    3    3    0    0 -0.20825172814E+01 -0.10523121454E+02 -0.10824242027E+02  0.15239329999E+02  0.00000000000E+00 0.  1.
</event>
<event>
 7    1  0.4011333E-009  0.4778727E+02  0.7816164E-02  0.1312668E+00
        -11   -1    0    0    0    0  0.00000000000E+00  0.00000000000E+00  0.45593999997E+02  0.45594000000E+02  0.51100000000E-03 0. -1.
         11   -1    0    0    0    0 -0.00000000000E+00 -0.00000000000E+00 -0.45593999997E+02  0.45594000000E+02  0.51100000000E-03 0.  1.
    9900012    2    1    2    0    0 -0.78537793914E+01 -0.35763536991E+02  0.23300442611E+02  0.47787273569E+02  0.20000011510E+02 0.  0.
        -12    1    1    2    0    0  0.78537793914E+01  0.35763536991E+02 -0.23300442611E+02  0.43400726431E+02  0.00000000000E+00 0.  1.
         11    1    3    3    0    0  0.35741916281E+01 -0.15961761885E+02  0.15995011824E+02  0.22877785989E+02  0.51100000000E-03 0. -1.
        -11    1    3    3    0    0 -0.40700324970E+01 -0.95869890398E+01  0.65379914611E+01  0.12297188946E+02  0.51100000000E-03 0.  1.
        -12    1    3    3    0    0 -0.73579385226E+01 -0.10214786067E+02  0.76743932613E+00  0.12612298633E+02  0.00000000000E+00 0.  1.
</event>
<event>
 7    1  0.4011333E-009  0.4778728E+02  0.7816164E-02  0.1312668E+00
        -11   -1    0    0    0    0  0.00000000000E+00  0.00000000000E+00  0.45593999997E+02  0.45594000000E+02  0.51100000000E-03 0.  1.
         11   -1    0    0    0    0 -0.00000000000E+00 -0.00000000000E+00 -0.45593999997E+02  0.45594000000E+02  0.51100000000E-03 0. -1.
    9900012    2    1    2    0    0 -0.42637659929E+02  0.32901086988E+01 -0.74045672878E+01  0.47787280234E+02  0.20000041899E+02 0.  0.
        -12    1    1    2    0    0  0.42637659929E+02 -0.32901086988E+01  0.74045672878E+01  0.43400719766E+02  0.00000000000E+00 0.  1.
         11    1    3    3    0    0 -0.28886946984E+02  0.49560052622E+01  0.25853432275E+01  0.29422809079E+02  0.51100000000E-03 0. -1.
        -11    1    3    3    0    0 -0.57022150941E+01 -0.23307690608E+01 -0.93389749875E+00  0.62305622695E+01  0.51100000000E-03 0.  1.
         12    1    3    3    0    0 -0.80484978508E+01  0.66487249741E+00 -0.90560130166E+01  0.12133908886E+02  0.00000000000E+00 0. -1.
</event>
<event>
 7    1  0.4562309E-009  0.4778727E+02  0.7816164E-02  0.1312668E+00
        -11   -1    0    0    0    0  0.00000000000E+00  0.00000000000E+00  0.45593999997E+02  0.45594000000E+02  0.51100000000E-03 0. -1.
         11   -1    0    0    0    0 -0.00000000000E+00 -0.00000000000E+00 -0.45593999997E+02  0.45594000000E+02  0.51100000000E-03 0.  1.
    9900012    2    1    2    0    0 -0.96824797822E+01 -0.11307503842E+00  0.42306738369E+02  0.47787270604E+02  0.19999997993E+02 0.  0.
        -12    1    1    2    0    0  0.96824797822E+01  0.11307503842E+00 -0.42306738369E+02  0.43400729396E+02  0.00000000000E+00 0.  1.
         11    1    3    3    0    0 -0.30339964911E+01  0.22829937496E+01  0.18096972679E+01  0.42062096514E+01  0.51100000000E-03 0. -1.
        -11    1    3    3    0    0  0.38452571113E+01 -0.55923754851E+00  0.40652485113E+01  0.56236104601E+01  0.51100000000E-03 0.  1.
         12    1    3    3    0    0 -0.10493740402E+02 -0.18368312395E+01  0.36431792589E+02  0.37957450493E+02  0.00000000000E+00 0. -1.
</event>
<event>
 7    1  0.4011333E-009  0.4778727E+02  0.7816164E-02  0.1312668E+00
        -11   -1    0    0    0    0  0.00000000000E+00  0.00000000000E+00  0.45593999997E+02  0.45594000000E+02  0.51100000000E-03 0.  1.
         11   -1    0    0    0    0 -0.00000000000E+00 -0.00000000000E+00 -0.45593999997E+02  0.45594000000E+02  0.51100000000E-03 0. -1.
    9900012    2    1    2    0    0  0.22105192062E+02  0.34663016564E+02 -0.13908955286E+02  0.47787271083E+02  0.20000000176E+02 0.  0.
        -12    1    1    2    0    0 -0.22105192062E+02 -0.34663016564E+02  0.13908955286E+02  0.43400728917E+02  0.00000000000E+00 0.  1.
         11    1    3    3    0    0  0.11780003894E+02  0.11114147156E+02 -0.13301561543E+01  0.16249986904E+02  0.51100000000E-03 0. -1.
        -11    1    3    3    0    0  0.55524529762E+01  0.19073597926E+02 -0.32296500691E+01  0.20126164854E+02  0.51100000000E-03 0.  1.
        -12    1    3    3    0    0  0.47727351922E+01  0.44752714817E+01 -0.93491490622E+01  0.11411119324E+02  0.00000000000E+00 0.  1.
</event>
<event>
 7    1  0.4011333E-009  0.4778727E+02  0.7816164E-02  0.1312668E+00
        -11   -1    0    0    0    0  0.00000000000E+00  0.00000000000E+00  0.45593999997E+02  0.45594000000E+02  0.51100000000E-03 0.  1.
         11   -1    0    0    0    0 -0.00000000000E+00 -0.00000000000E+00 -0.45593999997E+02  0.45594000000E+02  0.51100000000E-03 0. -1.
    9900012    2    1    2    0    0 -0.21109524592E+02  0.10584576789E+02 -0.36413978776E+02  0.47787272534E+02  0.20000006789E+02 0.  0.
        -12    1    1    2    0    0  0.21109524592E+02 -0.10584576789E+02  0.36413978776E+02  0.43400727466E+02  0.00000000000E+00 0.  1.
         11    1    3    3    0    0 -0.76146489077E+01  0.59355104819E+01 -0.21936129501E+02  0.23966788279E+02  0.51100000000E-03 0. -1.
        -11    1    3    3    0    0 -0.55976077322E+01  0.72896247775E+01 -0.12033914277E+02  0.15142223575E+02  0.51100000000E-03 0.  1.
        -12    1    3    3    0    0 -0.78972679521E+01 -0.26405584704E+01 -0.24439349988E+01  0.86782606795E+01  0.00000000000E+00 0.  1.
</event>
<event>
 7    1  0.4011333E-009  0.4778727E+02  0.7816164E-02  0.1312668E+00
        -11   -1    0    0    0    0  0.00000000000E+00  0.00000000000E+00  0.45593999997E+02  0.45594000000E+02  0.51100000000E-03 0. -1.
         11   -1    0    0    0    0 -0.00000000000E+00 -0.00000000000E+00 -0.45593999997E+02  0.45594000000E+02  0.51100000000E-03 0.  1.
    9900012    2    1    2    0    0 -0.16150231235E+02  0.39157445780E+02  0.94598118848E+01  0.47787267635E+02  0.19999984455E+02 0.  0.
        -12    1    1    2    0    0  0.16150231235E+02 -0.39157445780E+02 -0.94598118848E+01  0.43400732365E+02  0.00000000000E+00 0.  1.
         11    1    3    3    0    0 -0.10649060428E+02  0.10933105387E+02  0.11445831094E+01  0.15305076026E+02  0.51100000000E-03 0. -1.
        -11    1    3    3    0    0 -0.86110000619E+01  0.18520314965E+02  0.20661502667E+01  0.20528525657E+02  0.51100000000E-03 0.  1.
        -12    1    3    3    0    0  0.31098292544E+01  0.97040254269E+01  0.62490785087E+01  0.11953665952E+02  0.00000000000E+00 0.  1.
</event>
<event>
 7    1  0.4011333E-009  0.4778728E+02  0.7816164E-02  0.1312668E+00
        -11   -1    0    0    0    0  0.00000000000E+00  0.00000000000E+00  0.45593999997E+02  0.45594000000E+02  0.51100000000E-03 0.  1.
         11   -1    0    0    0    0 -0.00000000000E+00 -0.00000000000E+00 -0.45593999997E+02  0.45594000000E+02  0.51100000000E-03 0. -1.
    9900012    2    1    2    0    0 -0.20944880342E+02 -0.36943079218E+02 -0.89523035627E+01  0.47787275884E+02  0.20000022067E+02 0.  0.
        -12    1    1    2    0    0  0.20944880342E+02  0.36943079218E+02  0.89523035627E+01  0.43400724116E+02  0.00000000000E+00 0.  1.
         11    1    3    3    0    0 -0.83960846779E+01 -0.19975247000E+02  0.48984627598E+01  0.22214852426E+02  0.51100000000E-03 0. -1.
        -11    1    3    3    0    0 -0.57650181231E+00 -0.15570414987E+01 -0.24862426204E+01  0.29896714195E+01  0.51100000000E-03 0.  1.
         12    1    3    3    0    0 -0.11972293852E+02 -0.15410790719E+02 -0.11364523702E+02  0.22582752039E+02  0.00000000000E+00 0. -1.
</event>
<event>
 7    1  0.4011333E-009  0.4778727E+02  0.7816164E-02  0.1312668E+00
        -11   -1    0    0    0    0  0.00000000000E+00  0.00000000000E+00  0.45593999997E+02  0.45594000000E+02  0.51100000000E-03 0. -1.
         11   -1    0    0    0    0 -0.00000000000E+00 -0.00000000000E+00 -0.45593999997E+02  0.45594000000E+02  0.51100000000E-03 0.  1.
    9900012    2    1    2    0    0  0.25044131140E+02 -0.24706881216E+02  0.25416228444E+02  0.47787272445E+02  0.20000006387E+02 0.  0.
        -12    1    1    2    0    0 -0.25044131140E+02  0.24706881216E+02 -0.25416228444E+02  0.43400727555E+02  0.00000000000E+00 0.  1.
         11    1    3    3    0    0  0.13085927787E+02 -0.16731384161E+02  0.52425598347E+01  0.21878417582E+02  0.51100000000E-03 0.  1.
        -11    1    3    3    0    0  0.41178316054E+01 -0.32104875378E+01  0.20772041272E+01  0.56194790335E+01  0.51100000000E-03 0. -1.
        -12    1    3    3    0    0  0.78403717472E+01 -0.47650095174E+01  0.18096464482E+02  0.20289375830E+02  0.00000000000E+00 0.  1.
</event>
<event>
 7    1  0.4011333E-009  0.4778728E+02  0.7816164E-02  0.1312668E+00
        -11   -1    0    0    0    0  0.00000000000E+00  0.00000000000E+00  0.45593999997E+02  0.45594000000E+02  0.51100000000E-03 0.  1.
         11   -1    0    0    0    0 -0.00000000000E+00 -0.00000000000E+00 -0.45593999997E+02  0.45594000000E+02  0.51100000000E-03 0. -1.
    9900012    2    1    2    0    0  0.92532711840E+01 -0.40996031004E+02 -0.10831673701E+02  0.47787277185E+02  0.20000027999E+02 0.  0.
        -12    1    1    2    0    0 -0.92532711840E+01  0.40996031004E+02  0.10831673701E+02  0.43400722815E+02  0.00000000000E+00 0.  1.
         11    1    3    3    0    0  0.46540678952E+01 -0.67293281808E+01 -0.39234261044E+01  0.90740001320E+01  0.51100000000E-03 0. -1.
        -11    1    3    3    0    0  0.37196146769E+01 -0.19137116697E+02  0.41757122690E+01  0.19937435693E+02  0.51100000000E-03 0.  1.
        -12    1    3    3    0    0  0.87958861195E+00 -0.15129586126E+02 -0.11083959865E+02  0.18775841360E+02  0.00000000000E+00 0.  1.
</event>
<event>
 7    1  0.4011333E-009  0.4778728E+02  0.7816164E-02  0.1312668E+00
        -11   -1    0    0    0    0  0.00000000000E+00  0.00000000000E+00  0.45593999997E+02  0.45594000000E+02  0.51100000000E-03 0. -1.
         11   -1    0    0    0    0 -0.00000000000E+00 -0.00000000000E+00 -0.45593999997E+02  0.45594000000E+02  0.51100000000E-03 0.  1.
    9900012    2    1    2    0    0  0.31519100914E+02 -0.29697363561E+02 -0.28696624792E+01  0.47787284711E+02  0.20000062309E+02 0.  0.
        -12    1    1    2    0    0 -0.31519100914E+02  0.29697363561E+02  0.28696624792E+01  0.43400715289E+02  0.00000000000E+00 0.  1.
         11    1    3    3    0    0  0.10372524461E+02 -0.46917784190E+01 -0.27784774680E+01  0.11718446388E+02  0.51100000000E-03 0. -1.
        -11    1    3    3    0    0  0.18106472063E+02 -0.10134430225E+02 -0.16225605207E+01  0.20813065835E+02  0.51100000000E-03 0.  1.
        -12    1    3    3    0    0  0.30401043900E+01 -0.14871154917E+02  0.15313755095E+01  0.15255772488E+02  0.00000000000E+00 0.  1.
</event>
<event>
 7    1  0.4011333E-009  0.4778727E+02  0.7816164E-02  0.1312668E+00
        -11   -1    0    0    0    0  0.00000000000E+00  0.00000000000E+00  0.45593999997E+02  0.45594000000E+02  0.51100000000E-03 0.  1.
         11   -1    0    0    0    0 -0.00000000000E+00 -0.00000000000E+00 -0.45593999997E+02  0.45594000000E+02  0.51100000000E-03 0. -1.
    9900012    2    1    2    0    0  0.16359334524E+02 -0.38917952449E+02  0.10069185143E+02  0.47787270302E+02  0.19999996616E+02 0.  0.
        -12    1    1    2    0    0 -0.16359334524E+02  0.38917952449E+02 -0.10069185143E+02  0.43400729698E+02  0.00000000000E+00 0.  1.
         11    1    3    3    0    0  0.51811843347E+01 -0.14389986106E+02  0.12118208377E+01  0.15342258023E+02  0.51100000000E-03 0. -1.
        -11    1    3    3    0    0  0.31079578085E+01 -0.15198901261E+02  0.12118831048E+02  0.19685834184E+02  0.51100000000E-03 0.  1.
        -12    1    3    3    0    0  0.80701923805E+01 -0.93290650807E+01 -0.32614667423E+01  0.12759178095E+02  0.00000000000E+00 0.  1.
</event>
<event>
 7    1  0.5014314E-009  0.4778728E+02  0.7816164E-02  0.1312668E+00
        -11   -1    0    0    0    0  0.00000000000E+00  0.00000000000E+00  0.45593999997E+02  0.45594000000E+02  0.51100000000E-03 0. -1.
         11   -1    0    0    0    0 -0.00000000000E+00 -0.00000000000E+00 -0.45593999997E+02  0.45594000000E+02  0.51100000000E-03 0.  1.
    9900012    2    1    2    0    0 -0.31956588293E+02  0.13551319724E+02  0.26053028149E+02  0.47787284829E+02  0.20000062848E+02 0.  0.
        -12    1    1    2    0    0  0.31956588293E+02 -0.13551319724E+02 -0.26053028149E+02  0.43400715171E+02  0.00000000000E+00 0.  1.
         11    1    3    3    0    0 -0.16220083254E+02  0.10817054189E+02  0.20430755700E+02  0.28240317647E+02  0.51100000000E-03 0. -1.
        -11    1    3    3    0    0 -0.27366464092E+01  0.43858233607E+01  0.35709821473E+01  0.62830401779E+01  0.51100000000E-03 0.  1.
        -12    1    3    3    0    0 -0.12999858630E+02 -0.16515578253E+01  0.20512903025E+01  0.13263927004E+02  0.00000000000E+00 0.  1.
</event>
<event>
 7    1  0.4011333E-009  0.4778725E+02  0.7816164E-02  0.1312668E+00
        -11   -1    0    0    0    0  0.00000000000E+00  0.00000000000E+00  0.45593999997E+02  0.45594000000E+02  0.51100000000E-03 0.  1.
         11   -1    0    0    0    0 -0.00000000000E+00 -0.00000000000E+00 -0.45593999997E+02  0.45594000000E+02  0.51100000000E-03 0. -1.
    9900012    2    1    2    0    0 -0.21559108955E+02  0.54029362981E+01 -0.37277850210E+02  0.47787250976E+02  0.19999908501E+02 0.  0.
        -12    1    1    2    0    0  0.21559108955E+02 -0.54029362981E+01  0.37277850210E+02  0.43400749024E+02  0.00000000000E+00 0.  1.
         11    1    3    3    0    0  0.13664978066E+00 -0.14118088015E+01  0.21960711414E+00  0.14353065178E+01  0.51100000000E-03 0. -1.
        -11    1    3    3    0    0 -0.48970970038E+01 -0.18377375562E+01 -0.11047330336E+01  0.53459586350E+01  0.51100000000E-03 0.  1.
         12    1    3    3    0    0 -0.16798661732E+02  0.86524826558E+01 -0.36392724290E+02  0.41005985823E+02  0.00000000000E+00 0. -1.
</event>
<event>
 7    1  0.4011333E-009  0.4778727E+02  0.7816164E-02  0.1312668E+00
        -11   -1    0    0    0    0  0.00000000000E+00  0.00000000000E+00  0.45593999997E+02  0.45594000000E+02  0.51100000000E-03 0.  1.
         11   -1    0    0    0    0 -0.00000000000E+00 -0.00000000000E+00 -0.45593999997E+02  0.45594000000E+02  0.51100000000E-03 0. -1.
    9900012    2    1    2    0    0  0.42859833689E+02  0.20183179058E+01 -0.65256602709E+01  0.47787271976E+02  0.20000004248E+02 0.  0.
        -12    1    1    2    0    0 -0.42859833689E+02 -0.20183179058E+01  0.65256602709E+01  0.43400728024E+02  0.00000000000E+00 0.  1.
         11    1    3    3    0    0  0.69714829039E+01  0.48220599044E+01 -0.47943285244E+01  0.97385533762E+01  0.51100000000E-03 0. -1.
        -11    1    3    3    0    0  0.40244465376E+01 -0.40566996374E+01 -0.22880360815E+01  0.61553303123E+01  0.51100000000E-03 0.  1.
         12    1    3    3    0    0  0.31863904248E+02  0.12529576388E+01  0.55670433503E+00  0.31893388288E+02  0.00000000000E+00 0. -1.
</event>
<event>
 7    1  0.4011333E-009  0.4778727E+02  0.7816164E-02  0.1312668E+00
        -11   -1    0    0    0    0  0.00000000000E+00  0.00000000000E+00  0.45593999997E+02  0.45594000000E+02  0.51100000000E-03 0.  1.
         11   -1    0    0    0    0 -0.00000000000E+00 -0.00000000000E+00 -0.45593999997E+02  0.45594000000E+02  0.51100000000E-03 0. -1.
    9900012    2    1    2    0    0  0.25336377266E+02 -0.24069065501E+02 -0.25736575775E+02  0.47787271208E+02  0.20000000745E+02 0.  0.
        -12    1    1    2    0    0 -0.25336377266E+02  0.24069065501E+02  0.25736575775E+02  0.43400728792E+02  0.00000000000E+00 0.  1.
         11    1    3    3    0    0  0.30909865760E+01  0.13545353525E+01 -0.90296716626E+00  0.34934673318E+01  0.51100000000E-03 0.  1.
        -11    1    3    3    0    0  0.14791536793E+02 -0.74005877581E+01 -0.73432752320E+01  0.18096462396E+02  0.51100000000E-03 0. -1.
         12    1    3    3    0    0  0.74538538966E+01 -0.18023013096E+02 -0.17490333377E+02  0.26197341480E+02  0.00000000000E+00 0. -1.
</event>
<event>
 7    1  0.4011333E-009  0.4778727E+02  0.7816164E-02  0.1312668E+00
        -11   -1    0    0    0    0  0.00000000000E+00  0.00000000000E+00  0.45593999997E+02  0.45594000000E+02  0.51100000000E-03 0. -1.
         11   -1    0    0    0    0 -0.00000000000E+00 -0.00000000000E+00 -0.45593999997E+02  0.45594000000E+02  0.51100000000E-03 0.  1.
    9900012    2    1    2    0    0  0.20265054711E+02 -0.29955431614E+02  0.23992147338E+02  0.47787268906E+02  0.19999990248E+02 0.  0.
        -12    1    1    2    0    0 -0.20265054711E+02  0.29955431614E+02 -0.23992147338E+02  0.43400731094E+02  0.00000000000E+00 0.  1.
         11    1    3    3    0    0  0.37496754614E+01  0.35870436124E+00  0.97582449465E+00  0.38911397546E+01  0.51100000000E-03 0. -1.
        -11    1    3    3    0    0 -0.16269753282E+01 -0.98369355596E+01  0.71611736829E+01  0.12275779352E+02  0.51100000000E-03 0.  1.
         12    1    3    3    0    0  0.18142354577E+02 -0.20477200416E+02  0.15855149161E+02  0.31620349799E+02  0.00000000000E+00 0. -1.
</event>
<event>
 7    1  0.4011333E-009  0.4778727E+02  0.7816164E-02  0.1312668E+00
        -11   -1    0    0    0    0  0.00000000000E+00  0.00000000000E+00  0.45593999997E+02  0.45594000000E+02  0.51100000000E-03 0.  1.
         11   -1    0    0    0    0 -0.00000000000E+00 -0.00000000000E+00 -0.45593999997E+02  0.45594000000E+02  0.51100000000E-03 0. -1.
    9900012    2    1    2    0    0 -0.32824182771E+02  0.25614069568E+02 -0.12252173068E+02  0.47787270982E+02  0.19999999716E+02 0.  0.
        -12    1    1    2    0    0  0.32824182771E+02 -0.25614069568E+02  0.12252173068E+02  0.43400729018E+02  0.00000000000E+00 0.  1.
         11    1    3    3    0    0 -0.19265529272E+02  0.37249729838E+01 -0.56640084259E+01  0.20423443235E+02  0.51100000000E-03 0. -1.
        -11    1    3    3    0    0 -0.14594389327E+01  0.77428612907E+00  0.92667573034E+00  0.18942568934E+01  0.51100000000E-03 0.  1.
         12    1    3    3    0    0 -0.12099214566E+02  0.21114810455E+02 -0.75148403725E+01  0.25469570854E+02  0.00000000000E+00 0. -1.
</event>
<event>
 7    1  0.4011333E-009  0.4778728E+02  0.7816164E-02  0.1312668E+00
        -11   -1    0    0    0    0  0.00000000000E+00  0.00000000000E+00  0.45593999997E+02  0.45594000000E+02  0.51100000000E-03 0.  1.
         11   -1    0    0    0    0 -0.00000000000E+00 -0.00000000000E+00 -0.45593999997E+02  0.45594000000E+02  0.51100000000E-03 0. -1.
    9900012    2    1    2    0    0 -0.11805850749E+00  0.17070982950E+02 -0.39902260401E+02  0.47787276713E+02  0.20000025844E+02 0.  0.
        -12    1    1    2    0    0  0.11805850749E+00 -0.17070982950E+02  0.39902260401E+02  0.43400723287E+02  0.00000000000E+00 0.  1.
         11    1    3    3    0    0  0.24646509083E+01  0.66333525178E+01 -0.24260529155E+02  0.25271508559E+02  0.51100000000E-03 0. -1.
        -11    1    3    3    0    0  0.39079055491E+01  0.85234858742E+01 -0.81880207126E+01  0.12448502748E+02  0.51100000000E-03 0.  1.
        -12    1    3    3    0    0 -0.64906149649E+01  0.19141445585E+01 -0.74537105343E+01  0.10067265405E+02  0.00000000000E+00 0.  1.
</event>
<event>
 7    1  0.4011333E-009  0.4778725E+02  0.7816164E-02  0.1312668E+00
        -11   -1    0    0    0    0  0.00000000000E+00  0.00000000000E+00  0.45593999997E+02  0.45594000000E+02  0.51100000000E-03 0.  1.
         11   -1    0    0    0    0 -0.00000000000E+00 -0.00000000000E+00 -0.45593999997E+02  0.45594000000E+02  0.51100000000E-03 0. -1.
    9900012    2    1    2    0    0 -0.22661783499E+02 -0.27905277117E+02 -0.24317979865E+02  0.47787250386E+02  0.19999905808E+02 0.  0.
        -12    1    1    2    0    0  0.22661783499E+02  0.27905277117E+02  0.24317979865E+02  0.43400749614E+02  0.00000000000E+00 0.  1.
         11    1    3    3    0    0 -0.17317596030E+02 -0.83803128684E+01 -0.64096475132E+01  0.20278371669E+02  0.51100000000E-03 0.  1.
        -11    1    3    3    0    0 -0.90405106698E+00 -0.94450596607E+01 -0.57112134087E+01  0.11074494083E+02  0.51100000000E-03 0. -1.
        -12    1    3    3    0    0 -0.44401364022E+01 -0.10079904588E+02 -0.12197118944E+02  0.16434384634E+02  0.00000000000E+00 0.  1.
</event>
<event>
 7    1  0.4011333E-009  0.4778728E+02  0.7816164E-02  0.1312668E+00
        -11   -1    0    0    0    0  0.00000000000E+00  0.00000000000E+00  0.45593999997E+02  0.45594000000E+02  0.51100000000E-03 0.  1.
         11   -1    0    0    0    0 -0.00000000000E+00 -0.00000000000E+00 -0.45593999997E+02  0.45594000000E+02  0.51100000000E-03 0. -1.
    9900012    2    1    2    0    0  0.28484370821E+02  0.46186901666E+01 -0.32418058762E+02  0.47787283257E+02  0.20000055680E+02 0.  0.
        -12    1    1    2    0    0 -0.28484370821E+02 -0.46186901666E+01  0.32418058762E+02  0.43400716743E+02  0.00000000000E+00 0.  1.
         11    1    3    3    0    0  0.11323409137E+02  0.92345036493E+01 -0.14154701374E+02  0.20343333635E+02  0.51100000000E-03 0. -1.
        -11    1    3    3    0    0  0.81604832459E+01 -0.56971885111E-01 -0.21610833961E+01  0.84419792886E+01  0.51100000000E-03 0.  1.
         12    1    3    3    0    0  0.90004784383E+01 -0.45588415976E+01 -0.16102273992E+02  0.19001970333E+02  0.00000000000E+00 0. -1.
</event>
<event>
 7    1  0.4011333E-009  0.4778727E+02  0.7816164E-02  0.1312668E+00
        -11   -1    0    0    0    0  0.00000000000E+00  0.00000000000E+00  0.45593999997E+02  0.45594000000E+02  0.51100000000E-03 0.  1.
         11   -1    0    0    0    0 -0.00000000000E+00 -0.00000000000E+00 -0.45593999997E+02  0.45594000000E+02  0.51100000000E-03 0. -1.
    9900012    2    1    2    0    0  0.41434633460E+02 -0.10635608184E+02 -0.73265341729E+01  0.47787272882E+02  0.20000008377E+02 0.  0.
        -12    1    1    2    0    0 -0.41434633460E+02  0.10635608184E+02  0.73265341729E+01  0.43400727118E+02  0.00000000000E+00 0.  1.
         11    1    3    3    0    0  0.37527086272E+02 -0.72263155133E+01 -0.80706581412E+01  0.39059408124E+02  0.51100000000E-03 0. -1.
        -11    1    3    3    0    0  0.27629196854E+01  0.28183125697E+00 -0.24582468258E+01  0.37089259582E+01  0.51100000000E-03 0.  1.
         12    1    3    3    0    0  0.11446275031E+01 -0.36911239272E+01  0.32023707942E+01  0.50189387992E+01  0.00000000000E+00 0. -1.
</event>
<event>
 7    1  0.6457929E-009  0.4778727E+02  0.7816164E-02  0.1312668E+00
        -11   -1    0    0    0    0  0.00000000000E+00  0.00000000000E+00  0.45593999997E+02  0.45594000000E+02  0.51100000000E-03 0. -1.
         11   -1    0    0    0    0 -0.00000000000E+00 -0.00000000000E+00 -0.45593999997E+02  0.45594000000E+02  0.51100000000E-03 0.  1.
    9900012    2    1    2    0    0  0.70067385495E+01  0.78298431770E+01  0.42109649124E+02  0.47787269838E+02  0.19999994498E+02 0.  0.
        -12    1    1    2    0    0 -0.70067385495E+01 -0.78298431770E+01 -0.42109649124E+02  0.43400730162E+02  0.00000000000E+00 0.  1.
         11    1    3    3    0    0  0.99430836904E+01  0.80642158073E+01  0.27006235800E+02  0.29887008251E+02  0.51100000000E-03 0. -1.
        -11    1    3    3    0    0  0.29681134336E+01  0.10294572976E+01  0.28580872998E+01  0.42471334988E+01  0.51100000000E-03 0.  1.
        -12    1    3    3    0    0 -0.59044585745E+01 -0.12638299279E+01  0.12245326024E+02  0.13653128088E+02  0.00000000000E+00 0.  1.
</event>
<event>
 7    1  0.4011333E-009  0.4778726E+02  0.7816164E-02  0.1312668E+00
        -11   -1    0    0    0    0  0.00000000000E+00  0.00000000000E+00  0.45593999997E+02  0.45594000000E+02  0.51100000000E-03 0.  1.
         11   -1    0    0    0    0 -0.00000000000E+00 -0.00000000000E+00 -0.45593999997E+02  0.45594000000E+02  0.51100000000E-03 0. -1.
    9900012    2    1    2    0    0 -0.78691684049E+01 -0.10052051715E+02 -0.41480794530E+02  0.47787264178E+02  0.19999968693E+02 0.  0.
        -12    1    1    2    0    0  0.78691684049E+01  0.10052051715E+02  0.41480794530E+02  0.43400735822E+02  0.00000000000E+00 0.  1.
         11    1    3    3    0    0  0.33539001072E+01  0.25861599915E+00 -0.53816500260E+01  0.63464703125E+01  0.51100000000E-03 0. -1.
        -11    1    3    3    0    0 -0.46866882589E+01 -0.55321558277E+01 -0.38871376946E+01  0.82267633159E+01  0.51100000000E-03 0.  1.
        -12    1    3    3    0    0 -0.65363802532E+01 -0.47785118860E+01 -0.32212006809E+02  0.33214030550E+02  0.00000000000E+00 0.  1.
</event>
<event>
 7    1  0.4011333E-009  0.4778727E+02  0.7816164E-02  0.1312668E+00
        -11   -1    0    0    0    0  0.00000000000E+00  0.00000000000E+00  0.45593999997E+02  0.45594000000E+02  0.51100000000E-03 0. -1.
         11   -1    0    0    0    0 -0.00000000000E+00 -0.00000000000E+00 -0.45593999997E+02  0.45594000000E+02  0.51100000000E-03 0.  1.
    9900012    2    1    2    0    0  0.94857146975E+01  0.32760683135E+02  0.26839935459E+02  0.47787270994E+02  0.19999999770E+02 0.  0.
        -12    1    1    2    0    0 -0.94857146975E+01 -0.32760683135E+02 -0.26839935459E+02  0.43400729006E+02  0.00000000000E+00 0.  1.
         11    1    3    3    0    0  0.71866398336E+01  0.19452155484E+02  0.16149323088E+02  0.26283736065E+02  0.51100000000E-03 0. -1.
        -11    1    3    3    0    0  0.17415515829E+01  0.53472535652E+01  0.12151885061E+02  0.13390087132E+02  0.51100000000E-03 0.  1.
        -12    1    3    3    0    0  0.55752328091E+00  0.79612740859E+01 -0.14612726902E+01  0.81134477970E+01  0.00000000000E+00 0.  1.
</event>
<event>
 7    1  0.4011333E-009  0.4778728E+02  0.7816164E-02  0.1312668E+00
        -11   -1    0    0    0    0  0.00000000000E+00  0.00000000000E+00  0.45593999997E+02  0.45594000000E+02  0.51100000000E-03 0.  1.
         11   -1    0    0    0    0 -0.00000000000E+00 -0.00000000000E+00 -0.45593999997E+02  0.45594000000E+02  0.51100000000E-03 0. -1.
    9900012    2    1    2    0    0 -0.23464836436E+02 -0.34522962229E+02 -0.11882315554E+02  0.47787275433E+02  0.20000020008E+02 0.  0.
        -12    1    1    2    0    0  0.23464836436E+02  0.34522962229E+02  0.11882315554E+02  0.43400724567E+02  0.00000000000E+00 0.  1.
         11    1    3    3    0    0 -0.22051432212E+01 -0.30711494062E+01  0.29270763242E+01  0.47814633085E+01  0.51100000000E-03 0. -1.
        -11    1    3    3    0    0 -0.49203119239E+01 -0.72381242953E+01  0.24350863116E+01  0.90845780501E+01  0.51100000000E-03 0.  1.
         12    1    3    3    0    0 -0.16339381290E+02 -0.24213688528E+02 -0.17244478190E+02  0.33921234074E+02  0.00000000000E+00 0. -1.
</event>
<event>
 7    1  0.4011333E-009  0.4778728E+02  0.7816164E-02  0.1312668E+00
        -11   -1    0    0    0    0  0.00000000000E+00  0.00000000000E+00  0.45593999997E+02  0.45594000000E+02  0.51100000000E-03 0.  1.
         11   -1    0    0    0    0 -0.00000000000E+00 -0.00000000000E+00 -0.45593999997E+02  0.45594000000E+02  0.51100000000E-03 0. -1.
    9900012    2    1    2    0    0 -0.30627633608E+02  0.49413114033E+01 -0.30350516461E+02  0.47787281708E+02  0.20000048621E+02 0.  0.
        -12    1    1    2    0    0  0.30627633608E+02 -0.49413114033E+01  0.30350516461E+02  0.43400718292E+02  0.00000000000E+00 0.  1.
         11    1    3    3    0    0 -0.43187206049E+01 -0.62903777113E+01 -0.73444522584E+01  0.10590617482E+02  0.51100000000E-03 0. -1.
        -11    1    3    3    0    0 -0.35170284177E+01  0.24828762717E+01 -0.62383006529E+01  0.75796146847E+01  0.51100000000E-03 0.  1.
         12    1    3    3    0    0 -0.22791884585E+02  0.87488128429E+01 -0.16767763550E+02  0.29617049542E+02  0.00000000000E+00 0. -1.
</event>
<event>
 7    1  0.4011333E-009  0.4778727E+02  0.7816164E-02  0.1312668E+00
        -11   -1    0    0    0    0  0.00000000000E+00  0.00000000000E+00  0.45593999997E+02  0.45594000000E+02  0.51100000000E-03 0.  1.
         11   -1    0    0    0    0 -0.00000000000E+00 -0.00000000000E+00 -0.45593999997E+02  0.45594000000E+02  0.51100000000E-03 0. -1.
    9900012    2    1    2    0    0  0.16976553070E+02 -0.13898748735E+02 -0.37446555260E+02  0.47787273377E+02  0.20000010635E+02 0.  0.
        -12    1    1    2    0    0 -0.16976553070E+02  0.13898748735E+02  0.37446555260E+02  0.43400726623E+02  0.00000000000E+00 0.  1.
         11    1    3    3    0    0 -0.15850966175E+01 -0.50687763832E+01 -0.63652785342E+01  0.82898610597E+01  0.51100000000E-03 0. -1.
        -11    1    3    3    0    0 -0.12781349838E+01 -0.24920534801E+01 -0.11382796757E+01  0.30231838293E+01  0.51100000000E-03 0.  1.
         12    1    3    3    0    0  0.19839784671E+02 -0.63379188717E+01 -0.29942997051E+02  0.36474228488E+02  0.00000000000E+00 0. -1.
</event>
<event>
 7    1  0.4011333E-009  0.4778727E+02  0.7816164E-02  0.1312668E+00
        -11   -1    0    0    0    0  0.00000000000E+00  0.00000000000E+00  0.45593999997E+02  0.45594000000E+02  0.51100000000E-03 0. -1.
         11   -1    0    0    0    0 -0.00000000000E+00 -0.00000000000E+00 -0.45593999997E+02  0.45594000000E+02  0.51100000000E-03 0.  1.
    9900012    2    1    2    0    0  0.36798653877E+02 -0.11650717732E+02  0.19842967177E+02  0.47787268472E+02  0.19999988269E+02 0.  0.
        -12    1    1    2    0    0 -0.36798653877E+02  0.11650717732E+02 -0.19842967177E+02  0.43400731528E+02  0.00000000000E+00 0.  1.
         11    1    3    3    0    0  0.19075453160E+02 -0.79283451843E+01  0.71103585774E+01  0.21846939602E+02  0.51100000000E-03 0. -1.
        -11    1    3    3    0    0 -0.13158367710E+01 -0.30649816985E+01  0.32631124398E+01  0.46662021255E+01  0.51100000000E-03 0.  1.
         12    1    3    3    0    0  0.19039037488E+02 -0.65739084895E+00  0.94694961602E+01  0.21274126744E+02  0.00000000000E+00 0. -1.
</event>
<event>
 7    1  0.4011333E-009  0.4778726E+02  0.7816164E-02  0.1312668E+00
        -11   -1    0    0    0    0  0.00000000000E+00  0.00000000000E+00  0.45593999997E+02  0.45594000000E+02  0.51100000000E-03 0.  1.
         11   -1    0    0    0    0 -0.00000000000E+00 -0.00000000000E+00 -0.45593999997E+02  0.45594000000E+02  0.51100000000E-03 0. -1.
    9900012    2    1    2    0    0  0.36403831184E+01 -0.36649656889E+02 -0.22960278135E+02  0.47787261396E+02  0.19999956009E+02 0.  0.
        -12    1    1    2    0    0 -0.36403831184E+01  0.36649656889E+02  0.22960278135E+02  0.43400738604E+02  0.00000000000E+00 0.  1.
         11    1    3    3    0    0  0.84531574439E+01 -0.16078855266E+02 -0.14054762019E+02  0.22967842587E+02  0.51100000000E-03 0. -1.
        -11    1    3    3    0    0  0.13358963595E+01 -0.11978763621E+02 -0.20538055543E+01  0.12226754045E+02  0.51100000000E-03 0.  1.
         12    1    3    3    0    0 -0.61486706851E+01 -0.85920380022E+01 -0.68517105617E+01  0.12592664763E+02  0.00000000000E+00 0. -1.
</event>
<event>
 7    1  0.4011333E-009  0.4778727E+02  0.7816164E-02  0.1312668E+00
        -11   -1    0    0    0    0  0.00000000000E+00  0.00000000000E+00  0.45593999997E+02  0.45594000000E+02  0.51100000000E-03 0. -1.
         11   -1    0    0    0    0 -0.00000000000E+00 -0.00000000000E+00 -0.45593999997E+02  0.45594000000E+02  0.51100000000E-03 0.  1.
    9900012    2    1    2    0    0 -0.31215239772E+02 -0.27990097410E+02 -0.11215457870E+02  0.47787271408E+02  0.20000001659E+02 0.  0.
        -12    1    1    2    0    0  0.31215239772E+02  0.27990097410E+02  0.11215457870E+02  0.43400728592E+02  0.00000000000E+00 0.  1.
         11    1    3    3    0    0 -0.46859729901E+01 -0.23354111144E+01  0.20295223832E+01  0.56152871077E+01  0.51100000000E-03 0. -1.
        -11    1    3    3    0    0 -0.54846191859E+01  0.14601400924E+01 -0.12379514604E+01  0.58090946612E+01  0.51100000000E-03 0.  1.
         12    1    3    3    0    0 -0.21044647596E+02 -0.27114826388E+02 -0.12007028793E+02  0.36362889639E+02  0.00000000000E+00 0. -1.
</event>
<event>
 7    1  0.4011333E-009  0.4778728E+02  0.7816164E-02  0.1312668E+00
        -11   -1    0    0    0    0  0.00000000000E+00  0.00000000000E+00  0.45593999997E+02  0.45594000000E+02  0.51100000000E-03 0.  1.
         11   -1    0    0    0    0 -0.00000000000E+00 -0.00000000000E+00 -0.45593999997E+02  0.45594000000E+02  0.51100000000E-03 0. -1.
    9900012    2    1    2    0    0 -0.31547210195E+02  0.43746880450E+01 -0.29483189730E+02  0.47787276005E+02  0.20000022619E+02 0.  0.
        -12    1    1    2    0    0  0.31547210195E+02 -0.43746880450E+01  0.29483189730E+02  0.43400723995E+02  0.00000000000E+00 0.  1.
         11    1    3    3    0    0 -0.24114681494E+00  0.21315170297E+01 -0.61891046936E+01  0.65503079168E+01  0.51100000000E-03 0. -1.
        -11    1    3    3    0    0 -0.37913140861E+01 -0.65867110695E-01 -0.97929127109E+01  0.10501406601E+02  0.51100000000E-03 0.  1.
        -12    1    3    3    0    0 -0.27514749294E+02  0.23090381260E+01 -0.13501172326E+02  0.30735561487E+02  0.00000000000E+00 0.  1.
</event>
<event>
 7    1  0.4011333E-009  0.4778729E+02  0.7816164E-02  0.1312668E+00
        -11   -1    0    0    0    0  0.00000000000E+00  0.00000000000E+00  0.45593999997E+02  0.45594000000E+02  0.51100000000E-03 0.  1.
         11   -1    0    0    0    0 -0.00000000000E+00 -0.00000000000E+00 -0.45593999997E+02  0.45594000000E+02  0.51100000000E-03 0. -1.
    9900012    2    1    2    0    0 -0.19283961807E+02  0.32965470401E+02 -0.20616218295E+02  0.47787287120E+02  0.20000073295E+02 0.  0.
        -12    1    1    2    0    0  0.19283961807E+02 -0.32965470401E+02  0.20616218295E+02  0.43400712880E+02  0.00000000000E+00 0.  1.
         11    1    3    3    0    0 -0.11731097764E+02  0.12833774120E+02 -0.87245980738E+01  0.19453612126E+02  0.51100000000E-03 0. -1.
        -11    1    3    3    0    0 -0.10024647774E+02  0.20857077629E+02 -0.10741248498E+02  0.25512461068E+02  0.51100000000E-03 0.  1.
        -12    1    3    3    0    0  0.24717837313E+01 -0.72538134854E+00 -0.11503717236E+01  0.28212139262E+01  0.00000000000E+00 0.  1.
</event>
<event>
 7    1  0.4011333E-009  0.4778727E+02  0.7816164E-02  0.1312668E+00
        -11   -1    0    0    0    0  0.00000000000E+00  0.00000000000E+00  0.45593999997E+02  0.45594000000E+02  0.51100000000E-03 0.  1.
         11   -1    0    0    0    0 -0.00000000000E+00 -0.00000000000E+00 -0.45593999997E+02  0.45594000000E+02  0.51100000000E-03 0. -1.
    9900012    2    1    2    0    0  0.18114830778E+02  0.21991043319E+02 -0.32739428557E+02  0.47787271174E+02  0.20000000592E+02 0.  0.
        -12    1    1    2    0    0 -0.18114830778E+02 -0.21991043319E+02  0.32739428557E+02  0.43400728826E+02  0.00000000000E+00 0.  1.
         11    1    3    3    0    0  0.57373412863E+01 -0.62264545544E-01 -0.91081689871E+01  0.10764743586E+02  0.51100000000E-03 0. -1.
        -11    1    3    3    0    0  0.13029395442E+01 -0.13565749186E+01  0.11752753582E+00  0.18846113521E+01  0.51100000000E-03 0.  1.
         12    1    3    3    0    0  0.11074549948E+02  0.23409882783E+02 -0.23748787105E+02  0.35137916236E+02  0.00000000000E+00 0. -1.
</event>
<event>
 7    1  0.4011333E-009  0.4778728E+02  0.7816164E-02  0.1312668E+00
        -11   -1    0    0    0    0  0.00000000000E+00  0.00000000000E+00  0.45593999997E+02  0.45594000000E+02  0.51100000000E-03 0.  1.
         11   -1    0    0    0    0 -0.00000000000E+00 -0.00000000000E+00 -0.45593999997E+02  0.45594000000E+02  0.51100000000E-03 0. -1.
    9900012    2    1    2    0    0  0.23508877865E+02 -0.18574984307E+02 -0.31399445233E+02  0.47787279483E+02  0.20000038475E+02 0.  0.
        -12    1    1    2    0    0 -0.23508877865E+02  0.18574984307E+02  0.31399445233E+02  0.43400720517E+02  0.00000000000E+00 0.  1.
         11    1    3    3    0    0  0.14953347775E+01 -0.46445254031E+01 -0.10230296477E+02  0.11334311121E+02  0.51100000000E-03 0. -1.
        -11    1    3    3    0    0 -0.74126528613E+00 -0.52545630752E+01 -0.42697487673E+01  0.68110690888E+01  0.51100000000E-03 0.  1.
        -12    1    3    3    0    0  0.22754808374E+02 -0.86758958283E+01 -0.16899399988E+02  0.29641899273E+02  0.00000000000E+00 0.  1.
</event>
<event>
 7    1  0.4011333E-009  0.4778727E+02  0.7816164E-02  0.1312668E+00
        -11   -1    0    0    0    0  0.00000000000E+00  0.00000000000E+00  0.45593999997E+02  0.45594000000E+02  0.51100000000E-03 0.  1.
         11   -1    0    0    0    0 -0.00000000000E+00 -0.00000000000E+00 -0.45593999997E+02  0.45594000000E+02  0.51100000000E-03 0. -1.
    9900012    2    1    2    0    0  0.13370320831E+02 -0.38338559417E+02 -0.15330120596E+02  0.47787271725E+02  0.20000003103E+02 0.  0.
        -12    1    1    2    0    0 -0.13370320831E+02  0.38338559417E+02  0.15330120596E+02  0.43400728275E+02  0.00000000000E+00 0.  1.
         11    1    3    3    0    0 -0.27538382236E+01 -0.29812744831E+01 -0.20896176212E-01  0.40585784970E+01  0.51100000000E-03 0. -1.
        -11    1    3    3    0    0  0.15542431037E+01 -0.50530519084E+01 -0.75555652366E+01  0.92214733920E+01  0.51100000000E-03 0.  1.
         12    1    3    3    0    0  0.14569915951E+02 -0.30304233026E+02 -0.77536591828E+01  0.34507219836E+02  0.00000000000E+00 0. -1.
</event>
<event>
 7    1  0.6100896E-009  0.4778727E+02  0.7816164E-02  0.1312668E+00
        -11   -1    0    0    0    0  0.00000000000E+00  0.00000000000E+00  0.45593999997E+02  0.45594000000E+02  0.51100000000E-03 0. -1.
         11   -1    0    0    0    0 -0.00000000000E+00 -0.00000000000E+00 -0.45593999997E+02  0.45594000000E+02  0.51100000000E-03 0.  1.
    9900012    2    1    2    0    0  0.37704569297E+02  0.17326829950E+02 -0.12718858291E+02  0.47787274911E+02  0.20000017629E+02 0.  0.
        -12    1    1    2    0    0 -0.37704569297E+02 -0.17326829950E+02  0.12718858291E+02  0.43400725089E+02  0.00000000000E+00 0.  1.
         11    1    3    3    0    0  0.20499082944E+02  0.76550508668E+01 -0.69380955787E+01  0.22955377928E+02  0.51100000000E-03 0. -1.
        -11    1    3    3    0    0  0.68847059751E+01 -0.17465074261E+01 -0.62096996596E+01  0.94345023545E+01  0.51100000000E-03 0.  1.
        -12    1    3    3    0    0  0.10320780379E+02  0.11418286509E+02  0.42893694695E+00  0.15397394628E+02  0.00000000000E+00 0.  1.
</event>
<event>
 7    1  0.4011333E-009  0.4778727E+02  0.7816164E-02  0.1312668E+00
        -11   -1    0    0    0    0  0.00000000000E+00  0.00000000000E+00  0.45593999997E+02  0.45594000000E+02  0.51100000000E-03 0.  1.
         11   -1    0    0    0    0 -0.00000000000E+00 -0.00000000000E+00 -0.45593999997E+02  0.45594000000E+02  0.51100000000E-03 0. -1.
    9900012    2    1    2    0    0  0.19723645787E+02  0.15405487270E+02 -0.35458037073E+02  0.47787266893E+02  0.19999981072E+02 0.  0.
        -12    1    1    2    0    0 -0.19723645787E+02 -0.15405487270E+02  0.35458037073E+02  0.43400733107E+02  0.00000000000E+00 0.  1.
         11    1    3    3    0    0  0.26139273839E+00  0.16653122777E+01  0.26997667475E+00  0.17071844692E+01  0.51100000000E-03 0. -1.
        -11    1    3    3    0    0  0.16234607068E+01  0.84145142711E+01 -0.19816251818E+02  0.21589893734E+02  0.51100000000E-03 0.  1.
         12    1    3    3    0    0  0.17838792342E+02  0.53256607214E+01 -0.15911761930E+02  0.24490188690E+02  0.00000000000E+00 0. -1.
</event>
<event>
 7    1  0.4011333E-009  0.4778727E+02  0.7816164E-02  0.1312668E+00
        -11   -1    0    0    0    0  0.00000000000E+00  0.00000000000E+00  0.45593999997E+02  0.45594000000E+02  0.51100000000E-03 0. -1.
         11   -1    0    0    0    0 -0.00000000000E+00 -0.00000000000E+00 -0.45593999997E+02  0.45594000000E+02  0.51100000000E-03 0.  1.
    9900012    2    1    2    0    0  0.16442469265E+02  0.14817163975E+02  0.37332561397E+02  0.47787270925E+02  0.19999999456E+02 0.  0.
        -12    1    1    2    0    0 -0.16442469265E+02 -0.14817163975E+02 -0.37332561397E+02  0.43400729075E+02  0.00000000000E+00 0.  1.
         11    1    3    3    0    0  0.10058271251E+02  0.15168077259E+01  0.13096060626E+02  0.16582410272E+02  0.51100000000E-03 0. -1.
        -11    1    3    3    0    0  0.76798745711E+01  0.92446195597E+01  0.24116730676E+02  0.26945503576E+02  0.51100000000E-03 0.  1.
         12    1    3    3    0    0 -0.12956765576E+01  0.40557366889E+01  0.11977009516E+00  0.42593570767E+01  0.00000000000E+00 0. -1.
</event>
<event>
 7    1  0.4011333E-009  0.4778727E+02  0.7816164E-02  0.1312668E+00
        -11   -1    0    0    0    0  0.00000000000E+00  0.00000000000E+00  0.45593999997E+02  0.45594000000E+02  0.51100000000E-03 0.  1.
         11   -1    0    0    0    0 -0.00000000000E+00 -0.00000000000E+00 -0.45593999997E+02  0.45594000000E+02  0.51100000000E-03 0. -1.
    9900012    2    1    2    0    0  0.16617619094E+02 -0.17532483957E+02 -0.36056759550E+02  0.47787272272E+02  0.20000005596E+02 0.  0.
        -12    1    1    2    0    0 -0.16617619094E+02  0.17532483957E+02  0.36056759550E+02  0.43400727728E+02  0.00000000000E+00 0.  1.
         11    1    3    3    0    0 -0.30771262126E+01  0.16246569429E+01 -0.38855350641E+01  0.52158986672E+01  0.51100000000E-03 0. -1.
        -11    1    3    3    0    0  0.10813144689E+01 -0.12036929689E-01 -0.65457874746E+00  0.12640646606E+01  0.51100000000E-03 0.  1.
        -12    1    3    3    0    0  0.18613430838E+02 -0.19145103970E+02 -0.31516645739E+02  0.41307308944E+02  0.00000000000E+00 0.  1.
</event>
<event>
 7    1  0.4011333E-009  0.4778727E+02  0.7816164E-02  0.1312668E+00
        -11   -1    0    0    0    0  0.00000000000E+00  0.00000000000E+00  0.45593999997E+02  0.45594000000E+02  0.51100000000E-03 0.  1.
         11   -1    0    0    0    0 -0.00000000000E+00 -0.00000000000E+00 -0.45593999997E+02  0.45594000000E+02  0.51100000000E-03 0. -1.
    9900012    2    1    2    0    0  0.27022225218E+02  0.21803837444E+02 -0.26038727551E+02  0.47787270565E+02  0.19999997813E+02 0.  0.
        -12    1    1    2    0    0 -0.27022225218E+02 -0.21803837444E+02  0.26038727551E+02  0.43400729435E+02  0.00000000000E+00 0.  1.
         11    1    3    3    0    0  0.10867620581E+02  0.11355113299E+02 -0.14107104820E+02  0.21119994834E+02  0.51100000000E-03 0. -1.
        -11    1    3    3    0    0  0.15876469875E+02  0.38816511369E+01 -0.11681655432E+02  0.20089564085E+02  0.51100000000E-03 0.  1.
         12    1    3    3    0    0  0.27813476234E+00  0.65670730082E+01 -0.24996729877E+00  0.65777116455E+01  0.00000000000E+00 0. -1.
</event>
<event>
 7    1  0.4011333E-009  0.4778727E+02  0.7816164E-02  0.1312668E+00
        -11   -1    0    0    0    0  0.00000000000E+00  0.00000000000E+00  0.45593999997E+02  0.45594000000E+02  0.51100000000E-03 0.  1.
         11   -1    0    0    0    0 -0.00000000000E+00 -0.00000000000E+00 -0.45593999997E+02  0.45594000000E+02  0.51100000000E-03 0. -1.
    9900012    2    1    2    0    0 -0.33331735840E+02  0.24830827312E+02 -0.12491939971E+02  0.47787272318E+02  0.20000005807E+02 0.  0.
        -12    1    1    2    0    0  0.33331735840E+02 -0.24830827312E+02  0.12491939971E+02  0.43400727682E+02  0.00000000000E+00 0.  1.
         11    1    3    3    0    0 -0.27584182920E+01  0.69604976178E+00 -0.23693773928E+01  0.37023379418E+01  0.51100000000E-03 0. -1.
        -11    1    3    3    0    0 -0.53208355750E+01 -0.21885405786E+01 -0.42151820918E+01  0.71322339704E+01  0.51100000000E-03 0.  1.
         12    1    3    3    0    0 -0.25252481973E+02  0.26323318128E+02 -0.59073804861E+01  0.36952700406E+02  0.00000000000E+00 0. -1.
</event>
<event>
 7    1  0.4011333E-009  0.4778727E+02  0.7816164E-02  0.1312668E+00
        -11   -1    0    0    0    0  0.00000000000E+00  0.00000000000E+00  0.45593999997E+02  0.45594000000E+02  0.51100000000E-03 0. -1.
         11   -1    0    0    0    0 -0.00000000000E+00 -0.00000000000E+00 -0.45593999997E+02  0.45594000000E+02  0.51100000000E-03 0.  1.
    9900012    2    1    2    0    0 -0.25975786291E+02  0.20039718047E+01  0.34711177543E+02  0.47787271632E+02  0.20000002680E+02 0.  0.
        -12    1    1    2    0    0  0.25975786291E+02 -0.20039718047E+01 -0.34711177543E+02  0.43400728368E+02  0.00000000000E+00 0.  1.
         11    1    3    3    0    0 -0.15305719272E+02  0.26044113350E+01  0.99863073533E+01  0.18460074097E+02  0.51100000000E-03 0. -1.
        -11    1    3    3    0    0 -0.11112696360E+02 -0.37912782794E+01  0.14796016762E+02  0.18888830659E+02  0.51100000000E-03 0.  1.
        -12    1    3    3    0    0  0.44262934151E+00  0.31908387491E+01  0.99288534277E+01  0.10438366876E+02  0.00000000000E+00 0.  1.
</event>
<event>
 7    1  0.4011333E-009  0.4778727E+02  0.7816164E-02  0.1312668E+00
        -11   -1    0    0    0    0  0.00000000000E+00  0.00000000000E+00  0.45593999997E+02  0.45594000000E+02  0.51100000000E-03 0.  1.
         11   -1    0    0    0    0 -0.00000000000E+00 -0.00000000000E+00 -0.45593999997E+02  0.45594000000E+02  0.51100000000E-03 0. -1.
    9900012    2    1    2    0    0  0.19219643506E+02 -0.13880623688E+02 -0.36353228372E+02  0.47787267016E+02  0.19999981631E+02 0.  0.
        -12    1    1    2    0    0 -0.19219643506E+02  0.13880623688E+02  0.36353228372E+02  0.43400732984E+02  0.00000000000E+00 0.  1.
         11    1    3    3    0    0  0.19587756352E+01  0.24298388556E+00 -0.35206834991E+01  0.40362179971E+01  0.51100000000E-03 0. -1.
        -11    1    3    3    0    0 -0.21590623978E+01 -0.56913556389E+01 -0.21148643192E+01  0.64440461510E+01  0.51100000000E-03 0.  1.
        -12    1    3    3    0    0  0.19419930269E+02 -0.84322519346E+01 -0.30717680554E+02  0.37307002868E+02  0.00000000000E+00 0.  1.
</event>
<event>
 7    1  0.4011333E-009  0.4778726E+02  0.7816164E-02  0.1312668E+00
        -11   -1    0    0    0    0  0.00000000000E+00  0.00000000000E+00  0.45593999997E+02  0.45594000000E+02  0.51100000000E-03 0.  1.
         11   -1    0    0    0    0 -0.00000000000E+00 -0.00000000000E+00 -0.45593999997E+02  0.45594000000E+02  0.51100000000E-03 0. -1.
    9900012    2    1    2    0    0 -0.19411454279E+02 -0.30768272475E+02 -0.23667126042E+02  0.47787262640E+02  0.19999961680E+02 0.  0.
        -12    1    1    2    0    0  0.19411454279E+02  0.30768272475E+02  0.23667126042E+02  0.43400737360E+02  0.00000000000E+00 0.  1.
         11    1    3    3    0    0 -0.33363017157E+01 -0.10710828098E+02 -0.10679865389E+02  0.15489101738E+02  0.51100000000E-03 0. -1.
        -11    1    3    3    0    0 -0.89393818369E+01 -0.19042015084E+02 -0.51634472618E+01  0.21660380283E+02  0.51100000000E-03 0.  1.
        -12    1    3    3    0    0 -0.71357707267E+01 -0.10154292929E+01 -0.78238133913E+01  0.10637780619E+02  0.00000000000E+00 0.  1.
</event>
<event>
 7    1  0.4011333E-009  0.4778727E+02  0.7816164E-02  0.1312668E+00
        -11   -1    0    0    0    0  0.00000000000E+00  0.00000000000E+00  0.45593999997E+02  0.45594000000E+02  0.51100000000E-03 0.  1.
         11   -1    0    0    0    0 -0.00000000000E+00 -0.00000000000E+00 -0.45593999997E+02  0.45594000000E+02  0.51100000000E-03 0. -1.
    9900012    2    1    2    0    0  0.70689327589E+00 -0.18720287995E+02 -0.39149384074E+02  0.47787272425E+02  0.20000006294E+02 0.  0.
        -12    1    1    2    0    0 -0.70689327589E+00  0.18720287995E+02  0.39149384074E+02  0.43400727575E+02  0.00000000000E+00 0.  1.
         11    1    3    3    0    0  0.21839176662E+01 -0.81912543828E+01 -0.10962089476E+02  0.13857617063E+02  0.51100000000E-03 0. -1.
        -11    1    3    3    0    0 -0.77544338590E+01 -0.93386942630E+01 -0.21436917533E+02  0.24635013469E+02  0.51100000000E-03 0.  1.
        -12    1    3    3    0    0  0.62774094686E+01 -0.11903393491E+01 -0.67503770645E+01  0.92946418928E+01  0.00000000000E+00 0.  1.
</event>
<event>
 7    1  0.4011333E-009  0.4778727E+02  0.7816164E-02  0.1312668E+00
        -11   -1    0    0    0    0  0.00000000000E+00  0.00000000000E+00  0.45593999997E+02  0.45594000000E+02  0.51100000000E-03 0. -1.
         11   -1    0    0    0    0 -0.00000000000E+00 -0.00000000000E+00 -0.45593999997E+02  0.45594000000E+02  0.51100000000E-03 0.  1.
    9900012    2    1    2    0    0 -0.32927296077E+02  0.25618156036E+02  0.11963544164E+02  0.47787272649E+02  0.20000007315E+02 0.  0.
        -12    1    1    2    0    0  0.32927296077E+02 -0.25618156036E+02 -0.11963544164E+02  0.43400727351E+02  0.00000000000E+00 0.  1.
         11    1    3    3    0    0 -0.74028507789E-01  0.23644531331E+01  0.18460380544E+01  0.30006625265E+01  0.51100000000E-03 0.  1.
        -11    1    3    3    0    0 -0.23090342108E+02  0.20172090818E+02  0.38808972282E+00  0.30663133574E+02  0.51100000000E-03 0. -1.
         12    1    3    3    0    0 -0.97629254607E+01  0.30816120851E+01  0.97294163866E+01  0.14123476549E+02  0.00000000000E+00 0. -1.
</event>
<event>
 7    1  0.4011333E-009  0.4778727E+02  0.7816164E-02  0.1312668E+00
        -11   -1    0    0    0    0  0.00000000000E+00  0.00000000000E+00  0.45593999997E+02  0.45594000000E+02  0.51100000000E-03 0.  1.
         11   -1    0    0    0    0 -0.00000000000E+00 -0.00000000000E+00 -0.45593999997E+02  0.45594000000E+02  0.51100000000E-03 0. -1.
    9900012    2    1    2    0    0 -0.33110755956E+02 -0.65261069340E+01 -0.27289392666E+02  0.47787272082E+02  0.20000004733E+02 0.  0.
        -12    1    1    2    0    0  0.33110755956E+02  0.65261069340E+01  0.27289392666E+02  0.43400727918E+02  0.00000000000E+00 0.  1.
         11    1    3    3    0    0  0.10640847037E+01 -0.13647898729E+01 -0.15573296692E+01  0.23281330747E+01  0.51100000000E-03 0.  1.
        -11    1    3    3    0    0 -0.14418597746E+02 -0.79638747289E+01 -0.17022223182E+02  0.23687029024E+02  0.51100000000E-03 0. -1.
        -12    1    3    3    0    0 -0.19756242914E+02  0.28025576678E+01 -0.87098398146E+01  0.21772109984E+02  0.00000000000E+00 0.  1.
</event>
<event>
 7    1  0.4011333E-009  0.4778726E+02  0.7816164E-02  0.1312668E+00
        -11   -1    0    0    0    0  0.00000000000E+00  0.00000000000E+00  0.45593999997E+02  0.45594000000E+02  0.51100000000E-03 0.  1.
         11   -1    0    0    0    0 -0.00000000000E+00 -0.00000000000E+00 -0.45593999997E+02  0.45594000000E+02  0.51100000000E-03 0. -1.
    9900012    2    1    2    0    0 -0.42372710242E+01 -0.21141437409E+02 -0.37665757986E+02  0.47787260766E+02  0.19999953134E+02 0.  0.
        -12    1    1    2    0    0  0.42372710242E+01  0.21141437409E+02  0.37665757986E+02  0.43400739234E+02  0.00000000000E+00 0.  1.
         11    1    3    3    0    0 -0.43966823630E+00 -0.55327020725E+01 -0.16525636196E+02  0.17432749419E+02  0.51100000000E-03 0. -1.
        -11    1    3    3    0    0 -0.31684146518E+01  0.20005801829E+01 -0.62397738368E+01  0.72784579596E+01  0.51100000000E-03 0.  1.
        -12    1    3    3    0    0 -0.62918813604E+00 -0.17609315519E+02 -0.14900347953E+02  0.23076053387E+02  0.00000000000E+00 0.  1.
</event>
<event>
 7    1  0.4011333E-009  0.4778732E+02  0.7816164E-02  0.1312668E+00
        -11   -1    0    0    0    0  0.00000000000E+00  0.00000000000E+00  0.45593999997E+02  0.45594000000E+02  0.51100000000E-03 0. -1.
         11   -1    0    0    0    0 -0.00000000000E+00 -0.00000000000E+00 -0.45593999997E+02  0.45594000000E+02  0.51100000000E-03 0.  1.
    9900012    2    1    2    0    0 -0.12984411821E+02  0.48086068569E+01  0.41132733355E+02  0.47787315634E+02  0.20000203299E+02 0.  0.
        -12    1    1    2    0    0  0.12984411821E+02 -0.48086068569E+01 -0.41132733355E+02  0.43400684366E+02  0.00000000000E+00 0.  1.
         11    1    3    3    0    0 -0.11106273373E+02 -0.15036955598E+01  0.11807415376E+02  0.16279602780E+02  0.51100000000E-03 0. -1.
        -11    1    3    3    0    0  0.14858286517E+01 -0.12715055365E+01  0.13486952959E+02  0.13627997413E+02  0.51100000000E-03 0.  1.
        -12    1    3    3    0    0 -0.33639670998E+01  0.75838079531E+01  0.15838365020E+02  0.17879715441E+02  0.00000000000E+00 0.  1.
</event>
<event>
 7    1  0.4011333E-009  0.4778726E+02  0.7816164E-02  0.1312668E+00
        -11   -1    0    0    0    0  0.00000000000E+00  0.00000000000E+00  0.45593999997E+02  0.45594000000E+02  0.51100000000E-03 0.  1.
         11   -1    0    0    0    0 -0.00000000000E+00 -0.00000000000E+00 -0.45593999997E+02  0.45594000000E+02  0.51100000000E-03 0. -1.
    9900012    2    1    2    0    0 -0.11776173544E+02  0.12323399808E+02 -0.39913400942E+02  0.47787262438E+02  0.19999960758E+02 0.  0.
        -12    1    1    2    0    0  0.11776173544E+02 -0.12323399808E+02  0.39913400942E+02  0.43400737562E+02  0.00000000000E+00 0.  1.
         11    1    3    3    0    0 -0.68385605940E+01  0.82575467414E+01 -0.21714676629E+02  0.24217352674E+02  0.51100000000E-03 0. -1.
        -11    1    3    3    0    0  0.23922061290E+01  0.65915003837E+01 -0.66765025183E+01  0.96822628352E+01  0.51100000000E-03 0.  1.
        -12    1    3    3    0    0 -0.73298190791E+01 -0.25256473172E+01 -0.11522221796E+02  0.13887646928E+02  0.00000000000E+00 0.  1.
</event>
<event>
 7    1  0.4011333E-009  0.4778727E+02  0.7816164E-02  0.1312668E+00
        -11   -1    0    0    0    0  0.00000000000E+00  0.00000000000E+00  0.45593999997E+02  0.45594000000E+02  0.51100000000E-03 0. -1.
         11   -1    0    0    0    0 -0.00000000000E+00 -0.00000000000E+00 -0.45593999997E+02  0.45594000000E+02  0.51100000000E-03 0.  1.
    9900012    2    1    2    0    0  0.33520500443E+02 -0.27538560653E+02 -0.12755534388E+01  0.47787270636E+02  0.19999998136E+02 0.  0.
        -12    1    1    2    0    0 -0.33520500443E+02  0.27538560653E+02  0.12755534388E+01  0.43400729364E+02  0.00000000000E+00 0.  1.
         11    1    3    3    0    0  0.29650576869E+02 -0.23439423960E+02  0.47139584176E+01  0.38089167862E+02  0.51100000000E-03 0. -1.
        -11    1    3    3    0    0  0.26325208713E+01 -0.52905283020E+01 -0.45946954752E+01  0.74853912805E+01  0.51100000000E-03 0.  1.
        -12    1    3    3    0    0  0.12374027029E+01  0.11913916084E+01 -0.13948163813E+01  0.22127114930E+01  0.00000000000E+00 0.  1.
</event>
<event>
 7    1  0.4011333E-009  0.4778727E+02  0.7816164E-02  0.1312668E+00
        -11   -1    0    0    0    0  0.00000000000E+00  0.00000000000E+00  0.45593999997E+02  0.45594000000E+02  0.51100000000E-03 0.  1.
         11   -1    0    0    0    0 -0.00000000000E+00 -0.00000000000E+00 -0.45593999997E+02  0.45594000000E+02  0.51100000000E-03 0. -1.
    9900012    2    1    2    0    0 -0.86244116486E+01  0.33266107009E+02 -0.26506767555E+02  0.47787273300E+02  0.20000010284E+02 0.  0.
        -12    1    1    2    0    0  0.86244116486E+01 -0.33266107009E+02  0.26506767555E+02  0.43400726700E+02  0.00000000000E+00 0.  1.
         11    1    3    3    0    0 -0.53236765304E+01  0.25486495514E+02 -0.19130224910E+02  0.32308953724E+02  0.51100000000E-03 0. -1.
        -11    1    3    3    0    0  0.34507673460E+01  0.49983715512E+01 -0.47775755386E+01  0.77276608187E+01  0.51100000000E-03 0.  1.
         12    1    3    3    0    0 -0.67515024642E+01  0.27812399447E+01 -0.25989671066E+01  0.77506587575E+01  0.00000000000E+00 0. -1.
</event>
<event>
 7    1  0.4011333E-009  0.4778727E+02  0.7816164E-02  0.1312668E+00
        -11   -1    0    0    0    0  0.00000000000E+00  0.00000000000E+00  0.45593999997E+02  0.45594000000E+02  0.51100000000E-03 0. -1.
         11   -1    0    0    0    0 -0.00000000000E+00 -0.00000000000E+00 -0.45593999997E+02  0.45594000000E+02  0.51100000000E-03 0.  1.
    9900012    2    1    2    0    0 -0.29839331132E+02  0.12516865342E+02  0.28923445041E+02  0.47787271049E+02  0.20000000020E+02 0.  0.
        -12    1    1    2    0    0  0.29839331132E+02 -0.12516865342E+02 -0.28923445041E+02  0.43400728951E+02  0.00000000000E+00 0.  1.
         11    1    3    3    0    0 -0.85000116299E+00  0.12593530962E+01  0.34338046729E+01  0.37549283602E+01  0.51100000000E-03 0. -1.
        -11    1    3    3    0    0 -0.80550467702E+01 -0.36393903291E+01  0.16686213085E+01  0.89951785846E+01  0.51100000000E-03 0.  1.
         12    1    3    3    0    0 -0.20934283199E+02  0.14896902575E+02  0.23821019060E+02  0.35037164104E+02  0.00000000000E+00 0. -1.
</event>
<event>
 7    1  0.4011333E-009  0.4778728E+02  0.7816164E-02  0.1312668E+00
        -11   -1    0    0    0    0  0.00000000000E+00  0.00000000000E+00  0.45593999997E+02  0.45594000000E+02  0.51100000000E-03 0.  1.
         11   -1    0    0    0    0 -0.00000000000E+00 -0.00000000000E+00 -0.45593999997E+02  0.45594000000E+02  0.51100000000E-03 0. -1.
    9900012    2    1    2    0    0 -0.88268152479E+01  0.33369271752E+02 -0.26309717328E+02  0.47787283525E+02  0.20000056903E+02 0.  0.
        -12    1    1    2    0    0  0.88268152479E+01 -0.33369271752E+02  0.26309717328E+02  0.43400716475E+02  0.00000000000E+00 0.  1.
         11    1    3    3    0    0 -0.53875246048E+01  0.25191168971E+02 -0.14242052797E+02  0.29435632890E+02  0.51100000000E-03 0. -1.
        -11    1    3    3    0    0 -0.41573111355E+01  0.98295764613E+01 -0.12562648355E+02  0.16484051178E+02  0.51100000000E-03 0.  1.
        -12    1    3    3    0    0  0.71802049240E+00 -0.16514736806E+01  0.49498382386E+00  0.18675994569E+01  0.00000000000E+00 0.  1.
</event>
<event>
 7    1  0.4011333E-009  0.4778726E+02  0.7816164E-02  0.1312668E+00
        -11   -1    0    0    0    0  0.00000000000E+00  0.00000000000E+00  0.45593999997E+02  0.45594000000E+02  0.51100000000E-03 0. -1.
         11   -1    0    0    0    0 -0.00000000000E+00 -0.00000000000E+00 -0.45593999997E+02  0.45594000000E+02  0.51100000000E-03 0.  1.
    9900012    2    1    2    0    0  0.22484458855E+02  0.32996233374E+02  0.17009454596E+02  0.47787264378E+02  0.19999969604E+02 0.  0.
        -12    1    1    2    0    0 -0.22484458855E+02 -0.32996233374E+02 -0.17009454596E+02  0.43400735622E+02  0.00000000000E+00 0.  1.
         11    1    3    3    0    0  0.14531045150E+02  0.66283236040E+01  0.63829081278E+01  0.17199635560E+02  0.51100000000E-03 0. -1.
        -11    1    3    3    0    0  0.38868923222E+01  0.42950992732E+01  0.90611492852E-01  0.57934463314E+01  0.51100000000E-03 0.  1.
        -12    1    3    3    0    0  0.40665213831E+01  0.22072810497E+02  0.10535934975E+02  0.24794182487E+02  0.00000000000E+00 0.  1.
</event>
<event>
 7    1  0.4011333E-009  0.4778727E+02  0.7816164E-02  0.1312668E+00
        -11   -1    0    0    0    0  0.00000000000E+00  0.00000000000E+00  0.45593999997E+02  0.45594000000E+02  0.51100000000E-03 0.  1.
         11   -1    0    0    0    0 -0.00000000000E+00 -0.00000000000E+00 -0.45593999997E+02  0.45594000000E+02  0.51100000000E-03 0. -1.
    9900012    2    1    2    0    0  0.55961285630E+01  0.22707070247E+02 -0.36560849163E+02  0.47787269758E+02  0.19999994132E+02 0.  0.
        -12    1    1    2    0    0 -0.55961285630E+01 -0.22707070247E+02  0.36560849163E+02  0.43400730242E+02  0.00000000000E+00 0.  1.
         11    1    3    3    0    0 -0.26543990500E+01  0.95879532714E+01 -0.20619993036E+02  0.22894514524E+02  0.51100000000E-03 0. -1.
        -11    1    3    3    0    0  0.95094866994E+00  0.10300592115E+02 -0.12809065728E+02  0.16464466781E+02  0.51100000000E-03 0.  1.
        -12    1    3    3    0    0  0.72995789431E+01  0.28185248607E+01 -0.31317903991E+01  0.84282884526E+01  0.00000000000E+00 0.  1.
</event>
<event>
 7    1  0.4011333E-009  0.4778727E+02  0.7816164E-02  0.1312668E+00
        -11   -1    0    0    0    0  0.00000000000E+00  0.00000000000E+00  0.45593999997E+02  0.45594000000E+02  0.51100000000E-03 0.  1.
         11   -1    0    0    0    0 -0.00000000000E+00 -0.00000000000E+00 -0.45593999997E+02  0.45594000000E+02  0.51100000000E-03 0. -1.
    9900012    2    1    2    0    0  0.20611256645E+02  0.34178383695E+02 -0.17048097253E+02  0.47787269218E+02  0.19999991673E+02 0.  0.
        -12    1    1    2    0    0 -0.20611256645E+02 -0.34178383695E+02  0.17048097253E+02  0.43400730782E+02  0.00000000000E+00 0.  1.
         11    1    3    3    0    0  0.28797368734E+01  0.31016332725E+01 -0.25099069235E+01  0.49206347602E+01  0.51100000000E-03 0. -1.
        -11    1    3    3    0    0  0.20508096133E+02  0.22380990113E+02 -0.73119094636E+01  0.31224265335E+02  0.51100000000E-03 0.  1.
        -12    1    3    3    0    0 -0.27765763616E+01  0.86957603091E+01 -0.72262808659E+01  0.11642369123E+02  0.00000000000E+00 0.  1.
</event>
<event>
 7    1  0.4011333E-009  0.4778727E+02  0.7816164E-02  0.1312668E+00
        -11   -1    0    0    0    0  0.00000000000E+00  0.00000000000E+00  0.45593999997E+02  0.45594000000E+02  0.51100000000E-03 0. -1.
         11   -1    0    0    0    0 -0.00000000000E+00 -0.00000000000E+00 -0.45593999997E+02  0.45594000000E+02  0.51100000000E-03 0.  1.
    9900012    2    1    2    0    0 -0.40222860664E+02 -0.15942559532E+02 -0.34028900063E+01  0.47787269766E+02  0.19999994173E+02 0.  0.
        -12    1    1    2    0    0  0.40222860664E+02  0.15942559532E+02  0.34028900063E+01  0.43400730234E+02  0.00000000000E+00 0.  1.
         11    1    3    3    0    0 -0.24590488517E+02 -0.18715961224E+02 -0.49182087863E+01  0.31291661956E+02  0.51100000000E-03 0. -1.
        -11    1    3    3    0    0 -0.48443713551E+00  0.77843423017E+00  0.77234745396E+00  0.11988160992E+01  0.51100000000E-03 0.  1.
         12    1    3    3    0    0 -0.15147935011E+02  0.19949674611E+01  0.74297132604E+00  0.15296791712E+02  0.00000000000E+00 0. -1.
</event>
<event>
 7    1  0.4011333E-009  0.4778727E+02  0.7816164E-02  0.1312668E+00
        -11   -1    0    0    0    0  0.00000000000E+00  0.00000000000E+00  0.45593999997E+02  0.45594000000E+02  0.51100000000E-03 0.  1.
         11   -1    0    0    0    0 -0.00000000000E+00 -0.00000000000E+00 -0.45593999997E+02  0.45594000000E+02  0.51100000000E-03 0. -1.
    9900012    2    1    2    0    0  0.65046163661E+01 -0.35941257773E+02 -0.23442256791E+02  0.47787269041E+02  0.19999990864E+02 0.  0.
        -12    1    1    2    0    0 -0.65046163661E+01  0.35941257773E+02  0.23442256791E+02  0.43400730959E+02  0.00000000000E+00 0.  1.
         11    1    3    3    0    0  0.49643984666E+01 -0.17274794155E+02 -0.92140966554E+01  0.20198102453E+02  0.51100000000E-03 0. -1.
        -11    1    3    3    0    0 -0.11564514695E+01 -0.15091211626E+02 -0.16647374671E+02  0.22499269589E+02  0.51100000000E-03 0.  1.
        -12    1    3    3    0    0  0.26966693690E+01 -0.35752519914E+01  0.24192145360E+01  0.50898969989E+01  0.00000000000E+00 0.  1.
</event>
<event>
 7    1  0.4011333E-009  0.4778727E+02  0.7816164E-02  0.1312668E+00
        -11   -1    0    0    0    0  0.00000000000E+00  0.00000000000E+00  0.45593999997E+02  0.45594000000E+02  0.51100000000E-03 0.  1.
         11   -1    0    0    0    0 -0.00000000000E+00 -0.00000000000E+00 -0.45593999997E+02  0.45594000000E+02  0.51100000000E-03 0. -1.
    9900012    2    1    2    0    0  0.17278518845E+01  0.37546635459E+02 -0.21699949440E+02  0.47787272908E+02  0.20000008495E+02 0.  0.
        -12    1    1    2    0    0 -0.17278518845E+01 -0.37546635459E+02  0.21699949440E+02  0.43400727092E+02  0.00000000000E+00 0.  1.
         11    1    3    3    0    0  0.14607083318E+01  0.53801178834E+01  0.10235770859E+01  0.56680726514E+01  0.51100000000E-03 0. -1.
        -11    1    3    3    0    0  0.25592778167E+01 -0.51595931285E+00 -0.25160089554E+01  0.36257989851E+01  0.51100000000E-03 0.  1.
         12    1    3    3    0    0 -0.22921342640E+01  0.32682476888E+02 -0.20207517571E+02  0.38493401271E+02  0.00000000000E+00 0. -1.
</event>
<event>
 7    1  0.4011333E-009  0.4778728E+02  0.7816164E-02  0.1312668E+00
        -11   -1    0    0    0    0  0.00000000000E+00  0.00000000000E+00  0.45593999997E+02  0.45594000000E+02  0.51100000000E-03 0.  1.
         11   -1    0    0    0    0 -0.00000000000E+00 -0.00000000000E+00 -0.45593999997E+02  0.45594000000E+02  0.51100000000E-03 0. -1.
    9900012    2    1    2    0    0 -0.17921622203E+02 -0.12746455829E+02 -0.37416121907E+02  0.47787275845E+02  0.20000021890E+02 0.  0.
        -12    1    1    2    0    0  0.17921622203E+02  0.12746455829E+02  0.37416121907E+02  0.43400724155E+02  0.00000000000E+00 0.  1.
         11    1    3    3    0    0 -0.97583375604E+01 -0.20326156721E+00 -0.15624723744E+02  0.18422770138E+02  0.51100000000E-03 0. -1.
        -11    1    3    3    0    0 -0.11468436565E+02 -0.11322800132E+02 -0.17103483825E+02  0.23500212749E+02  0.51100000000E-03 0.  1.
        -12    1    3    3    0    0  0.33051519219E+01 -0.12203941293E+01 -0.46879143385E+01  0.58642929585E+01  0.00000000000E+00 0.  1.
</event>
<event>
 7    1  0.4011333E-009  0.4778727E+02  0.7816164E-02  0.1312668E+00
        -11   -1    0    0    0    0  0.00000000000E+00  0.00000000000E+00  0.45593999997E+02  0.45594000000E+02  0.51100000000E-03 0. -1.
         11   -1    0    0    0    0 -0.00000000000E+00 -0.00000000000E+00 -0.45593999997E+02  0.45594000000E+02  0.51100000000E-03 0.  1.
    9900012    2    1    2    0    0  0.22224370942E+02  0.36621900400E+02 -0.69668565780E+01  0.47787270245E+02  0.19999996357E+02 0.  0.
        -12    1    1    2    0    0 -0.22224370942E+02 -0.36621900400E+02  0.69668565780E+01  0.43400729755E+02  0.00000000000E+00 0.  1.
         11    1    3    3    0    0 -0.16786297230E+01  0.66430847801E+00  0.55859229519E+00  0.18897431345E+01  0.51100000000E-03 0. -1.
        -11    1    3    3    0    0  0.40721377476E-01  0.98080138093E+01 -0.26730479831E+01  0.10165824064E+02  0.51100000000E-03 0.  1.
         12    1    3    3    0    0  0.23862279288E+02  0.26149578112E+02 -0.48524008901E+01  0.35731703047E+02  0.00000000000E+00 0. -1.
</event>
<event>
 7    1  0.4011333E-009  0.4778727E+02  0.7816164E-02  0.1312668E+00
        -11   -1    0    0    0    0  0.00000000000E+00  0.00000000000E+00  0.45593999997E+02  0.45594000000E+02  0.51100000000E-03 0. -1.
         11   -1    0    0    0    0 -0.00000000000E+00 -0.00000000000E+00 -0.45593999997E+02  0.45594000000E+02  0.51100000000E-03 0.  1.
    9900012    2    1    2    0    0 -0.62041757853E+01 -0.23504404004E+02  0.35953784539E+02  0.47787269275E+02  0.19999991933E+02 0.  0.
        -12    1    1    2    0    0  0.62041757853E+01  0.23504404004E+02 -0.35953784539E+02  0.43400730725E+02  0.00000000000E+00 0.  1.
         11    1    3    3    0    0 -0.30191692353E+01 -0.11511185944E+02  0.24561345578E+02  0.27292535272E+02  0.51100000000E-03 0. -1.
        -11    1    3    3    0    0  0.78296364337E+00 -0.11225128846E+02  0.11950971048E+02  0.16414696431E+02  0.51100000000E-03 0.  1.
         12    1    3    3    0    0 -0.39679701934E+01 -0.76808921459E+00 -0.55853208686E+00  0.40800375721E+01  0.00000000000E+00 0. -1.
</event>
<event>
 7    1  0.4011333E-009  0.4778728E+02  0.7816164E-02  0.1312668E+00
        -11   -1    0    0    0    0  0.00000000000E+00  0.00000000000E+00  0.45593999997E+02  0.45594000000E+02  0.51100000000E-03 0.  1.
         11   -1    0    0    0    0 -0.00000000000E+00 -0.00000000000E+00 -0.45593999997E+02  0.45594000000E+02  0.51100000000E-03 0. -1.
    9900012    2    1    2    0    0  0.11147640216E+02 -0.26573978490E+02 -0.32452683266E+02  0.47787275739E+02  0.20000021406E+02 0.  0.
        -12    1    1    2    0    0 -0.11147640216E+02  0.26573978490E+02  0.32452683266E+02  0.43400724261E+02  0.00000000000E+00 0.  1.
         11    1    3    3    0    0  0.15826273168E+02 -0.22202644122E+02 -0.20969350026E+02  0.34396830801E+02  0.51100000000E-03 0. -1.
        -11    1    3    3    0    0 -0.45191117431E+00 -0.51567874318E+00 -0.35133888282E+01  0.35796717161E+01  0.51100000000E-03 0.  1.
        -12    1    3    3    0    0 -0.42267217777E+01 -0.38556556249E+01 -0.79699444122E+01  0.98107732222E+01  0.00000000000E+00 0.  1.
</event>
<event>
 7    1  0.4011333E-009  0.4778727E+02  0.7816164E-02  0.1312668E+00
        -11   -1    0    0    0    0  0.00000000000E+00  0.00000000000E+00  0.45593999997E+02  0.45594000000E+02  0.51100000000E-03 0. -1.
         11   -1    0    0    0    0 -0.00000000000E+00 -0.00000000000E+00 -0.45593999997E+02  0.45594000000E+02  0.51100000000E-03 0.  1.
    9900012    2    1    2    0    0 -0.12719765503E+02  0.19327638739E+02  0.36718842876E+02  0.47787268718E+02  0.19999989392E+02 0.  0.
        -12    1    1    2    0    0  0.12719765503E+02 -0.19327638739E+02 -0.36718842876E+02  0.43400731282E+02  0.00000000000E+00 0.  1.
         11    1    3    3    0    0 -0.48742913011E+00  0.37958670812E+01  0.14996221577E+00  0.38299716686E+01  0.51100000000E-03 0.  1.
        -11    1    3    3    0    0 -0.11322764896E+02  0.11932747444E+02  0.15627761401E+02  0.22689697951E+02  0.51100000000E-03 0. -1.
         12    1    3    3    0    0 -0.90957147733E+00  0.35990242140E+01  0.20941119259E+02  0.21267599098E+02  0.00000000000E+00 0. -1.
</event>
<event>
 7    1  0.4011333E-009  0.4778727E+02  0.7816164E-02  0.1312668E+00
        -11   -1    0    0    0    0  0.00000000000E+00  0.00000000000E+00  0.45593999997E+02  0.45594000000E+02  0.51100000000E-03 0. -1.
         11   -1    0    0    0    0 -0.00000000000E+00 -0.00000000000E+00 -0.45593999997E+02  0.45594000000E+02  0.51100000000E-03 0.  1.
    9900012    2    1    2    0    0  0.36273919928E+02  0.21489305966E+02 -0.10297372353E+02  0.47787269416E+02  0.19999992576E+02 0.  0.
        -12    1    1    2    0    0 -0.36273919928E+02 -0.21489305966E+02  0.10297372353E+02  0.43400730584E+02  0.00000000000E+00 0.  1.
         11    1    3    3    0    0  0.42661245262E+01  0.61892590488E+00 -0.36854933305E+01  0.56714856166E+01  0.51100000000E-03 0. -1.
        -11    1    3    3    0    0  0.64074025046E+00  0.41830379287E+01  0.31429588286E+01  0.52712944180E+01  0.51100000000E-03 0.  1.
         12    1    3    3    0    0  0.31367055151E+02  0.16687342132E+02 -0.97548378507E+01  0.36844489382E+02  0.00000000000E+00 0. -1.
</event>
<event>
 7    1  0.4011333E-009  0.4778727E+02  0.7816164E-02  0.1312668E+00
        -11   -1    0    0    0    0  0.00000000000E+00  0.00000000000E+00  0.45593999997E+02  0.45594000000E+02  0.51100000000E-03 0. -1.
         11   -1    0    0    0    0 -0.00000000000E+00 -0.00000000000E+00 -0.45593999997E+02  0.45594000000E+02  0.51100000000E-03 0.  1.
    9900012    2    1    2    0    0  0.40465002424E+02 -0.78899478091E+00  0.15671136803E+02  0.47787268870E+02  0.19999990086E+02 0.  0.
        -12    1    1    2    0    0 -0.40465002424E+02  0.78899478091E+00 -0.15671136803E+02  0.43400731130E+02  0.00000000000E+00 0.  1.
         11    1    3    3    0    0  0.18770545225E+02 -0.74133840281E+00 -0.15411083004E+00  0.18785811164E+02  0.51100000000E-03 0. -1.
        -11    1    3    3    0    0  0.61272806500E+01 -0.20334065164E+00 -0.84923007144E+00  0.61891928036E+01  0.51100000000E-03 0.  1.
        -12    1    3    3    0    0  0.15567176549E+02  0.15568427354E+00  0.16674477704E+02  0.22812264903E+02  0.00000000000E+00 0.  1.
</event>
<event>
 7    1  0.4011333E-009  0.4778727E+02  0.7816164E-02  0.1312668E+00
        -11   -1    0    0    0    0  0.00000000000E+00  0.00000000000E+00  0.45593999997E+02  0.45594000000E+02  0.51100000000E-03 0. -1.
         11   -1    0    0    0    0 -0.00000000000E+00 -0.00000000000E+00 -0.45593999997E+02  0.45594000000E+02  0.51100000000E-03 0.  1.
    9900012    2    1    2    0    0 -0.20101810576E+01  0.28807156583E+02  0.32399539666E+02  0.47787271102E+02  0.20000000264E+02 0.  0.
        -12    1    1    2    0    0  0.20101810576E+01 -0.28807156583E+02 -0.32399539666E+02  0.43400728898E+02  0.00000000000E+00 0.  1.
         11    1    3    3    0    0 -0.19957278478E+01  0.45662627739E+01  0.12672439914E+02  0.13617063524E+02  0.51100000000E-03 0. -1.
        -11    1    3    3    0    0 -0.18695916767E+01 -0.10159048015E+01  0.34889074980E+01  0.40865525072E+01  0.51100000000E-03 0.  1.
        -12    1    3    3    0    0  0.18551384669E+01  0.25256798611E+02  0.16238192253E+02  0.30083655071E+02  0.00000000000E+00 0.  1.
</event>
<event>
 7    1  0.4011333E-009  0.4778728E+02  0.7816164E-02  0.1312668E+00
        -11   -1    0    0    0    0  0.00000000000E+00  0.00000000000E+00  0.45593999997E+02  0.45594000000E+02  0.51100000000E-03 0. -1.
         11   -1    0    0    0    0 -0.00000000000E+00 -0.00000000000E+00 -0.45593999997E+02  0.45594000000E+02  0.51100000000E-03 0.  1.
    9900012    2    1    2    0    0  0.26240320466E+02 -0.32274589818E+02 -0.12386243064E+02  0.47787279000E+02  0.20000036272E+02 0.  0.
        -12    1    1    2    0    0 -0.26240320466E+02  0.32274589818E+02  0.12386243064E+02  0.43400721000E+02  0.00000000000E+00 0.  1.
         11    1    3    3    0    0  0.32892538839E+01 -0.17590153402E+01  0.21612925643E+01  0.43109757468E+01  0.51100000000E-03 0.  1.
        -11    1    3    3    0    0  0.15487511620E+02 -0.11088610137E+02 -0.19457427735E+01  0.19146963366E+02  0.51100000000E-03 0. -1.
         12    1    3    3    0    0  0.74635549626E+01 -0.19426964340E+02 -0.12601792855E+02  0.24329339887E+02  0.00000000000E+00 0. -1.
</event>
<event>
 7    1  0.4011333E-009  0.4778727E+02  0.7816164E-02  0.1312668E+00
        -11   -1    0    0    0    0  0.00000000000E+00  0.00000000000E+00  0.45593999997E+02  0.45594000000E+02  0.51100000000E-03 0.  1.
         11   -1    0    0    0    0 -0.00000000000E+00 -0.00000000000E+00 -0.45593999997E+02  0.45594000000E+02  0.51100000000E-03 0. -1.
    9900012    2    1    2    0    0  0.13703696822E+02  0.41125136583E+02 -0.21342467420E+01  0.47787272186E+02  0.20000005206E+02 0.  0.
        -12    1    1    2    0    0 -0.13703696822E+02 -0.41125136583E+02  0.21342467420E+01  0.43400727814E+02  0.00000000000E+00 0.  1.
         11    1    3    3    0    0  0.33170342466E+01  0.23598980955E+02 -0.66183811045E+01  0.24732925161E+02  0.51100000000E-03 0. -1.
        -11    1    3    3    0    0  0.86746424165E+00  0.57240660187E+01 -0.25662921936E+01  0.63327152061E+01  0.51100000000E-03 0.  1.
        -12    1    3    3    0    0  0.95191983341E+01  0.11802089609E+02  0.70504265561E+01  0.16721631819E+02  0.00000000000E+00 0.  1.
</event>
<event>
 7    1  0.4011333E-009  0.4778727E+02  0.7816164E-02  0.1312668E+00
        -11   -1    0    0    0    0  0.00000000000E+00  0.00000000000E+00  0.45593999997E+02  0.45594000000E+02  0.51100000000E-03 0. -1.
         11   -1    0    0    0    0 -0.00000000000E+00 -0.00000000000E+00 -0.45593999997E+02  0.45594000000E+02  0.51100000000E-03 0.  1.
    9900012    2    1    2    0    0  0.36960814914E+02 -0.11119337672E+02  0.19846451037E+02  0.47787272723E+02  0.20000007655E+02 0.  0.
        -12    1    1    2    0    0 -0.36960814914E+02  0.11119337672E+02 -0.19846451037E+02  0.43400727277E+02  0.00000000000E+00 0.  1.
         11    1    3    3    0    0  0.20605738659E+02 -0.16129803354E+01  0.42754632041E+01  0.21106344002E+02  0.51100000000E-03 0. -1.
        -11    1    3    3    0    0  0.50297830349E+01  0.18295192553E+01  0.58951316606E+01  0.79623134603E+01  0.51100000000E-03 0.  1.
        -12    1    3    3    0    0  0.11325293220E+02 -0.11335876592E+02  0.96758561728E+01  0.18718615261E+02  0.00000000000E+00 0.  1.
</event>
<event>
 7    1  0.4011333E-009  0.4778728E+02  0.7816164E-02  0.1312668E+00
        -11   -1    0    0    0    0  0.00000000000E+00  0.00000000000E+00  0.45593999997E+02  0.45594000000E+02  0.51100000000E-03 0.  1.
         11   -1    0    0    0    0 -0.00000000000E+00 -0.00000000000E+00 -0.45593999997E+02  0.45594000000E+02  0.51100000000E-03 0. -1.
    9900012    2    1    2    0    0  0.13530462415E+02  0.11569488405E+02 -0.39581516486E+02  0.47787275093E+02  0.20000018460E+02 0.  0.
        -12    1    1    2    0    0 -0.13530462415E+02 -0.11569488405E+02  0.39581516486E+02  0.43400724907E+02  0.00000000000E+00 0.  1.
         11    1    3    3    0    0  0.36223911030E+00  0.21828035565E+01 -0.46605723429E+00  0.22612072320E+01  0.51100000000E-03 0. -1.
        -11    1    3    3    0    0  0.93060457990E+01  0.33017741367E+01 -0.58252196345E+01  0.11464614469E+02  0.51100000000E-03 0.  1.
         12    1    3    3    0    0  0.38621775053E+01  0.60849107115E+01 -0.33290239617E+02  0.34061453393E+02  0.00000000000E+00 0. -1.
</event>
<event>
 7    1  0.4011333E-009  0.4778727E+02  0.7816164E-02  0.1312668E+00
        -11   -1    0    0    0    0  0.00000000000E+00  0.00000000000E+00  0.45593999997E+02  0.45594000000E+02  0.51100000000E-03 0. -1.
         11   -1    0    0    0    0 -0.00000000000E+00 -0.00000000000E+00 -0.45593999997E+02  0.45594000000E+02  0.51100000000E-03 0.  1.
    9900012    2    1    2    0    0  0.30651182983E+02  0.79808067099E+01  0.29672128718E+02  0.47787268247E+02  0.19999987247E+02 0.  0.
        -12    1    1    2    0    0 -0.30651182983E+02 -0.79808067099E+01 -0.29672128718E+02  0.43400731753E+02  0.00000000000E+00 0.  1.
         11    1    3    3    0    0  0.11441981611E+02  0.18756491335E+01  0.21051038542E+02  0.24032961258E+02  0.51100000000E-03 0. -1.
        -11    1    3    3    0    0 -0.93152779010E+00  0.30129856674E+00  0.11311037067E+01  0.14959681502E+01  0.51100000000E-03 0.  1.
        -12    1    3    3    0    0  0.20140729162E+02  0.58038590097E+01  0.74899864696E+01  0.22258338840E+02  0.00000000000E+00 0.  1.
</event>
<event>
 7    1  0.4011333E-009  0.4778727E+02  0.7816164E-02  0.1312668E+00
        -11   -1    0    0    0    0  0.00000000000E+00  0.00000000000E+00  0.45593999997E+02  0.45594000000E+02  0.51100000000E-03 0.  1.
         11   -1    0    0    0    0 -0.00000000000E+00 -0.00000000000E+00 -0.45593999997E+02  0.45594000000E+02  0.51100000000E-03 0. -1.
    9900012    2    1    2    0    0 -0.13650726792E+02 -0.41759428353E+01 -0.40985881103E+02  0.47787270855E+02  0.19999999137E+02 0.  0.
        -12    1    1    2    0    0  0.13650726792E+02  0.41759428353E+01  0.40985881103E+02  0.43400729145E+02  0.00000000000E+00 0.  1.
         11    1    3    3    0    0  0.21692210740E+01 -0.33590867630E+00 -0.60450649765E+01  0.64312646919E+01  0.51100000000E-03 0. -1.
        -11    1    3    3    0    0 -0.60874821963E+01 -0.48072652862E+01 -0.28756758622E+02  0.29784532995E+02  0.51100000000E-03 0.  1.
        -12    1    3    3    0    0 -0.97324656698E+01  0.96723112719E+00 -0.61840575048E+01  0.11571473169E+02  0.00000000000E+00 0.  1.
</event>
<event>
 7    1  0.4011333E-009  0.4778727E+02  0.7816164E-02  0.1312668E+00
        -11   -1    0    0    0    0  0.00000000000E+00  0.00000000000E+00  0.45593999997E+02  0.45594000000E+02  0.51100000000E-03 0. -1.
         11   -1    0    0    0    0 -0.00000000000E+00 -0.00000000000E+00 -0.45593999997E+02  0.45594000000E+02  0.51100000000E-03 0.  1.
    9900012    2    1    2    0    0  0.18551603240E+02 -0.13172028754E+02  0.36958886976E+02  0.47787266702E+02  0.19999980202E+02 0.  0.
        -12    1    1    2    0    0 -0.18551603240E+02  0.13172028754E+02 -0.36958886976E+02  0.43400733298E+02  0.00000000000E+00 0.  1.
         11    1    3    3    0    0  0.18149088964E+02 -0.59792696779E+01  0.26645237635E+02  0.32788866784E+02  0.51100000000E-03 0.  1.
        -11    1    3    3    0    0  0.24008019542E+01 -0.29808510155E+01  0.95316048285E+01  0.10271358901E+02  0.51100000000E-03 0. -1.
        -12    1    3    3    0    0 -0.19982876783E+01 -0.42119080610E+01  0.78204451295E+00  0.47270410173E+01  0.00000000000E+00 0.  1.
</event>
<event>
 7    1  0.4011333E-009  0.4778727E+02  0.7816164E-02  0.1312668E+00
        -11   -1    0    0    0    0  0.00000000000E+00  0.00000000000E+00  0.45593999997E+02  0.45594000000E+02  0.51100000000E-03 0. -1.
         11   -1    0    0    0    0 -0.00000000000E+00 -0.00000000000E+00 -0.45593999997E+02  0.45594000000E+02  0.51100000000E-03 0.  1.
    9900012    2    1    2    0    0 -0.72327096332E+01  0.20793006233E+02  0.37402702340E+02  0.47787270292E+02  0.19999996572E+02 0.  0.
        -12    1    1    2    0    0  0.72327096332E+01 -0.20793006233E+02 -0.37402702340E+02  0.43400729708E+02  0.00000000000E+00 0.  1.
         11    1    3    3    0    0  0.16907226712E+01  0.20061453070E+01  0.12065862120E+02  0.12347801063E+02  0.51100000000E-03 0. -1.
        -11    1    3    3    0    0 -0.17367365830E+01 -0.20412275117E+01  0.19942200441E+01  0.33406253245E+01  0.51100000000E-03 0.  1.
         12    1    3    3    0    0 -0.71866957213E+01  0.20828088438E+02  0.23342620176E+02  0.32098843905E+02  0.00000000000E+00 0. -1.
</event>
<event>
 7    1  0.4011333E-009  0.4778727E+02  0.7816164E-02  0.1312668E+00
        -11   -1    0    0    0    0  0.00000000000E+00  0.00000000000E+00  0.45593999997E+02  0.45594000000E+02  0.51100000000E-03 0.  1.
         11   -1    0    0    0    0 -0.00000000000E+00 -0.00000000000E+00 -0.45593999997E+02  0.45594000000E+02  0.51100000000E-03 0. -1.
    9900012    2    1    2    0    0  0.21033354091E+02  0.12738502401E+02 -0.35762436793E+02  0.47787270592E+02  0.19999997939E+02 0.  0.
        -12    1    1    2    0    0 -0.21033354091E+02 -0.12738502401E+02  0.35762436793E+02  0.43400729408E+02  0.00000000000E+00 0.  1.
         11    1    3    3    0    0  0.19986485102E+02  0.12000961088E+02 -0.31841230733E+02  0.39463231350E+02  0.51100000000E-03 0. -1.
        -11    1    3    3    0    0  0.36067394993E+01  0.20418262607E+01 -0.34911866524E+01  0.54190413172E+01  0.51100000000E-03 0.  1.
        -12    1    3    3    0    0 -0.25598705103E+01 -0.13042849476E+01 -0.43001940818E+00  0.29049979252E+01  0.00000000000E+00 0.  1.
</event>
<event>
 7    1  0.4011333E-009  0.4778727E+02  0.7816164E-02  0.1312668E+00
        -11   -1    0    0    0    0  0.00000000000E+00  0.00000000000E+00  0.45593999997E+02  0.45594000000E+02  0.51100000000E-03 0.  1.
         11   -1    0    0    0    0 -0.00000000000E+00 -0.00000000000E+00 -0.45593999997E+02  0.45594000000E+02  0.51100000000E-03 0. -1.
    9900012    2    1    2    0    0  0.85659623432E+00  0.31142991795E+02 -0.30215947962E+02  0.47787271823E+02  0.20000003549E+02 0.  0.
        -12    1    1    2    0    0 -0.85659623432E+00 -0.31142991795E+02  0.30215947962E+02  0.43400728177E+02  0.00000000000E+00 0.  1.
         11    1    3    3    0    0  0.42585418218E+01  0.25615618557E+02 -0.16223351930E+02  0.30618495074E+02  0.51100000000E-03 0. -1.
        -11    1    3    3    0    0 -0.36023157313E+01  0.70788271788E+01 -0.93419236091E+01  0.12262055694E+02  0.51100000000E-03 0.  1.
        -12    1    3    3    0    0  0.20037014385E+00 -0.15514539407E+01 -0.46506724233E+01  0.49067210552E+01  0.00000000000E+00 0.  1.
</event>
<event>
 7    1  0.4011333E-009  0.4778727E+02  0.7816164E-02  0.1312668E+00
        -11   -1    0    0    0    0  0.00000000000E+00  0.00000000000E+00  0.45593999997E+02  0.45594000000E+02  0.51100000000E-03 0.  1.
         11   -1    0    0    0    0 -0.00000000000E+00 -0.00000000000E+00 -0.45593999997E+02  0.45594000000E+02  0.51100000000E-03 0. -1.
    9900012    2    1    2    0    0 -0.39801192589E+02 -0.22000231852E+00 -0.17304325250E+02  0.47787274144E+02  0.20000014131E+02 0.  0.
        -12    1    1    2    0    0  0.39801192589E+02  0.22000231852E+00  0.17304325250E+02  0.43400725856E+02  0.00000000000E+00 0.  1.
         11    1    3    3    0    0 -0.27833624891E+02 -0.42763219015E+01 -0.79975393562E+01  0.29273849073E+02  0.51100000000E-03 0. -1.
        -11    1    3    3    0    0 -0.12605496008E+02  0.58589096004E+01 -0.90430357265E+01  0.16583179633E+02  0.51100000000E-03 0.  1.
        -12    1    3    3    0    0  0.63792830982E+00 -0.18025900174E+01 -0.26375016713E+00  0.19302454378E+01  0.00000000000E+00 0.  1.
</event>
<event>
 7    1  0.4011333E-009  0.4778725E+02  0.7816164E-02  0.1312668E+00
        -11   -1    0    0    0    0  0.00000000000E+00  0.00000000000E+00  0.45593999997E+02  0.45594000000E+02  0.51100000000E-03 0.  1.
         11   -1    0    0    0    0 -0.00000000000E+00 -0.00000000000E+00 -0.45593999997E+02  0.45594000000E+02  0.51100000000E-03 0. -1.
    9900012    2    1    2    0    0 -0.15453485513E+02  0.40530960385E+02  0.14337924767E+01  0.47787254326E+02  0.19999923772E+02 0.  0.
        -12    1    1    2    0    0  0.15453485513E+02 -0.40530960385E+02 -0.14337924767E+01  0.43400745674E+02  0.00000000000E+00 0.  1.
         11    1    3    3    0    0 -0.57864780071E+01  0.10256349800E+02  0.46757870218E+01  0.12670399500E+02  0.51100000000E-03 0. -1.
        -11    1    3    3    0    0 -0.11440955208E+02  0.12129263101E+02 -0.25867784731E+01  0.16873230354E+02  0.51100000000E-03 0.  1.
        -12    1    3    3    0    0  0.17739477023E+01  0.18145347484E+02 -0.65521607205E+00  0.18243624472E+02  0.00000000000E+00 0.  1.
</event>
<event>
 7    1  0.4011333E-009  0.4778727E+02  0.7816164E-02  0.1312668E+00
        -11   -1    0    0    0    0  0.00000000000E+00  0.00000000000E+00  0.45593999997E+02  0.45594000000E+02  0.51100000000E-03 0.  1.
         11   -1    0    0    0    0 -0.00000000000E+00 -0.00000000000E+00 -0.45593999997E+02  0.45594000000E+02  0.51100000000E-03 0. -1.
    9900012    2    1    2    0    0 -0.89610708960E+01  0.52125222475E+01 -0.42144418570E+02  0.47787271937E+02  0.20000004072E+02 0.  0.
        -12    1    1    2    0    0  0.89610708960E+01 -0.52125222475E+01  0.42144418570E+02  0.43400728063E+02  0.00000000000E+00 0.  1.
         11    1    3    3    0    0 -0.58602557416E+01  0.37403344652E+01 -0.19552127905E+02  0.20751347068E+02  0.51100000000E-03 0. -1.
        -11    1    3    3    0    0 -0.81680081671E+01  0.36859237424E+01 -0.10967109742E+02  0.14162622907E+02  0.51100000000E-03 0.  1.
        -12    1    3    3    0    0  0.50671930127E+01 -0.22137359601E+01 -0.11625180922E+02  0.12873301962E+02  0.00000000000E+00 0.  1.
</event>
<event>
 7    1  0.4011333E-009  0.4778727E+02  0.7816164E-02  0.1312668E+00
        -11   -1    0    0    0    0  0.00000000000E+00  0.00000000000E+00  0.45593999997E+02  0.45594000000E+02  0.51100000000E-03 0.  1.
         11   -1    0    0    0    0 -0.00000000000E+00 -0.00000000000E+00 -0.45593999997E+02  0.45594000000E+02  0.51100000000E-03 0. -1.
    9900012    2    1    2    0    0 -0.18926725501E+02 -0.74051947202E+00 -0.39049379571E+02  0.47787270143E+02  0.19999995888E+02 0.  0.
        -12    1    1    2    0    0  0.18926725501E+02  0.74051947202E+00  0.39049379571E+02  0.43400729857E+02  0.00000000000E+00 0.  1.
         11    1    3    3    0    0  0.25503506218E+00 -0.12204244549E+01 -0.13700454133E+00  0.12542923258E+01  0.51100000000E-03 0. -1.
        -11    1    3    3    0    0 -0.10190176139E+02  0.31320326205E+01 -0.58354660408E+01  0.12153270434E+02  0.51100000000E-03 0.  1.
         12    1    3    3    0    0 -0.89915844249E+01 -0.26521276377E+01 -0.33076908989E+02  0.34379707383E+02  0.00000000000E+00 0. -1.
</event>
<event>
 7    1  0.4011333E-009  0.4778727E+02  0.7816164E-02  0.1312668E+00
        -11   -1    0    0    0    0  0.00000000000E+00  0.00000000000E+00  0.45593999997E+02  0.45594000000E+02  0.51100000000E-03 0.  1.
         11   -1    0    0    0    0 -0.00000000000E+00 -0.00000000000E+00 -0.45593999997E+02  0.45594000000E+02  0.51100000000E-03 0. -1.
    9900012    2    1    2    0    0  0.15178312352E+02  0.12676746647E+01 -0.40640313260E+02  0.47787271587E+02  0.20000002473E+02 0.  0.
        -12    1    1    2    0    0 -0.15178312352E+02 -0.12676746647E+01  0.40640313260E+02  0.43400728413E+02  0.00000000000E+00 0.  1.
         11    1    3    3    0    0  0.80805838885E+01  0.26461395436E+01 -0.14505451368E+02  0.16813863628E+02  0.51100000000E-03 0. -1.
        -11    1    3    3    0    0  0.10074662525E+02 -0.80933654991E+00 -0.88786138036E+01  0.13453015795E+02  0.51100000000E-03 0.  1.
         12    1    3    3    0    0 -0.29769340620E+01 -0.56912832897E+00 -0.17256248089E+02  0.17520392163E+02  0.00000000000E+00 0. -1.
</event>
<event>
 7    1  0.4011333E-009  0.4778727E+02  0.7816164E-02  0.1312668E+00
        -11   -1    0    0    0    0  0.00000000000E+00  0.00000000000E+00  0.45593999997E+02  0.45594000000E+02  0.51100000000E-03 0.  1.
         11   -1    0    0    0    0 -0.00000000000E+00 -0.00000000000E+00 -0.45593999997E+02  0.45594000000E+02  0.51100000000E-03 0. -1.
    9900012    2    1    2    0    0  0.21442820051E+02 -0.16892110693E+02 -0.33741446377E+02  0.47787272598E+02  0.20000007083E+02 0.  0.
        -12    1    1    2    0    0 -0.21442820051E+02  0.16892110693E+02  0.33741446377E+02  0.43400727402E+02  0.00000000000E+00 0.  1.
         11    1    3    3    0    0  0.28706737390E+01 -0.82926336770E+01 -0.11044292889E+02  0.14106202419E+02  0.51100000000E-03 0. -1.
        -11    1    3    3    0    0  0.13178589199E+02 -0.11845356106E+02 -0.12454860119E+02  0.21658975401E+02  0.51100000000E-03 0.  1.
         12    1    3    3    0    0  0.53935571128E+01  0.32458790897E+01 -0.10242293369E+02  0.12022094778E+02  0.00000000000E+00 0. -1.
</event>
<event>
 7    1  0.4011333E-009  0.4778727E+02  0.7816164E-02  0.1312668E+00
        -11   -1    0    0    0    0  0.00000000000E+00  0.00000000000E+00  0.45593999997E+02  0.45594000000E+02  0.51100000000E-03 0.  1.
         11   -1    0    0    0    0 -0.00000000000E+00 -0.00000000000E+00 -0.45593999997E+02  0.45594000000E+02  0.51100000000E-03 0. -1.
    9900012    2    1    2    0    0  0.23300605690E+02 -0.25484823555E+02 -0.26291228341E+02  0.47787272531E+02  0.20000006778E+02 0.  0.
        -12    1    1    2    0    0 -0.23300605690E+02  0.25484823555E+02  0.26291228341E+02  0.43400727469E+02  0.00000000000E+00 0.  1.
         11    1    3    3    0    0  0.61092357608E+01 -0.10221546293E+02 -0.55605809968E+01  0.13142405848E+02  0.51100000000E-03 0. -1.
        -11    1    3    3    0    0  0.13681185152E+02 -0.13405951001E+02 -0.23109417345E+02  0.30015654576E+02  0.51100000000E-03 0.  1.
        -12    1    3    3    0    0  0.35101847772E+01 -0.18573262620E+01  0.23787700002E+01  0.46292121065E+01  0.00000000000E+00 0.  1.
</event>
<event>
 7    1  0.4011333E-009  0.4778727E+02  0.7816164E-02  0.1312668E+00
        -11   -1    0    0    0    0  0.00000000000E+00  0.00000000000E+00  0.45593999997E+02  0.45594000000E+02  0.51100000000E-03 0. -1.
         11   -1    0    0    0    0 -0.00000000000E+00 -0.00000000000E+00 -0.45593999997E+02  0.45594000000E+02  0.51100000000E-03 0.  1.
    9900012    2    1    2    0    0  0.24704119350E+02 -0.65776818987E+01  0.35072265488E+02  0.47787271683E+02  0.20000002910E+02 0.  0.
        -12    1    1    2    0    0 -0.24704119350E+02  0.65776818987E+01 -0.35072265488E+02  0.43400728317E+02  0.00000000000E+00 0.  1.
         11    1    3    3    0    0  0.10151234846E+02  0.25432359158E+01  0.26205994845E+02  0.28218252673E+02  0.51100000000E-03 0. -1.
        -11    1    3    3    0    0  0.13564192077E+01 -0.98040672944E+00 -0.65894108533E-01  0.16749366307E+01  0.51100000000E-03 0.  1.
         12    1    3    3    0    0  0.13196465297E+02 -0.81405110850E+01  0.89321647515E+01  0.17894082379E+02  0.00000000000E+00 0. -1.
</event>
<event>
 7    1  0.4011333E-009  0.4778727E+02  0.7816164E-02  0.1312668E+00
        -11   -1    0    0    0    0  0.00000000000E+00  0.00000000000E+00  0.45593999997E+02  0.45594000000E+02  0.51100000000E-03 0.  1.
         11   -1    0    0    0    0 -0.00000000000E+00 -0.00000000000E+00 -0.45593999997E+02  0.45594000000E+02  0.51100000000E-03 0. -1.
    9900012    2    1    2    0    0  0.41763206657E+02 -0.27962738917E+00  0.11805935142E+02  0.47787265832E+02  0.19999976234E+02 0.  0.
        -12    1    1    2    0    0 -0.41763206657E+02  0.27962738917E+00 -0.11805935142E+02  0.43400734168E+02  0.00000000000E+00 0.  1.
         11    1    3    3    0    0  0.10295343275E+02 -0.28465468432E+01 -0.25778732918E+01  0.10988282534E+02  0.51100000000E-03 0. -1.
        -11    1    3    3    0    0  0.83079697453E+01 -0.16113766769E+01 -0.12370697901E+01  0.85527327803E+01  0.51100000000E-03 0.  1.
        -12    1    3    3    0    0  0.23159893636E+02  0.41782961310E+01  0.15620878224E+02  0.28246250517E+02  0.00000000000E+00 0.  1.
</event>
<event>
 7    1  0.4938564E-009  0.4778727E+02  0.7816164E-02  0.1312668E+00
        -11   -1    0    0    0    0  0.00000000000E+00  0.00000000000E+00  0.45593999997E+02  0.45594000000E+02  0.51100000000E-03 0.  1.
         11   -1    0    0    0    0 -0.00000000000E+00 -0.00000000000E+00 -0.45593999997E+02  0.45594000000E+02  0.51100000000E-03 0. -1.
    9900012    2    1    2    0    0 -0.38911670897E+01  0.34330387533E+02 -0.26266073300E+02  0.47787270789E+02  0.19999998833E+02 0.  0.
        -12    1    1    2    0    0  0.38911670897E+01 -0.34330387533E+02  0.26266073300E+02  0.43400729211E+02  0.00000000000E+00 0.  1.
         11    1    3    3    0    0  0.74133877309E+00  0.11833039934E+02 -0.14070746758E+02  0.18399900322E+02  0.51100000000E-03 0. -1.
        -11    1    3    3    0    0 -0.47537559251E+01  0.19390111616E+02 -0.15177803631E+02  0.25078683123E+02  0.51100000000E-03 0.  1.
        -12    1    3    3    0    0  0.12125006230E+00  0.31072359833E+01  0.29824770896E+01  0.43086873434E+01  0.00000000000E+00 0.  1.
</event>
<event>
 7    1  0.4011333E-009  0.4778726E+02  0.7816164E-02  0.1312668E+00
        -11   -1    0    0    0    0  0.00000000000E+00  0.00000000000E+00  0.45593999997E+02  0.45594000000E+02  0.51100000000E-03 0. -1.
         11   -1    0    0    0    0 -0.00000000000E+00 -0.00000000000E+00 -0.45593999997E+02  0.45594000000E+02  0.51100000000E-03 0.  1.
    9900012    2    1    2    0    0  0.70666391328E+01  0.42183637127E+02  0.73639430278E+01  0.47787259375E+02  0.19999946795E+02 0.  0.
        -12    1    1    2    0    0 -0.70666391328E+01 -0.42183637127E+02 -0.73639430278E+01  0.43400740625E+02  0.00000000000E+00 0.  1.
         11    1    3    3    0    0 -0.30093453455E+01  0.82261270349E+01 -0.37369672822E+00  0.87672672429E+01  0.51100000000E-03 0.  1.
        -11    1    3    3    0    0  0.20517135227E+01  0.18951386219E+02 -0.23995154431E+01  0.19212554297E+02  0.51100000000E-03 0. -1.
         12    1    3    3    0    0  0.80242709555E+01  0.15006123873E+02  0.10137155199E+02  0.19807437835E+02  0.00000000000E+00 0. -1.
</event>
<event>
 7    1  0.4011333E-009  0.4778727E+02  0.7816164E-02  0.1312668E+00
        -11   -1    0    0    0    0  0.00000000000E+00  0.00000000000E+00  0.45593999997E+02  0.45594000000E+02  0.51100000000E-03 0.  1.
         11   -1    0    0    0    0 -0.00000000000E+00 -0.00000000000E+00 -0.45593999997E+02  0.45594000000E+02  0.51100000000E-03 0. -1.
    9900012    2    1    2    0    0  0.21818432313E+01 -0.25590547139E+01 -0.43270244946E+02  0.47787270759E+02  0.19999998700E+02 0.  0.
        -12    1    1    2    0    0 -0.21818432313E+01  0.25590547139E+01  0.43270244946E+02  0.43400729241E+02  0.00000000000E+00 0.  1.
         11    1    3    3    0    0  0.17572719405E+01  0.38875544132E+01 -0.26433920579E+02  0.26775982548E+02  0.51100000000E-03 0. -1.
        -11    1    3    3    0    0 -0.38445877356E+00  0.18400983829E+01  0.35202365899E+00  0.19125092221E+01  0.51100000000E-03 0.  1.
        -12    1    3    3    0    0  0.80903006428E+00 -0.82867075100E+01 -0.17188348026E+02  0.19098778989E+02  0.00000000000E+00 0.  1.
</event>
<event>
 7    1  0.4011333E-009  0.4778727E+02  0.7816164E-02  0.1312668E+00
        -11   -1    0    0    0    0  0.00000000000E+00  0.00000000000E+00  0.45593999997E+02  0.45594000000E+02  0.51100000000E-03 0.  1.
         11   -1    0    0    0    0 -0.00000000000E+00 -0.00000000000E+00 -0.45593999997E+02  0.45594000000E+02  0.51100000000E-03 0. -1.
    9900012    2    1    2    0    0 -0.87716486538E+01  0.20547573628E+02 -0.37208584691E+02  0.47787269859E+02  0.19999994594E+02 0.  0.
        -12    1    1    2    0    0  0.87716486538E+01 -0.20547573628E+02  0.37208584691E+02  0.43400730141E+02  0.00000000000E+00 0.  1.
         11    1    3    3    0    0  0.61571052634E+00  0.77687788986E+01 -0.11688591720E+02  0.14048352276E+02  0.51100000000E-03 0. -1.
        -11    1    3    3    0    0  0.93764458791E+00  0.23161680778E+01  0.15463979440E+01  0.29385640712E+01  0.51100000000E-03 0.  1.
         12    1    3    3    0    0 -0.10325003768E+02  0.10462626651E+02 -0.27066390915E+02  0.30800353511E+02  0.00000000000E+00 0. -1.
</event>
<event>
 7    1  0.4011333E-009  0.4778727E+02  0.7816164E-02  0.1312668E+00
        -11   -1    0    0    0    0  0.00000000000E+00  0.00000000000E+00  0.45593999997E+02  0.45594000000E+02  0.51100000000E-03 0. -1.
         11   -1    0    0    0    0 -0.00000000000E+00 -0.00000000000E+00 -0.45593999997E+02  0.45594000000E+02  0.51100000000E-03 0.  1.
    9900012    2    1    2    0    0  0.14507949255E+02 -0.40694603377E+02  0.41342505959E+01  0.47787270011E+02  0.19999995288E+02 0.  0.
        -12    1    1    2    0    0 -0.14507949255E+02  0.40694603377E+02 -0.41342505959E+01  0.43400729989E+02  0.00000000000E+00 0.  1.
         11    1    3    3    0    0  0.50771210178E+01 -0.12693455278E+02  0.24289820234E+01  0.13885277047E+02  0.51100000000E-03 0. -1.
        -11    1    3    3    0    0 -0.37208025627E+01 -0.13750001206E+02  0.26403551841E+01  0.14487179871E+02  0.51100000000E-03 0.  1.
        -12    1    3    3    0    0  0.13151630800E+02 -0.14251146893E+02 -0.93508661160E+00  0.19414813093E+02  0.00000000000E+00 0.  1.
</event>
<event>
 7    1  0.4011333E-009  0.4778727E+02  0.7816164E-02  0.1312668E+00
        -11   -1    0    0    0    0  0.00000000000E+00  0.00000000000E+00  0.45593999997E+02  0.45594000000E+02  0.51100000000E-03 0.  1.
         11   -1    0    0    0    0 -0.00000000000E+00 -0.00000000000E+00 -0.45593999997E+02  0.45594000000E+02  0.51100000000E-03 0. -1.
    9900012    2    1    2    0    0  0.14258578208E+02  0.11675606660E+00 -0.40991496855E+02  0.47787268452E+02  0.19999988182E+02 0.  0.
        -12    1    1    2    0    0 -0.14258578208E+02 -0.11675606660E+00  0.40991496855E+02  0.43400731548E+02  0.00000000000E+00 0.  1.
         11    1    3    3    0    0  0.37455852986E+00 -0.25979648494E+01 -0.29048560126E+01  0.39150867380E+01  0.51100000000E-03 0. -1.
        -11    1    3    3    0    0  0.55160218904E+01  0.85119540611E+01 -0.26890949229E+02  0.28740268094E+02  0.51100000000E-03 0.  1.
         12    1    3    3    0    0  0.83679977874E+01 -0.57972331451E+01 -0.11195691613E+02  0.15131913620E+02  0.00000000000E+00 0. -1.
</event>
<event>
 7    1  0.4011333E-009  0.4778727E+02  0.7816164E-02  0.1312668E+00
        -11   -1    0    0    0    0  0.00000000000E+00  0.00000000000E+00  0.45593999997E+02  0.45594000000E+02  0.51100000000E-03 0.  1.
         11   -1    0    0    0    0 -0.00000000000E+00 -0.00000000000E+00 -0.45593999997E+02  0.45594000000E+02  0.51100000000E-03 0. -1.
    9900012    2    1    2    0    0  0.13625454836E+02  0.91111274760E+01 -0.40186538286E+02  0.47787268177E+02  0.19999986925E+02 0.  0.
        -12    1    1    2    0    0 -0.13625454836E+02 -0.91111274760E+01  0.40186538286E+02  0.43400731823E+02  0.00000000000E+00 0.  1.
         11    1    3    3    0    0  0.71619080265E+01  0.10153674328E+02 -0.10167258552E+02  0.16055004692E+02  0.51100000000E-03 0. -1.
        -11    1    3    3    0    0 -0.14308200225E+01 -0.18221031722E+01 -0.57400084038E+01  0.61899113599E+01  0.51100000000E-03 0.  1.
        -12    1    3    3    0    0  0.78943668322E+01  0.77955632015E+00 -0.24279271330E+02  0.25542352125E+02  0.00000000000E+00 0.  1.
</event>
<event>
 7    1  0.4011333E-009  0.4778727E+02  0.7816164E-02  0.1312668E+00
        -11   -1    0    0    0    0  0.00000000000E+00  0.00000000000E+00  0.45593999997E+02  0.45594000000E+02  0.51100000000E-03 0.  1.
         11   -1    0    0    0    0 -0.00000000000E+00 -0.00000000000E+00 -0.45593999997E+02  0.45594000000E+02  0.51100000000E-03 0. -1.
    9900012    2    1    2    0    0 -0.26746216364E+02  0.18577737789E+02 -0.28690257037E+02  0.47787270974E+02  0.19999999680E+02 0.  0.
        -12    1    1    2    0    0  0.26746216364E+02 -0.18577737789E+02  0.28690257037E+02  0.43400729026E+02  0.00000000000E+00 0.  1.
         11    1    3    3    0    0 -0.41896931046E+01  0.46374343174E-01 -0.14859555694E+01  0.44456431600E+01  0.51100000000E-03 0. -1.
        -11    1    3    3    0    0 -0.19611631549E+02  0.16904599260E+02 -0.29513514437E+02  0.39261037974E+02  0.51100000000E-03 0.  1.
        -12    1    3    3    0    0 -0.29448917101E+01  0.16267641864E+01  0.23092129697E+01  0.40805898399E+01  0.00000000000E+00 0.  1.
</event>
<event>
 7    1  0.4011333E-009  0.4778727E+02  0.7816164E-02  0.1312668E+00
        -11   -1    0    0    0    0  0.00000000000E+00  0.00000000000E+00  0.45593999997E+02  0.45594000000E+02  0.51100000000E-03 0. -1.
         11   -1    0    0    0    0 -0.00000000000E+00 -0.00000000000E+00 -0.45593999997E+02  0.45594000000E+02  0.51100000000E-03 0.  1.
    9900012    2    1    2    0    0  0.29105143941E+02  0.78578795471E+01  0.31221268409E+02  0.47787271022E+02  0.19999999896E+02 0.  0.
        -12    1    1    2    0    0 -0.29105143941E+02 -0.78578795471E+01 -0.31221268409E+02  0.43400728978E+02  0.00000000000E+00 0.  1.
         11    1    3    3    0    0  0.10744406456E+02  0.37766667493E+01  0.25755962260E+02  0.28161588627E+02  0.51100000000E-03 0. -1.
        -11    1    3    3    0    0  0.36827244640E+01  0.13163215672E+01  0.10104432775E+01  0.40393264073E+01  0.51100000000E-03 0.  1.
         12    1    3    3    0    0  0.14678013020E+02  0.27648912306E+01  0.44548628722E+01  0.15586355987E+02  0.00000000000E+00 0. -1.
</event>
<event>
 7    1  0.4011333E-009  0.4778727E+02  0.7816164E-02  0.1312668E+00
        -11   -1    0    0    0    0  0.00000000000E+00  0.00000000000E+00  0.45593999997E+02  0.45594000000E+02  0.51100000000E-03 0.  1.
         11   -1    0    0    0    0 -0.00000000000E+00 -0.00000000000E+00 -0.45593999997E+02  0.45594000000E+02  0.51100000000E-03 0. -1.
    9900012    2    1    2    0    0 -0.34399525378E+02 -0.63425274851E+01 -0.25691798475E+02  0.47787268324E+02  0.19999987595E+02 0.  0.
        -12    1    1    2    0    0  0.34399525378E+02  0.63425274851E+01  0.25691798475E+02  0.43400731676E+02  0.00000000000E+00 0.  1.
         11    1    3    3    0    0 -0.30580167549E+01 -0.47901905507E+01 -0.33961434257E+01  0.66205122471E+01  0.51100000000E-03 0. -1.
        -11    1    3    3    0    0  0.90508525399E+00  0.72535404184E+00  0.82437644973E+00  0.14229949385E+01  0.51100000000E-03 0.  1.
        -12    1    3    3    0    0 -0.32246593877E+02 -0.22776909763E+01 -0.23120031499E+02  0.39743761138E+02  0.00000000000E+00 0.  1.
</event>
<event>
 7    1  0.4011333E-009  0.4778728E+02  0.7816164E-02  0.1312668E+00
        -11   -1    0    0    0    0  0.00000000000E+00  0.00000000000E+00  0.45593999997E+02  0.45594000000E+02  0.51100000000E-03 0.  1.
         11   -1    0    0    0    0 -0.00000000000E+00 -0.00000000000E+00 -0.45593999997E+02  0.45594000000E+02  0.51100000000E-03 0. -1.
    9900012    2    1    2    0    0  0.53683771664E+00  0.10667553619E+02 -0.42065875846E+02  0.47787276439E+02  0.20000024596E+02 0.  0.
        -12    1    1    2    0    0 -0.53683771664E+00 -0.10667553619E+02  0.42065875846E+02  0.43400723561E+02  0.00000000000E+00 0.  1.
         11    1    3    3    0    0  0.29354511564E+00  0.34161873167E+01 -0.18516735620E+02  0.18831516211E+02  0.51100000000E-03 0. -1.
        -11    1    3    3    0    0  0.30941254107E+01 -0.40684676542E+01 -0.60459112195E+01  0.79170123055E+01  0.51100000000E-03 0.  1.
        -12    1    3    3    0    0 -0.28508328097E+01  0.11319833957E+02 -0.17503229006E+02  0.21038747923E+02  0.00000000000E+00 0.  1.
</event>
<event>
 7    1  0.4011333E-009  0.4778727E+02  0.7816164E-02  0.1312668E+00
        -11   -1    0    0    0    0  0.00000000000E+00  0.00000000000E+00  0.45593999997E+02  0.45594000000E+02  0.51100000000E-03 0.  1.
         11   -1    0    0    0    0 -0.00000000000E+00 -0.00000000000E+00 -0.45593999997E+02  0.45594000000E+02  0.51100000000E-03 0. -1.
    9900012    2    1    2    0    0  0.23472782762E+02 -0.12731077208E+02 -0.34213612924E+02  0.47787272278E+02  0.20000005624E+02 0.  0.
        -12    1    1    2    0    0 -0.23472782762E+02  0.12731077208E+02  0.34213612924E+02  0.43400727722E+02  0.00000000000E+00 0.  1.
         11    1    3    3    0    0  0.55021512737E+01 -0.26153932253E+01 -0.40304500628E+01  0.73046887909E+01  0.51100000000E-03 0. -1.
        -11    1    3    3    0    0  0.20643403221E+01  0.14706520731E+01  0.16739985352E+01  0.30375302208E+01  0.51100000000E-03 0.  1.
         12    1    3    3    0    0  0.15906291166E+02 -0.11586336056E+02 -0.31857161397E+02  0.37445053266E+02  0.00000000000E+00 0. -1.
</event>
<event>
 7    1  0.4011333E-009  0.4778727E+02  0.7816164E-02  0.1312668E+00
        -11   -1    0    0    0    0  0.00000000000E+00  0.00000000000E+00  0.45593999997E+02  0.45594000000E+02  0.51100000000E-03 0.  1.
         11   -1    0    0    0    0 -0.00000000000E+00 -0.00000000000E+00 -0.45593999997E+02  0.45594000000E+02  0.51100000000E-03 0. -1.
    9900012    2    1    2    0    0 -0.93920632332E+01 -0.38391055409E+02 -0.17931515119E+02  0.47787271646E+02  0.20000002742E+02 0.  0.
        -12    1    1    2    0    0  0.93920632332E+01  0.38391055409E+02  0.17931515119E+02  0.43400728354E+02  0.00000000000E+00 0.  1.
         11    1    3    3    0    0  0.26191850626E+01 -0.15232524420E+02 -0.65095834590E+01  0.16770945342E+02  0.51100000000E-03 0. -1.
        -11    1    3    3    0    0 -0.66588713786E+00 -0.10895541626E+02 -0.89751641313E+01  0.14131871937E+02  0.51100000000E-03 0.  1.
        -12    1    3    3    0    0 -0.11345361158E+02 -0.12262989364E+02 -0.24467675291E+01  0.16884454367E+02  0.00000000000E+00 0.  1.
</event>
<event>
 7    1  0.4011333E-009  0.4778727E+02  0.7816164E-02  0.1312668E+00
        -11   -1    0    0    0    0  0.00000000000E+00  0.00000000000E+00  0.45593999997E+02  0.45594000000E+02  0.51100000000E-03 0. -1.
         11   -1    0    0    0    0 -0.00000000000E+00 -0.00000000000E+00 -0.45593999997E+02  0.45594000000E+02  0.51100000000E-03 0.  1.
    9900012    2    1    2    0    0  0.30552318111E+02  0.85172914204E+01  0.29624907861E+02  0.47787267738E+02  0.19999984925E+02 0.  0.
        -12    1    1    2    0    0 -0.30552318111E+02 -0.85172914204E+01 -0.29624907861E+02  0.43400732262E+02  0.00000000000E+00 0.  1.
         11    1    3    3    0    0 -0.34356846674E+00  0.32771438926E+01  0.38881571778E+00  0.33179646333E+01  0.51100000000E-03 0.  1.
        -11    1    3    3    0    0  0.85663149932E+01  0.27079891102E-01  0.15583004823E+02  0.17782365575E+02  0.51100000000E-03 0. -1.
         12    1    3    3    0    0  0.22329571585E+02  0.52130676367E+01  0.13653087320E+02  0.26686937530E+02  0.00000000000E+00 0. -1.
</event>
<event>
 7    1  0.4011333E-009  0.4778726E+02  0.7816164E-02  0.1312668E+00
        -11   -1    0    0    0    0  0.00000000000E+00  0.00000000000E+00  0.45593999997E+02  0.45594000000E+02  0.51100000000E-03 0.  1.
         11   -1    0    0    0    0 -0.00000000000E+00 -0.00000000000E+00 -0.45593999997E+02  0.45594000000E+02  0.51100000000E-03 0. -1.
    9900012    2    1    2    0    0 -0.33082163879E+02 -0.24870802734E+02 -0.13062828622E+02  0.47787263979E+02  0.19999967785E+02 0.  0.
        -12    1    1    2    0    0  0.33082163879E+02  0.24870802734E+02  0.13062828622E+02  0.43400736021E+02  0.00000000000E+00 0.  1.
         11    1    3    3    0    0 -0.75211406779E+01 -0.39142940872E+01  0.17780600488E+01  0.86631837736E+01  0.51100000000E-03 0. -1.
        -11    1    3    3    0    0  0.18751822521E+01 -0.24797843732E+01 -0.98155109707E+00  0.32602272672E+01  0.51100000000E-03 0.  1.
         12    1    3    3    0    0 -0.27436205453E+02 -0.18476724274E+02 -0.13859337574E+02  0.35863852938E+02  0.00000000000E+00 0. -1.
</event>
<event>
 7    1  0.4013194E-009  0.4778727E+02  0.7816164E-02  0.1312668E+00
        -11   -1    0    0    0    0  0.00000000000E+00  0.00000000000E+00  0.45593999997E+02  0.45594000000E+02  0.51100000000E-03 0. -1.
         11   -1    0    0    0    0 -0.00000000000E+00 -0.00000000000E+00 -0.45593999997E+02  0.45594000000E+02  0.51100000000E-03 0.  1.
    9900012    2    1    2    0    0 -0.11006726631E+02 -0.66508787305E+01  0.41451672209E+02  0.47787270191E+02  0.19999996110E+02 0.  0.
        -12    1    1    2    0    0  0.11006726631E+02  0.66508787305E+01 -0.41451672209E+02  0.43400729809E+02  0.00000000000E+00 0.  1.
         11    1    3    3    0    0 -0.45039011110E+01  0.78189539200E-01  0.17433400053E+02  0.18005962248E+02  0.51100000000E-03 0. -1.
        -11    1    3    3    0    0 -0.67497771248E+01 -0.97447444361E+01  0.23986038749E+02  0.26755365639E+02  0.51100000000E-03 0.  1.
        -12    1    3    3    0    0  0.24695160437E+00  0.30156761664E+01  0.32233407311E-01  0.30259423041E+01  0.00000000000E+00 0.  1.
</event>
<event>
 7    1  0.4011333E-009  0.4778727E+02  0.7816164E-02  0.1312668E+00
        -11   -1    0    0    0    0  0.00000000000E+00  0.00000000000E+00  0.45593999997E+02  0.45594000000E+02  0.51100000000E-03 0.  1.
         11   -1    0    0    0    0 -0.00000000000E+00 -0.00000000000E+00 -0.45593999997E+02  0.45594000000E+02  0.51100000000E-03 0. -1.
    9900012    2    1    2    0    0  0.42312483099E+02 -0.54752097082E+01  0.79560759155E+01  0.47787270844E+02  0.19999999085E+02 0.  0.
        -12    1    1    2    0    0 -0.42312483099E+02  0.54752097082E+01 -0.79560759155E+01  0.43400729156E+02  0.00000000000E+00 0.  1.
         11    1    3    3    0    0  0.24657808323E+02  0.12692456139E+01 -0.11845247296E+01  0.24718851001E+02  0.51100000000E-03 0. -1.
        -11    1    3    3    0    0  0.17166765624E+02 -0.53004517912E+01  0.49895778535E+01  0.18646407659E+02  0.51100000000E-03 0.  1.
        -12    1    3    3    0    0  0.48790915223E+00 -0.14440035308E+01  0.41510227916E+01  0.44220121839E+01  0.00000000000E+00 0.  1.
</event>
<event>
 7    1  0.4011333E-009  0.4778727E+02  0.7816164E-02  0.1312668E+00
        -11   -1    0    0    0    0  0.00000000000E+00  0.00000000000E+00  0.45593999997E+02  0.45594000000E+02  0.51100000000E-03 0.  1.
         11   -1    0    0    0    0 -0.00000000000E+00 -0.00000000000E+00 -0.45593999997E+02  0.45594000000E+02  0.51100000000E-03 0. -1.
    9900012    2    1    2    0    0 -0.30390000393E+02  0.22685700496E+02 -0.21105220296E+02  0.47787268962E+02  0.19999990508E+02 0.  0.
        -12    1    1    2    0    0  0.30390000393E+02 -0.22685700496E+02  0.21105220296E+02  0.43400731038E+02  0.00000000000E+00 0.  1.
         11    1    3    3    0    0 -0.22446408283E-02 -0.54635665886E+00 -0.18130055429E+00  0.57565683284E+00  0.51100000000E-03 0.  1.
        -11    1    3    3    0    0 -0.44907274643E+01  0.23996522825E+01 -0.11637237549E+02  0.12702372308E+02  0.51100000000E-03 0. -1.
         12    1    3    3    0    0 -0.25897028288E+02  0.20832404872E+02 -0.92866821926E+01  0.34509239821E+02  0.00000000000E+00 0. -1.
</event>
<event>
 7    1  0.4011333E-009  0.4778727E+02  0.7816164E-02  0.1312668E+00
        -11   -1    0    0    0    0  0.00000000000E+00  0.00000000000E+00  0.45593999997E+02  0.45594000000E+02  0.51100000000E-03 0.  1.
         11   -1    0    0    0    0 -0.00000000000E+00 -0.00000000000E+00 -0.45593999997E+02  0.45594000000E+02  0.51100000000E-03 0. -1.
    9900012    2    1    2    0    0  0.23559147820E+02 -0.10746201254E+02 -0.34829713486E+02  0.47787271563E+02  0.20000002364E+02 0.  0.
        -12    1    1    2    0    0 -0.23559147820E+02  0.10746201254E+02  0.34829713486E+02  0.43400728437E+02  0.00000000000E+00 0.  1.
         11    1    3    3    0    0  0.81025957358E+01 -0.31622654646E+01 -0.12004188700E+02  0.14824052318E+02  0.51100000000E-03 0. -1.
        -11    1    3    3    0    0  0.65468022786E+01 -0.14192038171E+01  0.10158606159E+01  0.67754507305E+01  0.51100000000E-03 0.  1.
        -12    1    3    3    0    0  0.89097498055E+01 -0.61647319727E+01 -0.23841385402E+02  0.26187768514E+02  0.00000000000E+00 0.  1.
</event>
<event>
 7    1  0.4011333E-009  0.4778727E+02  0.7816164E-02  0.1312668E+00
        -11   -1    0    0    0    0  0.00000000000E+00  0.00000000000E+00  0.45593999997E+02  0.45594000000E+02  0.51100000000E-03 0.  1.
         11   -1    0    0    0    0 -0.00000000000E+00 -0.00000000000E+00 -0.45593999997E+02  0.45594000000E+02  0.51100000000E-03 0. -1.
    9900012    2    1    2    0    0  0.31182395524E+02  0.23052506794E+02 -0.19490084763E+02  0.47787271156E+02  0.20000000509E+02 0.  0.
        -12    1    1    2    0    0 -0.31182395524E+02 -0.23052506794E+02  0.19490084763E+02  0.43400728844E+02  0.00000000000E+00 0.  1.
         11    1    3    3    0    0  0.51045923991E+01  0.58683344997E+01 -0.64571160751E+01  0.10108835820E+02  0.51100000000E-03 0. -1.
        -11    1    3    3    0    0  0.26943221913E+02  0.11339221384E+02 -0.92423485681E+01  0.30658378235E+02  0.51100000000E-03 0.  1.
        -12    1    3    3    0    0 -0.86541878796E+00  0.58449509101E+01 -0.37906201197E+01  0.70200571018E+01  0.00000000000E+00 0.  1.
</event>
<event>
 7    1  0.4011333E-009  0.4778727E+02  0.7816164E-02  0.1312668E+00
        -11   -1    0    0    0    0  0.00000000000E+00  0.00000000000E+00  0.45593999997E+02  0.45594000000E+02  0.51100000000E-03 0.  1.
         11   -1    0    0    0    0 -0.00000000000E+00 -0.00000000000E+00 -0.45593999997E+02  0.45594000000E+02  0.51100000000E-03 0. -1.
    9900012    2    1    2    0    0 -0.31462464616E+02 -0.16125152555E+02 -0.25173717656E+02  0.47787270914E+02  0.19999999403E+02 0.  0.
        -12    1    1    2    0    0  0.31462464616E+02  0.16125152555E+02  0.25173717656E+02  0.43400729086E+02  0.00000000000E+00 0.  1.
         11    1    3    3    0    0 -0.40884007366E+01  0.12867031343E+01 -0.11064680719E+01  0.44266124062E+01  0.51100000000E-03 0.  1.
        -11    1    3    3    0    0 -0.19899375384E+02 -0.42925173388E+01 -0.98241772608E+01  0.22603656892E+02  0.51100000000E-03 0. -1.
        -12    1    3    3    0    0 -0.74746884948E+01 -0.13119338350E+02 -0.14243072323E+02  0.20757001615E+02  0.00000000000E+00 0.  1.
</event>
<event>
 7    1  0.4011333E-009  0.4778727E+02  0.7816164E-02  0.1312668E+00
        -11   -1    0    0    0    0  0.00000000000E+00  0.00000000000E+00  0.45593999997E+02  0.45594000000E+02  0.51100000000E-03 0. -1.
         11   -1    0    0    0    0 -0.00000000000E+00 -0.00000000000E+00 -0.45593999997E+02  0.45594000000E+02  0.51100000000E-03 0.  1.
    9900012    2    1    2    0    0 -0.34407970833E+02 -0.26379868032E+02  0.19537885924E+01  0.47787272079E+02  0.20000004716E+02 0.  0.
        -12    1    1    2    0    0  0.34407970833E+02  0.26379868032E+02 -0.19537885924E+01  0.43400727921E+02  0.00000000000E+00 0.  1.
         11    1    3    3    0    0 -0.24662519869E+02 -0.20154183052E+02  0.53526422055E+01  0.32296776304E+02  0.51100000000E-03 0. -1.
        -11    1    3    3    0    0 -0.65990770524E+01 -0.56512517360E+01  0.22715864275E+01  0.89802321398E+01  0.51100000000E-03 0.  1.
        -12    1    3    3    0    0 -0.31463739114E+01 -0.57443324369E+00 -0.56704400406E+01  0.65102636349E+01  0.00000000000E+00 0.  1.
</event>
<event>
 7    1  0.4011333E-009  0.4778727E+02  0.7816164E-02  0.1312668E+00
        -11   -1    0    0    0    0  0.00000000000E+00  0.00000000000E+00  0.45593999997E+02  0.45594000000E+02  0.51100000000E-03 0.  1.
         11   -1    0    0    0    0 -0.00000000000E+00 -0.00000000000E+00 -0.45593999997E+02  0.45594000000E+02  0.51100000000E-03 0. -1.
    9900012    2    1    2    0    0  0.32761035301E+02  0.13720229976E+02 -0.24941794103E+02  0.47787271462E+02  0.20000001903E+02 0.  0.
        -12    1    1    2    0    0 -0.32761035301E+02 -0.13720229976E+02  0.24941794103E+02  0.43400728538E+02  0.00000000000E+00 0.  1.
         11    1    3    3    0    0  0.30982343476E+01  0.16184190642E+01 -0.91678697609E+01  0.98116345506E+01  0.51100000000E-03 0. -1.
        -11    1    3    3    0    0  0.78431683242E+01  0.86247208122E+01 -0.94123734098E+01  0.14983119566E+02  0.51100000000E-03 0.  1.
        -12    1    3    3    0    0  0.21819632629E+02  0.34770900998E+01 -0.63615509318E+01  0.22992517346E+02  0.00000000000E+00 0.  1.
</event>
<event>
 7    1  0.4011333E-009  0.4778728E+02  0.7816164E-02  0.1312668E+00
        -11   -1    0    0    0    0  0.00000000000E+00  0.00000000000E+00  0.45593999997E+02  0.45594000000E+02  0.51100000000E-03 0. -1.
         11   -1    0    0    0    0 -0.00000000000E+00 -0.00000000000E+00 -0.45593999997E+02  0.45594000000E+02  0.51100000000E-03 0.  1.
    9900012    2    1    2    0    0 -0.57116013247E+01 -0.34935561721E+02  0.25109884419E+02  0.47787283900E+02  0.20000058613E+02 0.  0.
        -12    1    1    2    0    0  0.57116013247E+01  0.34935561721E+02 -0.25109884419E+02  0.43400716100E+02  0.00000000000E+00 0.  1.
         11    1    3    3    0    0 -0.87151603955E+00 -0.21078994758E+01  0.51245811454E+01  0.56092880639E+01  0.51100000000E-03 0.  1.
        -11    1    3    3    0    0  0.31940752460E+01 -0.11222574122E+01  0.53825215724E+01  0.63587040437E+01  0.51100000000E-03 0. -1.
         12    1    3    3    0    0 -0.80341605311E+01 -0.31705404833E+02  0.14602781701E+02  0.35819291792E+02  0.00000000000E+00 0. -1.
</event>
<event>
 7    1  0.4011333E-009  0.4778727E+02  0.7816164E-02  0.1312668E+00
        -11   -1    0    0    0    0  0.00000000000E+00  0.00000000000E+00  0.45593999997E+02  0.45594000000E+02  0.51100000000E-03 0.  1.
         11   -1    0    0    0    0 -0.00000000000E+00 -0.00000000000E+00 -0.45593999997E+02  0.45594000000E+02  0.51100000000E-03 0. -1.
    9900012    2    1    2    0    0 -0.34910937146E+02  0.25400362817E+02 -0.44352564956E+01  0.47787268856E+02  0.19999990021E+02 0.  0.
        -12    1    1    2    0    0  0.34910937146E+02 -0.25400362817E+02  0.44352564956E+01  0.43400731144E+02  0.00000000000E+00 0.  1.
         11    1    3    3    0    0 -0.11390436640E+02  0.11954855554E+02  0.14071407417E+01  0.16572286007E+02  0.51100000000E-03 0. -1.
        -11    1    3    3    0    0 -0.13404253521E+01  0.71820007999E+01  0.46253867112E+00  0.73206432707E+01  0.51100000000E-03 0.  1.
        -12    1    3    3    0    0 -0.22180075155E+02  0.62635064631E+01 -0.63049359084E+01  0.23894339578E+02  0.00000000000E+00 0.  1.
</event>
<event>
 7    1  0.4011333E-009  0.4778727E+02  0.7816164E-02  0.1312668E+00
        -11   -1    0    0    0    0  0.00000000000E+00  0.00000000000E+00  0.45593999997E+02  0.45594000000E+02  0.51100000000E-03 0.  1.
         11   -1    0    0    0    0 -0.00000000000E+00 -0.00000000000E+00 -0.45593999997E+02  0.45594000000E+02  0.51100000000E-03 0. -1.
    9900012    2    1    2    0    0 -0.14200926924E+02  0.40106910417E+02 -0.85669458363E+01  0.47787272476E+02  0.20000006525E+02 0.  0.
        -12    1    1    2    0    0  0.14200926924E+02 -0.40106910417E+02  0.85669458363E+01  0.43400727524E+02  0.00000000000E+00 0.  1.
         11    1    3    3    0    0  0.24783045368E+01  0.16141037889E+01 -0.28245027783E+01  0.40896382021E+01  0.51100000000E-03 0. -1.
        -11    1    3    3    0    0 -0.61503426822E+01  0.42080295724E+01 -0.85202704394E+00  0.75006785250E+01  0.51100000000E-03 0.  1.
        -12    1    3    3    0    0 -0.10528888779E+02  0.34284777055E+02 -0.48904160140E+01  0.36196955748E+02  0.00000000000E+00 0.  1.
</event>
<event>
 7    1  0.4011333E-009  0.4778727E+02  0.7816164E-02  0.1312668E+00
        -11   -1    0    0    0    0  0.00000000000E+00  0.00000000000E+00  0.45593999997E+02  0.45594000000E+02  0.51100000000E-03 0.  1.
         11   -1    0    0    0    0 -0.00000000000E+00 -0.00000000000E+00 -0.45593999997E+02  0.45594000000E+02  0.51100000000E-03 0. -1.
    9900012    2    1    2    0    0  0.30264713465E+02  0.80515929111E+01 -0.30047332160E+02  0.47787271902E+02  0.20000003909E+02 0.  0.
        -12    1    1    2    0    0 -0.30264713465E+02 -0.80515929111E+01  0.30047332160E+02  0.43400728098E+02  0.00000000000E+00 0.  1.
         11    1    3    3    0    0  0.19097024250E+02  0.36014452371E+00 -0.12821913093E+02  0.23004945010E+02  0.51100000000E-03 0. -1.
        -11    1    3    3    0    0  0.54378105594E+01 -0.18473570798E+01 -0.23493801975E+01  0.62050059979E+01  0.51100000000E-03 0.  1.
         12    1    3    3    0    0  0.57298786552E+01  0.95388054673E+01 -0.14876038869E+02  0.18577320894E+02  0.00000000000E+00 0. -1.
</event>
<event>
 7    1  0.4011333E-009  0.4778727E+02  0.7816164E-02  0.1312668E+00
        -11   -1    0    0    0    0  0.00000000000E+00  0.00000000000E+00  0.45593999997E+02  0.45594000000E+02  0.51100000000E-03 0. -1.
         11   -1    0    0    0    0 -0.00000000000E+00 -0.00000000000E+00 -0.45593999997E+02  0.45594000000E+02  0.51100000000E-03 0.  1.
    9900012    2    1    2    0    0 -0.75521930793E+01  0.35048398980E+01  0.42594644746E+02  0.47787270927E+02  0.19999999463E+02 0.  0.
        -12    1    1    2    0    0  0.75521930793E+01 -0.35048398980E+01 -0.42594644746E+02  0.43400729073E+02  0.00000000000E+00 0.  1.
         11    1    3    3    0    0 -0.62641521021E+00  0.86929406411E+00  0.85210903015E+01  0.85881923810E+01  0.51100000000E-03 0. -1.
        -11    1    3    3    0    0 -0.63763816053E+01  0.99772692760E+01  0.23504802133E+02  0.26318812058E+02  0.51100000000E-03 0.  1.
         12    1    3    3    0    0 -0.54939626383E+00 -0.73417234422E+01  0.10568752312E+02  0.12880266488E+02  0.00000000000E+00 0. -1.
</event>
<event>
 7    1  0.4011333E-009  0.4778727E+02  0.7816164E-02  0.1312668E+00
        -11   -1    0    0    0    0  0.00000000000E+00  0.00000000000E+00  0.45593999997E+02  0.45594000000E+02  0.51100000000E-03 0.  1.
         11   -1    0    0    0    0 -0.00000000000E+00 -0.00000000000E+00 -0.45593999997E+02  0.45594000000E+02  0.51100000000E-03 0. -1.
    9900012    2    1    2    0    0 -0.17025578279E+02  0.36053681625E+02 -0.17143072520E+02  0.47787271782E+02  0.20000003362E+02 0.  0.
        -12    1    1    2    0    0  0.17025578279E+02 -0.36053681625E+02  0.17143072520E+02  0.43400728218E+02  0.00000000000E+00 0.  1.
         11    1    3    3    0    0 -0.63548423407E+01  0.60147879508E+01 -0.95844361953E+01  0.12977793060E+02  0.51100000000E-03 0. -1.
        -11    1    3    3    0    0 -0.44907559251E+00  0.47651699254E+01  0.29152857750E+01  0.56042309657E+01  0.51100000000E-03 0.  1.
         12    1    3    3    0    0 -0.10221660345E+02  0.25273723749E+02 -0.10473922100E+02  0.29205247756E+02  0.00000000000E+00 0. -1.
</event>
<event>
 7    1  0.4011333E-009  0.4778728E+02  0.7816164E-02  0.1312668E+00
        -11   -1    0    0    0    0  0.00000000000E+00  0.00000000000E+00  0.45593999997E+02  0.45594000000E+02  0.51100000000E-03 0.  1.
         11   -1    0    0    0    0 -0.00000000000E+00 -0.00000000000E+00 -0.45593999997E+02  0.45594000000E+02  0.51100000000E-03 0. -1.
    9900012    2    1    2    0    0  0.36832495543E+01  0.21853121065E+01 -0.43188892567E+02  0.47787281602E+02  0.20000048135E+02 0.  0.
        -12    1    1    2    0    0 -0.36832495543E+01 -0.21853121065E+01  0.43188892567E+02  0.43400718398E+02  0.00000000000E+00 0.  1.
         11    1    3    3    0    0 -0.21603315844E+01  0.47972098274E+01 -0.14291856121E+02  0.15229491335E+02  0.51100000000E-03 0.  1.
        -11    1    3    3    0    0 -0.18752226353E+01  0.39664048660E+01 -0.12812858582E+02  0.13543196550E+02  0.51100000000E-03 0. -1.
        -12    1    3    3    0    0  0.77188037740E+01 -0.65783025869E+01 -0.16084177864E+02  0.19014593716E+02  0.00000000000E+00 0.  1.
</event>
<event>
 7    1  0.4011333E-009  0.4778726E+02  0.7816164E-02  0.1312668E+00
        -11   -1    0    0    0    0  0.00000000000E+00  0.00000000000E+00  0.45593999997E+02  0.45594000000E+02  0.51100000000E-03 0.  1.
         11   -1    0    0    0    0 -0.00000000000E+00 -0.00000000000E+00 -0.45593999997E+02  0.45594000000E+02  0.51100000000E-03 0. -1.
    9900012    2    1    2    0    0  0.31701071843E+02 -0.19182330060E+02 -0.22598772565E+02  0.47787259638E+02  0.19999947991E+02 0.  0.
        -12    1    1    2    0    0 -0.31701071843E+02  0.19182330060E+02  0.22598772565E+02  0.43400740362E+02  0.00000000000E+00 0.  1.
         11    1    3    3    0    0  0.18054657451E+02 -0.69610288518E+01 -0.66595292829E+01  0.20464014974E+02  0.51100000000E-03 0. -1.
        -11    1    3    3    0    0  0.15553215319E+02 -0.10351464991E+02 -0.16078495421E+02  0.24649003012E+02  0.51100000000E-03 0.  1.
        -12    1    3    3    0    0 -0.19068009260E+01 -0.18698362180E+01  0.13925213879E+00  0.26742416517E+01  0.00000000000E+00 0.  1.
</event>
<event>
 7    1  0.4011333E-009  0.4778727E+02  0.7816164E-02  0.1312668E+00
        -11   -1    0    0    0    0  0.00000000000E+00  0.00000000000E+00  0.45593999997E+02  0.45594000000E+02  0.51100000000E-03 0.  1.
         11   -1    0    0    0    0 -0.00000000000E+00 -0.00000000000E+00 -0.45593999997E+02  0.45594000000E+02  0.51100000000E-03 0. -1.
    9900012    2    1    2    0    0  0.85533444937E+01  0.36053720580E+02 -0.22596301682E+02  0.47787270520E+02  0.19999997608E+02 0.  0.
        -12    1    1    2    0    0 -0.85533444937E+01 -0.36053720580E+02  0.22596301682E+02  0.43400729480E+02  0.00000000000E+00 0.  1.
         11    1    3    3    0    0  0.38619680181E+00  0.90748297457E+01 -0.28335291114E+01  0.95147554025E+01  0.51100000000E-03 0. -1.
        -11    1    3    3    0    0 -0.15601252672E+01  0.13798450277E+01 -0.83479654764E+01  0.86038648877E+01  0.51100000000E-03 0.  1.
        -12    1    3    3    0    0  0.97272729591E+01  0.25599045807E+02 -0.11414807094E+02  0.29668650230E+02  0.00000000000E+00 0.  1.
</event>
<event>
 7    1  0.4011333E-009  0.4778726E+02  0.7816164E-02  0.1312668E+00
        -11   -1    0    0    0    0  0.00000000000E+00  0.00000000000E+00  0.45593999997E+02  0.45594000000E+02  0.51100000000E-03 0.  1.
         11   -1    0    0    0    0 -0.00000000000E+00 -0.00000000000E+00 -0.45593999997E+02  0.45594000000E+02  0.51100000000E-03 0. -1.
    9900012    2    1    2    0    0 -0.20521291060E+02  0.69819021551E+01 -0.37599915458E+02  0.47787262830E+02  0.19999962545E+02 0.  0.
        -12    1    1    2    0    0  0.20521291060E+02 -0.69819021551E+01  0.37599915458E+02  0.43400737170E+02  0.00000000000E+00 0.  1.
         11    1    3    3    0    0 -0.60562485286E+01  0.27512842426E+01 -0.11378763087E+02  0.13180438570E+02  0.51100000000E-03 0. -1.
        -11    1    3    3    0    0 -0.12403066163E+02 -0.39916233333E+01 -0.10452121582E+02  0.16703770620E+02  0.51100000000E-03 0.  1.
        -12    1    3    3    0    0 -0.20619763685E+01  0.82222412457E+01 -0.15769030788E+02  0.17903053640E+02  0.00000000000E+00 0.  1.
</event>
<event>
 7    1  0.4011333E-009  0.4778728E+02  0.7816164E-02  0.1312668E+00
        -11   -1    0    0    0    0  0.00000000000E+00  0.00000000000E+00  0.45593999997E+02  0.45594000000E+02  0.51100000000E-03 0.  1.
         11   -1    0    0    0    0 -0.00000000000E+00 -0.00000000000E+00 -0.45593999997E+02  0.45594000000E+02  0.51100000000E-03 0. -1.
    9900012    2    1    2    0    0  0.22439717999E+02  0.25859476121E+02 -0.26671510131E+02  0.47787275331E+02  0.20000019544E+02 0.  0.
        -12    1    1    2    0    0 -0.22439717999E+02 -0.25859476121E+02  0.26671510131E+02  0.43400724669E+02  0.00000000000E+00 0.  1.
         11    1    3    3    0    0  0.10765069684E+02  0.33454771839E+01 -0.11244624048E+02  0.15922327504E+02  0.51100000000E-03 0. -1.
        -11    1    3    3    0    0  0.73139493969E+00 -0.38096783291E+00  0.12515186820E+01  0.14987909527E+01  0.51100000000E-03 0.  1.
         12    1    3    3    0    0  0.10943253375E+02  0.22894966770E+02 -0.16678404765E+02  0.30366156875E+02  0.00000000000E+00 0. -1.
</event>
<event>
 7    1  0.4011333E-009  0.4778727E+02  0.7816164E-02  0.1312668E+00
        -11   -1    0    0    0    0  0.00000000000E+00  0.00000000000E+00  0.45593999997E+02  0.45594000000E+02  0.51100000000E-03 0.  1.
         11   -1    0    0    0    0 -0.00000000000E+00 -0.00000000000E+00 -0.45593999997E+02  0.45594000000E+02  0.51100000000E-03 0. -1.
    9900012    2    1    2    0    0  0.12300612385E+02  0.65525246226E+01 -0.41102099785E+02  0.47787271312E+02  0.20000001218E+02 0.  0.
        -12    1    1    2    0    0 -0.12300612385E+02 -0.65525246226E+01  0.41102099785E+02  0.43400728688E+02  0.00000000000E+00 0.  1.
         11    1    3    3    0    0  0.18424594133E+01  0.88094289472E+01 -0.23854556550E+02  0.25495893072E+02  0.51100000000E-03 0. -1.
        -11    1    3    3    0    0  0.13953861739E+01 -0.44221309854E+01 -0.74115852609E+01  0.87426507059E+01  0.51100000000E-03 0.  1.
        -12    1    3    3    0    0  0.90627667979E+01  0.21652266607E+01 -0.98359579733E+01  0.13548727534E+02  0.00000000000E+00 0.  1.
</event>
<event>
 7    1  0.4011333E-009  0.4778728E+02  0.7816164E-02  0.1312668E+00
        -11   -1    0    0    0    0  0.00000000000E+00  0.00000000000E+00  0.45593999997E+02  0.45594000000E+02  0.51100000000E-03 0.  1.
         11   -1    0    0    0    0 -0.00000000000E+00 -0.00000000000E+00 -0.45593999997E+02  0.45594000000E+02  0.51100000000E-03 0. -1.
    9900012    2    1    2    0    0 -0.10206681687E+02  0.16830006452E+02 -0.38680709586E+02  0.47787276938E+02  0.20000026870E+02 0.  0.
        -12    1    1    2    0    0  0.10206681687E+02 -0.16830006452E+02  0.38680709586E+02  0.43400723062E+02  0.00000000000E+00 0.  1.
         11    1    3    3    0    0 -0.65054814240E+01  0.87612650578E+01 -0.12205739462E+02  0.16372572493E+02  0.51100000000E-03 0. -1.
        -11    1    3    3    0    0 -0.87409436498E+01  0.67754966537E+01 -0.21685891417E+02  0.24343157922E+02  0.51100000000E-03 0.  1.
        -12    1    3    3    0    0  0.50397433865E+01  0.12932447409E+01 -0.47890787073E+01  0.70715465230E+01  0.00000000000E+00 0.  1.
</event>
<event>
 7    1  0.4011333E-009  0.4778727E+02  0.7816164E-02  0.1312668E+00
        -11   -1    0    0    0    0  0.00000000000E+00  0.00000000000E+00  0.45593999997E+02  0.45594000000E+02  0.51100000000E-03 0.  1.
         11   -1    0    0    0    0 -0.00000000000E+00 -0.00000000000E+00 -0.45593999997E+02  0.45594000000E+02  0.51100000000E-03 0. -1.
    9900012    2    1    2    0    0  0.11363901620E+02 -0.10846128168E+02 -0.40457959676E+02  0.47787271234E+02  0.20000000865E+02 0.  0.
        -12    1    1    2    0    0 -0.11363901620E+02  0.10846128168E+02  0.40457959676E+02  0.43400728766E+02  0.00000000000E+00 0.  1.
         11    1    3    3    0    0  0.84356816823E+01  0.19704605758E+01 -0.23229059504E+02  0.24791785858E+02  0.51100000000E-03 0. -1.
        -11    1    3    3    0    0  0.67291532097E+00 -0.75267159721E+00  0.72834680769E+00  0.12449172245E+01  0.51100000000E-03 0.  1.
        -12    1    3    3    0    0  0.22553046170E+01 -0.12063917147E+02 -0.17957246979E+02  0.21750568152E+02  0.00000000000E+00 0.  1.
</event>
<event>
 7    1  0.4011333E-009  0.4778727E+02  0.7816164E-02  0.1312668E+00
        -11   -1    0    0    0    0  0.00000000000E+00  0.00000000000E+00  0.45593999997E+02  0.45594000000E+02  0.51100000000E-03 0.  1.
         11   -1    0    0    0    0 -0.00000000000E+00 -0.00000000000E+00 -0.45593999997E+02  0.45594000000E+02  0.51100000000E-03 0. -1.
    9900012    2    1    2    0    0 -0.40364286082E+02 -0.12641855325E+02 -0.97227143902E+01  0.47787271065E+02  0.20000000093E+02 0.  0.
        -12    1    1    2    0    0  0.40364286082E+02  0.12641855325E+02  0.97227143902E+01  0.43400728935E+02  0.00000000000E+00 0.  1.
         11    1    3    3    0    0 -0.79507694399E+00 -0.20107553854E+01  0.29088742816E+01  0.36244771228E+01  0.51100000000E-03 0. -1.
        -11    1    3    3    0    0 -0.12255888998E+02 -0.50187643600E+01  0.68669161395E+00  0.13261461325E+02  0.51100000000E-03 0.  1.
         12    1    3    3    0    0 -0.27313320140E+02 -0.56123355796E+01 -0.13318280286E+02  0.30901332617E+02  0.00000000000E+00 0. -1.
</event>
<event>
 7    1  0.4011333E-009  0.4778727E+02  0.7816164E-02  0.1312668E+00
        -11   -1    0    0    0    0  0.00000000000E+00  0.00000000000E+00  0.45593999997E+02  0.45594000000E+02  0.51100000000E-03 0.  1.
         11   -1    0    0    0    0 -0.00000000000E+00 -0.00000000000E+00 -0.45593999997E+02  0.45594000000E+02  0.51100000000E-03 0. -1.
    9900012    2    1    2    0    0  0.57122719873E+01 -0.73711841992E+00 -0.43016856446E+02  0.47787270359E+02  0.19999996877E+02 0.  0.
        -12    1    1    2    0    0 -0.57122719873E+01  0.73711841992E+00  0.43016856446E+02  0.43400729641E+02  0.00000000000E+00 0.  1.
         11    1    3    3    0    0  0.42432958881E+01  0.38754711064E+01 -0.97037165176E+01  0.11277719220E+02  0.51100000000E-03 0. -1.
        -11    1    3    3    0    0  0.28558105141E+01  0.46008983645E+01 -0.94440326977E+01  0.10886398546E+02  0.51100000000E-03 0.  1.
        -12    1    3    3    0    0 -0.13868344149E+01 -0.92134878908E+01 -0.23869107231E+02  0.25623152593E+02  0.00000000000E+00 0.  1.
</event>
<event>
 7    1  0.4011333E-009  0.4778727E+02  0.7816164E-02  0.1312668E+00
        -11   -1    0    0    0    0  0.00000000000E+00  0.00000000000E+00  0.45593999997E+02  0.45594000000E+02  0.51100000000E-03 0.  1.
         11   -1    0    0    0    0 -0.00000000000E+00 -0.00000000000E+00 -0.45593999997E+02  0.45594000000E+02  0.51100000000E-03 0. -1.
    9900012    2    1    2    0    0 -0.90298123590E+01  0.35758901849E+02 -0.22877647209E+02  0.47787270577E+02  0.19999997868E+02 0.  0.
        -12    1    1    2    0    0  0.90298123590E+01 -0.35758901849E+02  0.22877647209E+02  0.43400729423E+02  0.00000000000E+00 0.  1.
         11    1    3    3    0    0 -0.27573272173E+01  0.17465366098E+02 -0.13989366650E+02  0.22546490766E+02  0.51100000000E-03 0. -1.
        -11    1    3    3    0    0 -0.93687999343E+01  0.18250157672E+02 -0.74364370217E+01  0.21820707209E+02  0.51100000000E-03 0.  1.
         12    1    3    3    0    0  0.30963147925E+01  0.43378079287E-01 -0.14518435368E+01  0.34200726026E+01  0.00000000000E+00 0. -1.
</event>
<event>
 7    1  0.4011333E-009  0.4778727E+02  0.7816164E-02  0.1312668E+00
        -11   -1    0    0    0    0  0.00000000000E+00  0.00000000000E+00  0.45593999997E+02  0.45594000000E+02  0.51100000000E-03 0. -1.
         11   -1    0    0    0    0 -0.00000000000E+00 -0.00000000000E+00 -0.45593999997E+02  0.45594000000E+02  0.51100000000E-03 0.  1.
    9900012    2    1    2    0    0  0.38995848391E+02 -0.11230097081E+02  0.15389349436E+02  0.47787270187E+02  0.19999996093E+02 0.  0.
        -12    1    1    2    0    0 -0.38995848391E+02  0.11230097081E+02 -0.15389349436E+02  0.43400729813E+02  0.00000000000E+00 0.  1.
         11    1    3    3    0    0  0.50877303493E+01  0.85389572255E-01  0.54827135872E+01  0.74801363641E+01  0.51100000000E-03 0.  1.
        -11    1    3    3    0    0  0.26202780373E+02 -0.54203104876E+01  0.13488701159E+02  0.29965155168E+02  0.51100000000E-03 0. -1.
         12    1    3    3    0    0  0.77053376689E+01 -0.58951761656E+01 -0.35820653097E+01  0.10341978655E+02  0.00000000000E+00 0. -1.
</event>
<event>
 7    1  0.5057560E-009  0.4778727E+02  0.7816164E-02  0.1312668E+00
        -11   -1    0    0    0    0  0.00000000000E+00  0.00000000000E+00  0.45593999997E+02  0.45594000000E+02  0.51100000000E-03 0.  1.
         11   -1    0    0    0    0 -0.00000000000E+00 -0.00000000000E+00 -0.45593999997E+02  0.45594000000E+02  0.51100000000E-03 0. -1.
    9900012    2    1    2    0    0  0.27691928655E+02  0.30871987765E+02 -0.12794551169E+02  0.47787273269E+02  0.20000010142E+02 0.  0.
        -12    1    1    2    0    0 -0.27691928655E+02 -0.30871987765E+02  0.12794551169E+02  0.43400726731E+02  0.00000000000E+00 0.  1.
         11    1    3    3    0    0  0.13249131077E+02  0.20229302026E+02 -0.22102670226E+01  0.24282697859E+02  0.51100000000E-03 0. -1.
        -11    1    3    3    0    0  0.86188388911E+01  0.11804952675E+02 -0.95937250595E+01  0.17483731074E+02  0.51100000000E-03 0.  1.
        -12    1    3    3    0    0  0.58239586871E+01 -0.11622669355E+01 -0.99055908652E+00  0.60208443364E+01  0.00000000000E+00 0.  1.
</event>
<event>
 7    1  0.4011333E-009  0.4778727E+02  0.7816164E-02  0.1312668E+00
        -11   -1    0    0    0    0  0.00000000000E+00  0.00000000000E+00  0.45593999997E+02  0.45594000000E+02  0.51100000000E-03 0. -1.
         11   -1    0    0    0    0 -0.00000000000E+00 -0.00000000000E+00 -0.45593999997E+02  0.45594000000E+02  0.51100000000E-03 0.  1.
    9900012    2    1    2    0    0 -0.22383984377E+02  0.66703438620E+01  0.36579870529E+02  0.47787272221E+02  0.20000005366E+02 0.  0.
        -12    1    1    2    0    0  0.22383984377E+02 -0.66703438620E+01 -0.36579870529E+02  0.43400727779E+02  0.00000000000E+00 0.  1.
         11    1    3    3    0    0 -0.15536090097E+02  0.10109371626E+02  0.28191459646E+02  0.33739115096E+02  0.51100000000E-03 0. -1.
        -11    1    3    3    0    0 -0.73093885088E+01  0.40903475941E+00  0.47118367984E+01  0.87060827060E+01  0.51100000000E-03 0.  1.
         12    1    3    3    0    0  0.46149422943E+00 -0.38480625238E+01  0.36765740843E+01  0.53420744199E+01  0.00000000000E+00 0. -1.
</event>
<event>
 7    1  0.4011333E-009  0.4778727E+02  0.7816164E-02  0.1312668E+00
        -11   -1    0    0    0    0  0.00000000000E+00  0.00000000000E+00  0.45593999997E+02  0.45594000000E+02  0.51100000000E-03 0.  1.
         11   -1    0    0    0    0 -0.00000000000E+00 -0.00000000000E+00 -0.45593999997E+02  0.45594000000E+02  0.51100000000E-03 0. -1.
    9900012    2    1    2    0    0  0.17648520655E+02 -0.32372599028E+02 -0.22894713196E+02  0.47787270265E+02  0.19999996448E+02 0.  0.
        -12    1    1    2    0    0 -0.17648520655E+02  0.32372599028E+02  0.22894713196E+02  0.43400729735E+02  0.00000000000E+00 0.  1.
         11    1    3    3    0    0  0.88007901431E+01 -0.30206087525E+02 -0.17397212206E+02  0.35951698479E+02  0.51100000000E-03 0.  1.
        -11    1    3    3    0    0  0.41242410440E+01 -0.36674679316E+01 -0.26952099197E+01  0.61419737863E+01  0.51100000000E-03 0. -1.
        -12    1    3    3    0    0  0.47234894676E+01  0.15009564280E+01 -0.28022910705E+01  0.56935980006E+01  0.00000000000E+00 0.  1.
</event>
<event>
 7    1  0.4011333E-009  0.4778727E+02  0.7816164E-02  0.1312668E+00
        -11   -1    0    0    0    0  0.00000000000E+00  0.00000000000E+00  0.45593999997E+02  0.45594000000E+02  0.51100000000E-03 0.  1.
         11   -1    0    0    0    0 -0.00000000000E+00 -0.00000000000E+00 -0.45593999997E+02  0.45594000000E+02  0.51100000000E-03 0. -1.
    9900012    2    1    2    0    0  0.37648505285E+02 -0.12909528244E+02 -0.17307719385E+02  0.47787273969E+02  0.20000013336E+02 0.  0.
        -12    1    1    2    0    0 -0.37648505285E+02  0.12909528244E+02  0.17307719385E+02  0.43400726031E+02  0.00000000000E+00 0.  1.
         11    1    3    3    0    0  0.21107191543E+02 -0.33951422639E+01 -0.11075258646E+02  0.24076998986E+02  0.51100000000E-03 0. -1.
        -11    1    3    3    0    0  0.11023456185E+02 -0.17284302200E+00  0.33134471040E+00  0.11029789235E+02  0.51100000000E-03 0.  1.
        -12    1    3    3    0    0  0.55178575564E+01 -0.93415429579E+01 -0.65638054497E+01  0.12680485749E+02  0.00000000000E+00 0.  1.
</event>
<event>
 7    1  0.4011333E-009  0.4778727E+02  0.7816164E-02  0.1312668E+00
        -11   -1    0    0    0    0  0.00000000000E+00  0.00000000000E+00  0.45593999997E+02  0.45594000000E+02  0.51100000000E-03 0. -1.
         11   -1    0    0    0    0 -0.00000000000E+00 -0.00000000000E+00 -0.45593999997E+02  0.45594000000E+02  0.51100000000E-03 0.  1.
    9900012    2    1    2    0    0 -0.37397034087E+02 -0.36214247036E+01  0.21724876777E+02  0.47787272514E+02  0.20000006699E+02 0.  0.
        -12    1    1    2    0    0  0.37397034087E+02  0.36214247036E+01 -0.21724876777E+02  0.43400727486E+02  0.00000000000E+00 0.  1.
         11    1    3    3    0    0 -0.17150149107E+02  0.43649136958E+01  0.66293441050E+01  0.18897838223E+02  0.51100000000E-03 0. -1.
        -11    1    3    3    0    0 -0.28904685782E+01  0.12684444022E+01  0.68865426419E+01  0.75755019387E+01  0.51100000000E-03 0.  1.
         12    1    3    3    0    0 -0.17356416402E+02 -0.92547828016E+01  0.82089900296E+01  0.21313932352E+02  0.00000000000E+00 0. -1.
</event>
<event>
 7    1  0.4011333E-009  0.4778727E+02  0.7816164E-02  0.1312668E+00
        -11   -1    0    0    0    0  0.00000000000E+00  0.00000000000E+00  0.45593999997E+02  0.45594000000E+02  0.51100000000E-03 0. -1.
         11   -1    0    0    0    0 -0.00000000000E+00 -0.00000000000E+00 -0.45593999997E+02  0.45594000000E+02  0.51100000000E-03 0.  1.
    9900012    2    1    2    0    0  0.26834938795E+02 -0.33404150404E+02 -0.69045035568E+01  0.47787269894E+02  0.19999994756E+02 0.  0.
        -12    1    1    2    0    0 -0.26834938795E+02  0.33404150404E+02  0.69045035568E+01  0.43400730106E+02  0.00000000000E+00 0.  1.
         11    1    3    3    0    0  0.24542555423E+00 -0.37486981640E+01  0.13342485691E+00  0.37590921885E+01  0.51100000000E-03 0. -1.
        -11    1    3    3    0    0  0.82125838561E+00  0.19749581443E+01  0.11321406713E+01  0.24200553234E+01  0.51100000000E-03 0.  1.
         12    1    3    3    0    0  0.25768254855E+02 -0.31630410384E+02 -0.81700690850E+01  0.41608122383E+02  0.00000000000E+00 0. -1.
</event>
<event>
 7    1  0.4011333E-009  0.4778727E+02  0.7816164E-02  0.1312668E+00
        -11   -1    0    0    0    0  0.00000000000E+00  0.00000000000E+00  0.45593999997E+02  0.45594000000E+02  0.51100000000E-03 0. -1.
         11   -1    0    0    0    0 -0.00000000000E+00 -0.00000000000E+00 -0.45593999997E+02  0.45594000000E+02  0.51100000000E-03 0.  1.
    9900012    2    1    2    0    0  0.24192327678E+02  0.13481533739E+02  0.33415608394E+02  0.47787270112E+02  0.19999995750E+02 0.  0.
        -12    1    1    2    0    0 -0.24192327678E+02 -0.13481533739E+02 -0.33415608394E+02  0.43400729888E+02  0.00000000000E+00 0.  1.
         11    1    3    3    0    0  0.12335814327E+01  0.44148821832E+01  0.13083796767E+02  0.13863572626E+02  0.51100000000E-03 0. -1.
        -11    1    3    3    0    0  0.13659314440E+02  0.94379563580E+01  0.78793361247E+01  0.18377590408E+02  0.51100000000E-03 0.  1.
         12    1    3    3    0    0  0.92994318052E+01 -0.37130480257E+00  0.12452475502E+02  0.15546107078E+02  0.00000000000E+00 0. -1.
</event>
<event>
 7    1  0.4011333E-009  0.4778727E+02  0.7816164E-02  0.1312668E+00
        -11   -1    0    0    0    0  0.00000000000E+00  0.00000000000E+00  0.45593999997E+02  0.45594000000E+02  0.51100000000E-03 0.  1.
         11   -1    0    0    0    0 -0.00000000000E+00 -0.00000000000E+00 -0.45593999997E+02  0.45594000000E+02  0.51100000000E-03 0. -1.
    9900012    2    1    2    0    0  0.36818620136E+02 -0.19465089075E+02 -0.12211589881E+02  0.47787269490E+02  0.19999992913E+02 0.  0.
        -12    1    1    2    0    0 -0.36818620136E+02  0.19465089075E+02  0.12211589881E+02  0.43400730510E+02  0.00000000000E+00 0.  1.
         11    1    3    3    0    0  0.19941100042E+02 -0.10282247547E+02 -0.10252191478E+02  0.24667377563E+02  0.51100000000E-03 0. -1.
        -11    1    3    3    0    0  0.72433943760E+01 -0.52936169124E+00 -0.61416715691E+01  0.95114202835E+01  0.51100000000E-03 0.  1.
        -12    1    3    3    0    0  0.96341257178E+01 -0.86534798370E+01  0.41822731656E+01  0.13608471643E+02  0.00000000000E+00 0.  1.
</event>
<event>
 7    1  0.4011333E-009  0.4778727E+02  0.7816164E-02  0.1312668E+00
        -11   -1    0    0    0    0  0.00000000000E+00  0.00000000000E+00  0.45593999997E+02  0.45594000000E+02  0.51100000000E-03 0. -1.
         11   -1    0    0    0    0 -0.00000000000E+00 -0.00000000000E+00 -0.45593999997E+02  0.45594000000E+02  0.51100000000E-03 0.  1.
    9900012    2    1    2    0    0  0.28978510876E+02 -0.18997551851E+02  0.26133540903E+02  0.47787273865E+02  0.20000012861E+02 0.  0.
        -12    1    1    2    0    0 -0.28978510876E+02  0.18997551851E+02 -0.26133540903E+02  0.43400726135E+02  0.00000000000E+00 0.  1.
         11    1    3    3    0    0  0.54554494301E+01 -0.39193872241E+01  0.13220924450E+02  0.14829577481E+02  0.51100000000E-03 0. -1.
        -11    1    3    3    0    0 -0.32028183789E+00 -0.14090827853E+01 -0.13640965538E+01  0.19871724688E+01  0.51100000000E-03 0.  1.
         12    1    3    3    0    0  0.23843343283E+02 -0.13669081842E+02  0.14276713007E+02  0.30970523916E+02  0.00000000000E+00 0. -1.
</event>
<event>
 7    1  0.4011333E-009  0.4778727E+02  0.7816164E-02  0.1312668E+00
        -11   -1    0    0    0    0  0.00000000000E+00  0.00000000000E+00  0.45593999997E+02  0.45594000000E+02  0.51100000000E-03 0.  1.
         11   -1    0    0    0    0 -0.00000000000E+00 -0.00000000000E+00 -0.45593999997E+02  0.45594000000E+02  0.51100000000E-03 0. -1.
    9900012    2    1    2    0    0 -0.27844854873E+02 -0.31582913930E+01 -0.33140794519E+02  0.47787274099E+02  0.20000013927E+02 0.  0.
        -12    1    1    2    0    0  0.27844854873E+02  0.31582913930E+01  0.33140794519E+02  0.43400725901E+02  0.00000000000E+00 0.  1.
         11    1    3    3    0    0 -0.13614686693E+01 -0.10823481785E+01 -0.11566859729E+01  0.20887788820E+01  0.51100000000E-03 0. -1.
        -11    1    3    3    0    0 -0.19402358834E+02 -0.10068874992E+02 -0.23150512696E+02  0.31839912221E+02  0.51100000000E-03 0.  1.
         12    1    3    3    0    0 -0.70810273700E+01  0.79929317774E+01 -0.88335958497E+01  0.13858582996E+02  0.00000000000E+00 0. -1.
</event>
<event>
 7    1  0.4011333E-009  0.4778727E+02  0.7816164E-02  0.1312668E+00
        -11   -1    0    0    0    0  0.00000000000E+00  0.00000000000E+00  0.45593999997E+02  0.45594000000E+02  0.51100000000E-03 0.  1.
         11   -1    0    0    0    0 -0.00000000000E+00 -0.00000000000E+00 -0.45593999997E+02  0.45594000000E+02  0.51100000000E-03 0. -1.
    9900012    2    1    2    0    0  0.17046283960E+02  0.10558001476E+02 -0.38491248591E+02  0.47787269475E+02  0.19999992845E+02 0.  0.
        -12    1    1    2    0    0 -0.17046283960E+02 -0.10558001476E+02  0.38491248591E+02  0.43400730525E+02  0.00000000000E+00 0.  1.
         11    1    3    3    0    0  0.12086152412E+02  0.47388725486E+01 -0.20533100483E+02  0.24292801585E+02  0.51100000000E-03 0. -1.
        -11    1    3    3    0    0  0.69804038592E+01  0.56626980730E+01 -0.19142259173E+02  0.21147535885E+02  0.51100000000E-03 0.  1.
        -12    1    3    3    0    0 -0.20202723110E+01  0.15643085415E+00  0.11841110648E+01  0.23469320051E+01  0.00000000000E+00 0.  1.
</event>
<event>
 7    1  0.4011333E-009  0.4778729E+02  0.7816164E-02  0.1312668E+00
        -11   -1    0    0    0    0  0.00000000000E+00  0.00000000000E+00  0.45593999997E+02  0.45594000000E+02  0.51100000000E-03 0.  1.
         11   -1    0    0    0    0 -0.00000000000E+00 -0.00000000000E+00 -0.45593999997E+02  0.45594000000E+02  0.51100000000E-03 0. -1.
    9900012    2    1    2    0    0 -0.64879938692E+01 -0.13820844098E+02 -0.40626493865E+02  0.47787288027E+02  0.20000077429E+02 0.  0.
        -12    1    1    2    0    0  0.64879938692E+01  0.13820844098E+02  0.40626493865E+02  0.43400711973E+02  0.00000000000E+00 0.  1.
         11    1    3    3    0    0  0.51041967837E+01 -0.61096654000E+01 -0.16224237500E+02  0.18072263799E+02  0.51100000000E-03 0. -1.
        -11    1    3    3    0    0  0.75843669478E+00 -0.32197853988E+01 -0.24004289516E+01  0.40870898751E+01  0.51100000000E-03 0.  1.
        -12    1    3    3    0    0 -0.12350627348E+02 -0.44913932988E+01 -0.22001827413E+02  0.25627934352E+02  0.00000000000E+00 0.  1.
</event>
<event>
 7    1  0.4011333E-009  0.4778727E+02  0.7816164E-02  0.1312668E+00
        -11   -1    0    0    0    0  0.00000000000E+00  0.00000000000E+00  0.45593999997E+02  0.45594000000E+02  0.51100000000E-03 0.  1.
         11   -1    0    0    0    0 -0.00000000000E+00 -0.00000000000E+00 -0.45593999997E+02  0.45594000000E+02  0.51100000000E-03 0. -1.
    9900012    2    1    2    0    0 -0.30969894865E+02 -0.18596976163E+02 -0.24054961991E+02  0.47787272969E+02  0.20000008777E+02 0.  0.
        -12    1    1    2    0    0  0.30969894865E+02  0.18596976163E+02  0.24054961991E+02  0.43400727031E+02  0.00000000000E+00 0.  1.
         11    1    3    3    0    0 -0.23150422580E+02 -0.72958485990E+01 -0.94669223930E+01  0.26053677135E+02  0.51100000000E-03 0. -1.
        -11    1    3    3    0    0 -0.86182811900E+01 -0.55247297077E+01 -0.10035698570E+02  0.14335712576E+02  0.51100000000E-03 0.  1.
        -12    1    3    3    0    0  0.79880890469E+00 -0.57763978567E+01 -0.45523410283E+01  0.73978832583E+01  0.00000000000E+00 0.  1.
</event>
<event>
 7    1  0.4011333E-009  0.4778728E+02  0.7816164E-02  0.1312668E+00
        -11   -1    0    0    0    0  0.00000000000E+00  0.00000000000E+00  0.45593999997E+02  0.45594000000E+02  0.51100000000E-03 0. -1.
         11   -1    0    0    0    0 -0.00000000000E+00 -0.00000000000E+00 -0.45593999997E+02  0.45594000000E+02  0.51100000000E-03 0.  1.
    9900012    2    1    2    0    0 -0.30135414799E+02  0.31045402941E+02 -0.34150624827E+01  0.47787275114E+02  0.20000018556E+02 0.  0.
        -12    1    1    2    0    0  0.30135414799E+02 -0.31045402941E+02  0.34150624827E+01  0.43400724886E+02  0.00000000000E+00 0.  1.
         11    1    3    3    0    0 -0.11756484056E+01  0.10392778559E+01 -0.29947656766E+01  0.33809568696E+01  0.51100000000E-03 0.  1.
        -11    1    3    3    0    0 -0.61394595317E+01  0.28236683762E+00  0.28808379478E+01  0.67876300661E+01  0.51100000000E-03 0. -1.
         12    1    3    3    0    0 -0.22820306861E+02  0.29723758248E+02 -0.33011347539E+01  0.37618688178E+02  0.00000000000E+00 0. -1.
</event>
<event>
 7    1  0.4011333E-009  0.4778727E+02  0.7816164E-02  0.1312668E+00
        -11   -1    0    0    0    0  0.00000000000E+00  0.00000000000E+00  0.45593999997E+02  0.45594000000E+02  0.51100000000E-03 0. -1.
         11   -1    0    0    0    0 -0.00000000000E+00 -0.00000000000E+00 -0.45593999997E+02  0.45594000000E+02  0.51100000000E-03 0.  1.
    9900012    2    1    2    0    0 -0.27906560662E+02  0.19035695656E+02 -0.27248658114E+02  0.47787271825E+02  0.20000003559E+02 0.  0.
        -12    1    1    2    0    0  0.27906560662E+02 -0.19035695656E+02  0.27248658114E+02  0.43400728175E+02  0.00000000000E+00 0.  1.
         11    1    3    3    0    0 -0.33786637148E+01  0.19851320730E+01 -0.50043854126E+01  0.63560987613E+01  0.51100000000E-03 0. -1.
        -11    1    3    3    0    0 -0.66267699453E+01  0.14843601598E+02 -0.65617161209E+01  0.17530051541E+02  0.51100000000E-03 0.  1.
        -12    1    3    3    0    0 -0.17901127002E+02  0.22069619844E+01 -0.15682556581E+02  0.23901121523E+02  0.00000000000E+00 0.  1.
</event>
<event>
 7    1  0.4011333E-009  0.4778727E+02  0.7816164E-02  0.1312668E+00
        -11   -1    0    0    0    0  0.00000000000E+00  0.00000000000E+00  0.45593999997E+02  0.45594000000E+02  0.51100000000E-03 0.  1.
         11   -1    0    0    0    0 -0.00000000000E+00 -0.00000000000E+00 -0.45593999997E+02  0.45594000000E+02  0.51100000000E-03 0. -1.
    9900012    2    1    2    0    0 -0.13351350247E+02  0.40361203864E+02  0.87371739484E+01  0.47787267985E+02  0.19999986052E+02 0.  0.
        -12    1    1    2    0    0  0.13351350247E+02 -0.40361203864E+02 -0.87371739484E+01  0.43400732015E+02  0.00000000000E+00 0.  1.
         11    1    3    3    0    0 -0.77488212513E+01  0.18149134944E+02  0.88472919915E+01  0.21626601810E+02  0.51100000000E-03 0. -1.
        -11    1    3    3    0    0  0.12341098256E+01  0.14255991787E+02  0.40570393345E+01  0.14873328388E+02  0.51100000000E-03 0.  1.
        -12    1    3    3    0    0 -0.68366388216E+01  0.79560771334E+01 -0.41671573776E+01  0.11287337788E+02  0.00000000000E+00 0.  1.
</event>
<event>
 7    1  0.4011333E-009  0.4778727E+02  0.7816164E-02  0.1312668E+00
        -11   -1    0    0    0    0  0.00000000000E+00  0.00000000000E+00  0.45593999997E+02  0.45594000000E+02  0.51100000000E-03 0. -1.
         11   -1    0    0    0    0 -0.00000000000E+00 -0.00000000000E+00 -0.45593999997E+02  0.45594000000E+02  0.51100000000E-03 0.  1.
    9900012    2    1    2    0    0  0.10689980433E+02  0.40926169800E+02 -0.97157711252E+01  0.47787271150E+02  0.20000000480E+02 0.  0.
        -12    1    1    2    0    0 -0.10689980433E+02 -0.40926169800E+02  0.97157711252E+01  0.43400728850E+02  0.00000000000E+00 0.  1.
         11    1    3    3    0    0  0.65288514333E+01  0.18907197112E+02  0.15503986276E+01  0.20062695228E+02  0.51100000000E-03 0. -1.
        -11    1    3    3    0    0 -0.10251593396E-01  0.14415370176E+02 -0.12410444279E+01  0.14468697037E+02  0.51100000000E-03 0.  1.
         12    1    3    3    0    0  0.41713805933E+01  0.76036025127E+01 -0.10025125325E+02  0.13255878885E+02  0.00000000000E+00 0. -1.
</event>
<event>
 7    1  0.4011333E-009  0.4778727E+02  0.7816164E-02  0.1312668E+00
        -11   -1    0    0    0    0  0.00000000000E+00  0.00000000000E+00  0.45593999997E+02  0.45594000000E+02  0.51100000000E-03 0.  1.
         11   -1    0    0    0    0 -0.00000000000E+00 -0.00000000000E+00 -0.45593999997E+02  0.45594000000E+02  0.51100000000E-03 0. -1.
    9900012    2    1    2    0    0  0.19043364231E+02 -0.26085956899E+02 -0.28991312957E+02  0.47787273098E+02  0.20000009365E+02 0.  0.
        -12    1    1    2    0    0 -0.19043364231E+02  0.26085956899E+02  0.28991312957E+02  0.43400726902E+02  0.00000000000E+00 0.  1.
         11    1    3    3    0    0  0.81261977525E+01 -0.13794556315E+02 -0.32891943220E+01  0.16344530381E+02  0.51100000000E-03 0. -1.
        -11    1    3    3    0    0  0.33347905683E+01 -0.13908476887E-02 -0.27347063440E+01  0.43127078638E+01  0.51100000000E-03 0.  1.
         12    1    3    3    0    0  0.75823759103E+01 -0.12290009737E+02 -0.22967412291E+02  0.27130034853E+02  0.00000000000E+00 0. -1.
</event>
<event>
 7    1  0.4011333E-009  0.4778727E+02  0.7816164E-02  0.1312668E+00
        -11   -1    0    0    0    0  0.00000000000E+00  0.00000000000E+00  0.45593999997E+02  0.45594000000E+02  0.51100000000E-03 0. -1.
         11   -1    0    0    0    0 -0.00000000000E+00 -0.00000000000E+00 -0.45593999997E+02  0.45594000000E+02  0.51100000000E-03 0.  1.
    9900012    2    1    2    0    0  0.53067409254E+01  0.11128852497E+02  0.41612624804E+02  0.47787269589E+02  0.19999993365E+02 0.  0.
        -12    1    1    2    0    0 -0.53067409254E+01 -0.11128852497E+02 -0.41612624804E+02  0.43400730411E+02  0.00000000000E+00 0.  1.
         11    1    3    3    0    0  0.42353668187E+01  0.45563076312E+01  0.14761775899E+02  0.16018998073E+02  0.51100000000E-03 0.  1.
        -11    1    3    3    0    0  0.50839995302E+01  0.71875239117E+01  0.63137048786E+01  0.10833763001E+02  0.51100000000E-03 0. -1.
        -12    1    3    3    0    0 -0.40126254235E+01 -0.61497904598E+00  0.20537144026E+02  0.20934508515E+02  0.00000000000E+00 0.  1.
</event>
<event>
 7    1  0.4011333E-009  0.4778727E+02  0.7816164E-02  0.1312668E+00
        -11   -1    0    0    0    0  0.00000000000E+00  0.00000000000E+00  0.45593999997E+02  0.45594000000E+02  0.51100000000E-03 0.  1.
         11   -1    0    0    0    0 -0.00000000000E+00 -0.00000000000E+00 -0.45593999997E+02  0.45594000000E+02  0.51100000000E-03 0. -1.
    9900012    2    1    2    0    0 -0.28199136709E+02 -0.26169106400E+02 -0.20090039427E+02  0.47787272759E+02  0.20000007816E+02 0.  0.
        -12    1    1    2    0    0  0.28199136709E+02  0.26169106400E+02  0.20090039427E+02  0.43400727241E+02  0.00000000000E+00 0.  1.
         11    1    3    3    0    0 -0.97599480873E+01 -0.16751439580E+02 -0.86065128813E+01  0.21211774534E+02  0.51100000000E-03 0. -1.
        -11    1    3    3    0    0 -0.17606483444E+02 -0.92151326362E+01 -0.56227741518E+01  0.20652421606E+02  0.51100000000E-03 0.  1.
         12    1    3    3    0    0 -0.83270517783E+00 -0.20253418417E+00 -0.58607523936E+01  0.59230766185E+01  0.00000000000E+00 0. -1.
</event>
<event>
 7    1  0.4011333E-009  0.4778727E+02  0.7816164E-02  0.1312668E+00
        -11   -1    0    0    0    0  0.00000000000E+00  0.00000000000E+00  0.45593999997E+02  0.45594000000E+02  0.51100000000E-03 0.  1.
         11   -1    0    0    0    0 -0.00000000000E+00 -0.00000000000E+00 -0.45593999997E+02  0.45594000000E+02  0.51100000000E-03 0. -1.
    9900012    2    1    2    0    0 -0.13215242980E+02 -0.35493986395E+02 -0.21193348552E+02  0.47787265674E+02  0.19999975513E+02 0.  0.
        -12    1    1    2    0    0  0.13215242980E+02  0.35493986395E+02  0.21193348552E+02  0.43400734326E+02  0.00000000000E+00 0.  1.
         11    1    3    3    0    0 -0.12143814744E+02 -0.23890781835E+02 -0.14207291846E+02  0.30332966144E+02  0.51100000000E-03 0. -1.
        -11    1    3    3    0    0  0.90847339569E+00 -0.94154976550E+01  0.43392931857E+00  0.94691718179E+01  0.51100000000E-03 0.  1.
         12    1    3    3    0    0 -0.19799016319E+01 -0.21877069047E+01 -0.74199860245E+01  0.79851277119E+01  0.00000000000E+00 0. -1.
</event>
<event>
 7    1  0.4011333E-009  0.4778727E+02  0.7816164E-02  0.1312668E+00
        -11   -1    0    0    0    0  0.00000000000E+00  0.00000000000E+00  0.45593999997E+02  0.45594000000E+02  0.51100000000E-03 0.  1.
         11   -1    0    0    0    0 -0.00000000000E+00 -0.00000000000E+00 -0.45593999997E+02  0.45594000000E+02  0.51100000000E-03 0. -1.
    9900012    2    1    2    0    0 -0.73523443077E+01  0.18658632234E+02 -0.38489248213E+02  0.47787265540E+02  0.19999974903E+02 0.  0.
        -12    1    1    2    0    0  0.73523443077E+01 -0.18658632234E+02  0.38489248213E+02  0.43400734460E+02  0.00000000000E+00 0.  1.
         11    1    3    3    0    0 -0.85077537807E+01  0.84074964307E+01 -0.15843665870E+02  0.19851690585E+02  0.51100000000E-03 0. -1.
        -11    1    3    3    0    0 -0.21810341572E+01  0.60865832383E+01 -0.22381128377E+01  0.68419700998E+01  0.51100000000E-03 0.  1.
         12    1    3    3    0    0  0.33364436303E+01  0.41645525649E+01 -0.20407469505E+02  0.21093604855E+02  0.00000000000E+00 0. -1.
</event>
<event>
 7    1  0.4011333E-009  0.4778727E+02  0.7816164E-02  0.1312668E+00
        -11   -1    0    0    0    0  0.00000000000E+00  0.00000000000E+00  0.45593999997E+02  0.45594000000E+02  0.51100000000E-03 0.  1.
         11   -1    0    0    0    0 -0.00000000000E+00 -0.00000000000E+00 -0.45593999997E+02  0.45594000000E+02  0.51100000000E-03 0. -1.
    9900012    2    1    2    0    0  0.23632601471E+02  0.28821127726E+02 -0.22236587130E+02  0.47787273476E+02  0.20000011085E+02 0.  0.
        -12    1    1    2    0    0 -0.23632601471E+02 -0.28821127726E+02  0.22236587130E+02  0.43400726524E+02  0.00000000000E+00 0.  1.
         11    1    3    3    0    0  0.11053879047E+01  0.74159704404E+01 -0.75229612842E+01  0.10621367461E+02  0.51100000000E-03 0. -1.
        -11    1    3    3    0    0 -0.98121176155E+00 -0.43486021843E+00  0.97324156112E+00  0.14488199778E+01  0.51100000000E-03 0.  1.
         12    1    3    3    0    0  0.23508425327E+02  0.21840017504E+02 -0.15686867406E+02  0.35717086037E+02  0.00000000000E+00 0. -1.
</event>
<event>
 7    1  0.4011333E-009  0.4778727E+02  0.7816164E-02  0.1312668E+00
        -11   -1    0    0    0    0  0.00000000000E+00  0.00000000000E+00  0.45593999997E+02  0.45594000000E+02  0.51100000000E-03 0.  1.
         11   -1    0    0    0    0 -0.00000000000E+00 -0.00000000000E+00 -0.45593999997E+02  0.45594000000E+02  0.51100000000E-03 0. -1.
    9900012    2    1    2    0    0 -0.21926279249E+02 -0.11264299007E+02 -0.35720819769E+02  0.47787272832E+02  0.20000008148E+02 0.  0.
        -12    1    1    2    0    0  0.21926279249E+02  0.11264299007E+02  0.35720819769E+02  0.43400727168E+02  0.00000000000E+00 0.  1.
         11    1    3    3    0    0 -0.38813873188E+01 -0.34079169800E+01 -0.20597416847E+02  0.21235174751E+02  0.51100000000E-03 0. -1.
        -11    1    3    3    0    0 -0.21709234782E+01 -0.13697737296E+01 -0.72344027168E+01  0.76763123796E+01  0.51100000000E-03 0.  1.
        -12    1    3    3    0    0 -0.15873968452E+02 -0.64866082972E+01 -0.78890002047E+01  0.18875785701E+02  0.00000000000E+00 0.  1.
</event>
<event>
 7    1  0.4011333E-009  0.4778727E+02  0.7816164E-02  0.1312668E+00
        -11   -1    0    0    0    0  0.00000000000E+00  0.00000000000E+00  0.45593999997E+02  0.45594000000E+02  0.51100000000E-03 0.  1.
         11   -1    0    0    0    0 -0.00000000000E+00 -0.00000000000E+00 -0.45593999997E+02  0.45594000000E+02  0.51100000000E-03 0. -1.
    9900012    2    1    2    0    0  0.70514999561E+01 -0.12354125826E+02 -0.41003353877E+02  0.47787272982E+02  0.20000008834E+02 0.  0.
        -12    1    1    2    0    0 -0.70514999561E+01  0.12354125826E+02  0.41003353877E+02  0.43400727018E+02  0.00000000000E+00 0.  1.
         11    1    3    3    0    0  0.12904666899E+01  0.17229667682E+01 -0.63907703290E+01  0.67435794962E+01  0.51100000000E-03 0. -1.
        -11    1    3    3    0    0 -0.18026245683E+01 -0.22611140011E+01  0.76047551389E+00  0.29900526966E+01  0.51100000000E-03 0.  1.
         12    1    3    3    0    0  0.75636578345E+01 -0.11815978593E+02 -0.35373059062E+02  0.38053640789E+02  0.00000000000E+00 0. -1.
</event>
<event>
 7    1  0.4011333E-009  0.4778727E+02  0.7816164E-02  0.1312668E+00
        -11   -1    0    0    0    0  0.00000000000E+00  0.00000000000E+00  0.45593999997E+02  0.45594000000E+02  0.51100000000E-03 0.  1.
         11   -1    0    0    0    0 -0.00000000000E+00 -0.00000000000E+00 -0.45593999997E+02  0.45594000000E+02  0.51100000000E-03 0. -1.
    9900012    2    1    2    0    0 -0.42515281046E+02  0.12175228890E+00  0.87212014356E+01  0.47787270738E+02  0.19999998601E+02 0.  0.
        -12    1    1    2    0    0  0.42515281046E+02 -0.12175228890E+00 -0.87212014356E+01  0.43400729262E+02  0.00000000000E+00 0.  1.
         11    1    3    3    0    0 -0.23101987259E+02  0.47109511408E+01  0.13315928687E+01  0.23614995570E+02  0.51100000000E-03 0. -1.
        -11    1    3    3    0    0 -0.17105124166E+02 -0.81849951991E+00  0.91472720860E+01  0.19414628533E+02  0.51100000000E-03 0.  1.
         12    1    3    3    0    0 -0.23081696213E+01 -0.37706993320E+01 -0.17576635191E+01  0.47576466345E+01  0.00000000000E+00 0. -1.
</event>
<event>
 7    1  0.4011333E-009  0.4778727E+02  0.7816164E-02  0.1312668E+00
        -11   -1    0    0    0    0  0.00000000000E+00  0.00000000000E+00  0.45593999997E+02  0.45594000000E+02  0.51100000000E-03 0.  1.
         11   -1    0    0    0    0 -0.00000000000E+00 -0.00000000000E+00 -0.45593999997E+02  0.45594000000E+02  0.51100000000E-03 0. -1.
    9900012    2    1    2    0    0  0.17846904553E+02 -0.30418984290E+02 -0.25294201003E+02  0.47787271760E+02  0.20000003262E+02 0.  0.
        -12    1    1    2    0    0 -0.17846904553E+02  0.30418984290E+02  0.25294201003E+02  0.43400728240E+02  0.00000000000E+00 0.  1.
         11    1    3    3    0    0  0.34584603506E+00 -0.76060297463E+01 -0.33697768561E+01  0.83262653275E+01  0.51100000000E-03 0. -1.
        -11    1    3    3    0    0  0.55811899257E+01 -0.65288583569E+01 -0.16439855650E+02  0.18548437306E+02  0.51100000000E-03 0.  1.
        -12    1    3    3    0    0  0.11919868592E+02 -0.16284096187E+02 -0.54845684972E+01  0.20912569127E+02  0.00000000000E+00 0.  1.
</event>
<event>
 7    1  0.4011333E-009  0.4778727E+02  0.7816164E-02  0.1312668E+00
        -11   -1    0    0    0    0  0.00000000000E+00  0.00000000000E+00  0.45593999997E+02  0.45594000000E+02  0.51100000000E-03 0.  1.
         11   -1    0    0    0    0 -0.00000000000E+00 -0.00000000000E+00 -0.45593999997E+02  0.45594000000E+02  0.51100000000E-03 0. -1.
    9900012    2    1    2    0    0 -0.33006160095E+02 -0.23142213436E+02 -0.16082741502E+02  0.47787271652E+02  0.20000002770E+02 0.  0.
        -12    1    1    2    0    0  0.33006160095E+02  0.23142213436E+02  0.16082741502E+02  0.43400728348E+02  0.00000000000E+00 0.  1.
         11    1    3    3    0    0 -0.27097051705E+02 -0.11930635583E+02 -0.14262781765E+02  0.32863615451E+02  0.51100000000E-03 0. -1.
        -11    1    3    3    0    0 -0.49096795121E+01 -0.69829544298E+01 -0.46671756537E+01  0.97287786655E+01  0.51100000000E-03 0.  1.
        -12    1    3    3    0    0 -0.99942887716E+00 -0.42286234233E+01  0.28472159165E+01  0.51948775358E+01  0.00000000000E+00 0.  1.
</event>
<event>
 7    1  0.4011333E-009  0.4778727E+02  0.7816164E-02  0.1312668E+00
        -11   -1    0    0    0    0  0.00000000000E+00  0.00000000000E+00  0.45593999997E+02  0.45594000000E+02  0.51100000000E-03 0.  1.
         11   -1    0    0    0    0 -0.00000000000E+00 -0.00000000000E+00 -0.45593999997E+02  0.45594000000E+02  0.51100000000E-03 0. -1.
    9900012    2    1    2    0    0 -0.98658766190E+01  0.35756356989E+02 -0.22533771491E+02  0.47787269082E+02  0.19999991054E+02 0.  0.
        -12    1    1    2    0    0  0.98658766190E+01 -0.35756356989E+02  0.22533771491E+02  0.43400730918E+02  0.00000000000E+00 0.  1.
         11    1    3    3    0    0 -0.45643151978E+01  0.75553902280E+01 -0.70448561034E+01  0.11293666035E+02  0.51100000000E-03 0. -1.
        -11    1    3    3    0    0 -0.10562736270E+01 -0.19394632844E+00  0.24254228942E+01  0.26525470081E+01  0.51100000000E-03 0.  1.
        -12    1    3    3    0    0 -0.42452877942E+01  0.28394913090E+02 -0.17914338281E+02  0.33841056040E+02  0.00000000000E+00 0.  1.
</event>
<event>
 7    1  0.4011333E-009  0.4778730E+02  0.7816164E-02  0.1312668E+00
        -11   -1    0    0    0    0  0.00000000000E+00  0.00000000000E+00  0.45593999997E+02  0.45594000000E+02  0.51100000000E-03 0.  1.
         11   -1    0    0    0    0 -0.00000000000E+00 -0.00000000000E+00 -0.45593999997E+02  0.45594000000E+02  0.51100000000E-03 0. -1.
    9900012    2    1    2    0    0 -0.18238941900E+02  0.70207098770E+01 -0.38751405120E+02  0.47787299919E+02  0.20000131648E+02 0.  0.
        -12    1    1    2    0    0  0.18238941900E+02 -0.70207098770E+01  0.38751405120E+02  0.43400700081E+02  0.00000000000E+00 0.  1.
         11    1    3    3    0    0 -0.34618443953E+01  0.40590353244E+01 -0.44343312851E+01  0.69371052024E+01  0.51100000000E-03 0. -1.
        -11    1    3    3    0    0  0.13777680021E+01 -0.37495999738E+01 -0.30644778851E+01  0.50347561609E+01  0.51100000000E-03 0.  1.
         12    1    3    3    0    0 -0.16154865507E+02  0.67112745264E+01 -0.31252595949E+02  0.35815438555E+02  0.00000000000E+00 0. -1.
</event>
<event>
 7    1  0.4011333E-009  0.4778727E+02  0.7816164E-02  0.1312668E+00
        -11   -1    0    0    0    0  0.00000000000E+00  0.00000000000E+00  0.45593999997E+02  0.45594000000E+02  0.51100000000E-03 0.  1.
         11   -1    0    0    0    0 -0.00000000000E+00 -0.00000000000E+00 -0.45593999997E+02  0.45594000000E+02  0.51100000000E-03 0. -1.
    9900012    2    1    2    0    0 -0.80301259516E+01  0.38594945096E+02 -0.18154079295E+02  0.47787270689E+02  0.19999998377E+02 0.  0.
        -12    1    1    2    0    0  0.80301259516E+01 -0.38594945096E+02  0.18154079295E+02  0.43400729311E+02  0.00000000000E+00 0.  1.
         11    1    3    3    0    0 -0.12809757771E+02  0.17281334150E+02 -0.71978666288E+01  0.22683555463E+02  0.51100000000E-03 0.  1.
        -11    1    3    3    0    0  0.59732187972E+00  0.29284437294E+01  0.51601919705E+00  0.30329609587E+01  0.51100000000E-03 0. -1.
         12    1    3    3    0    0  0.41823099401E+01  0.18385167216E+02 -0.11472231863E+02  0.22070754267E+02  0.00000000000E+00 0. -1.
</event>
<event>
 7    1  0.4011333E-009  0.4778728E+02  0.7816164E-02  0.1312668E+00
        -11   -1    0    0    0    0  0.00000000000E+00  0.00000000000E+00  0.45593999997E+02  0.45594000000E+02  0.51100000000E-03 0.  1.
         11   -1    0    0    0    0 -0.00000000000E+00 -0.00000000000E+00 -0.45593999997E+02  0.45594000000E+02  0.51100000000E-03 0. -1.
    9900012    2    1    2    0    0  0.17889136063E+02 -0.30867134887E+02 -0.24714795277E+02  0.47787282139E+02  0.20000050587E+02 0.  0.
        -12    1    1    2    0    0 -0.17889136063E+02  0.30867134887E+02  0.24714795277E+02  0.43400717861E+02  0.00000000000E+00 0.  1.
         11    1    3    3    0    0  0.95328664782E+01 -0.60996444984E+01 -0.10494491614E+01  0.11365850171E+02  0.51100000000E-03 0. -1.
        -11    1    3    3    0    0  0.54558322037E+01 -0.50888851903E+01 -0.91010582093E+01  0.11768267430E+02  0.51100000000E-03 0.  1.
         12    1    3    3    0    0  0.29004373812E+01 -0.19678605199E+02 -0.14564287906E+02  0.24653164539E+02  0.00000000000E+00 0. -1.
</event>
<event>
 7    1  0.4011333E-009  0.4778726E+02  0.7816164E-02  0.1312668E+00
        -11   -1    0    0    0    0  0.00000000000E+00  0.00000000000E+00  0.45593999997E+02  0.45594000000E+02  0.51100000000E-03 0.  1.
         11   -1    0    0    0    0 -0.00000000000E+00 -0.00000000000E+00 -0.45593999997E+02  0.45594000000E+02  0.51100000000E-03 0. -1.
    9900012    2    1    2    0    0 -0.23444163129E+02 -0.26492773486E+02 -0.25142158676E+02  0.47787262971E+02  0.19999963190E+02 0.  0.
        -12    1    1    2    0    0  0.23444163129E+02  0.26492773486E+02  0.25142158676E+02  0.43400737029E+02  0.00000000000E+00 0.  1.
         11    1    3    3    0    0 -0.40176650975E+01 -0.82698334643E+01 -0.83721052680E+01  0.12434786900E+02  0.51100000000E-03 0. -1.
        -11    1    3    3    0    0 -0.16663819661E+02 -0.21255768331E+02 -0.14248809008E+02  0.30537176220E+02  0.51100000000E-03 0.  1.
        -12    1    3    3    0    0 -0.27626783704E+01  0.30328283102E+01 -0.25212443999E+01  0.48152998517E+01  0.00000000000E+00 0.  1.
</event>
<event>
 7    1  0.4011333E-009  0.4778727E+02  0.7816164E-02  0.1312668E+00
        -11   -1    0    0    0    0  0.00000000000E+00  0.00000000000E+00  0.45593999997E+02  0.45594000000E+02  0.51100000000E-03 0. -1.
         11   -1    0    0    0    0 -0.00000000000E+00 -0.00000000000E+00 -0.45593999997E+02  0.45594000000E+02  0.51100000000E-03 0.  1.
    9900012    2    1    2    0    0 -0.31901815295E+02 -0.25418992228E+02  0.14824719409E+02  0.47787270852E+02  0.19999999123E+02 0.  0.
        -12    1    1    2    0    0  0.31901815295E+02  0.25418992228E+02 -0.14824719409E+02  0.43400729148E+02  0.00000000000E+00 0.  1.
         11    1    3    3    0    0 -0.63831429935E+01 -0.50500831559E+01  0.10769308759E+02  0.13499106110E+02  0.51100000000E-03 0. -1.
        -11    1    3    3    0    0 -0.30752316464E+00 -0.55482066970E-02  0.17736170940E+01  0.18000886469E+01  0.51100000000E-03 0.  1.
        -12    1    3    3    0    0 -0.25211149137E+02 -0.20363360866E+02  0.22817935558E+01  0.32488076095E+02  0.00000000000E+00 0.  1.
</event>
<event>
 7    1  0.4011333E-009  0.4778726E+02  0.7816164E-02  0.1312668E+00
        -11   -1    0    0    0    0  0.00000000000E+00  0.00000000000E+00  0.45593999997E+02  0.45594000000E+02  0.51100000000E-03 0. -1.
         11   -1    0    0    0    0 -0.00000000000E+00 -0.00000000000E+00 -0.45593999997E+02  0.45594000000E+02  0.51100000000E-03 0.  1.
    9900012    2    1    2    0    0 -0.32293030248E+02  0.28996200784E+02  0.71118586191E-01  0.47787256684E+02  0.19999934527E+02 0.  0.
        -12    1    1    2    0    0  0.32293030248E+02 -0.28996200784E+02 -0.71118586191E-01  0.43400743316E+02  0.00000000000E+00 0.  1.
         11    1    3    3    0    0 -0.74680262107E+00 -0.15613070321E+01 -0.95469345354E+00  0.19765711863E+01  0.51100000000E-03 0. -1.
        -11    1    3    3    0    0  0.85289254428E+00  0.14731464658E+01  0.15011159567E+01  0.22695672668E+01  0.51100000000E-03 0.  1.
         12    1    3    3    0    0 -0.32399120171E+02  0.29084361350E+02 -0.47530391697E+00  0.43541118231E+02  0.00000000000E+00 0. -1.
</event>
<event>
 7    1  0.4011333E-009  0.4778727E+02  0.7816164E-02  0.1312668E+00
        -11   -1    0    0    0    0  0.00000000000E+00  0.00000000000E+00  0.45593999997E+02  0.45594000000E+02  0.51100000000E-03 0. -1.
         11   -1    0    0    0    0 -0.00000000000E+00 -0.00000000000E+00 -0.45593999997E+02  0.45594000000E+02  0.51100000000E-03 0.  1.
    9900012    2    1    2    0    0  0.65565012633E+01  0.14973578755E+02  0.40204816319E+02  0.47787273914E+02  0.20000013082E+02 0.  0.
        -12    1    1    2    0    0 -0.65565012633E+01 -0.14973578755E+02 -0.40204816319E+02  0.43400726086E+02  0.00000000000E+00 0.  1.
         11    1    3    3    0    0 -0.35822586307E+01  0.54483176361E+01  0.13679235377E+02  0.15153818751E+02  0.51100000000E-03 0. -1.
        -11    1    3    3    0    0  0.11765483577E+02  0.76448093730E+01  0.13846307419E+02  0.19712684839E+02  0.51100000000E-03 0.  1.
         12    1    3    3    0    0 -0.16267236826E+01  0.18804517462E+01  0.12679273522E+02  0.12920770324E+02  0.00000000000E+00 0. -1.
</event>
<event>
 7    1  0.4011333E-009  0.4778725E+02  0.7816164E-02  0.1312668E+00
        -11   -1    0    0    0    0  0.00000000000E+00  0.00000000000E+00  0.45593999997E+02  0.45594000000E+02  0.51100000000E-03 0. -1.
         11   -1    0    0    0    0 -0.00000000000E+00 -0.00000000000E+00 -0.45593999997E+02  0.45594000000E+02  0.51100000000E-03 0.  1.
    9900012    2    1    2    0    0  0.31655625310E+02  0.33956043224E+01  0.29496042347E+02  0.47787248203E+02  0.19999895854E+02 0.  0.
        -12    1    1    2    0    0 -0.31655625310E+02 -0.33956043224E+01 -0.29496042347E+02  0.43400751797E+02  0.00000000000E+00 0.  1.
         11    1    3    3    0    0  0.21596795386E+02  0.56729820510E+01  0.12620876592E+02  0.25649382498E+02  0.51100000000E-03 0.  1.
        -11    1    3    3    0    0  0.10870342503E+02 -0.77694582739E+00  0.91599319379E+01  0.14236303745E+02  0.51100000000E-03 0. -1.
        -12    1    3    3    0    0 -0.81151257946E+00 -0.15004319013E+01  0.77152338168E+01  0.79015619598E+01  0.00000000000E+00 0.  1.
</event>
<event>
 7    1  0.4011333E-009  0.4778727E+02  0.7816164E-02  0.1312668E+00
        -11   -1    0    0    0    0  0.00000000000E+00  0.00000000000E+00  0.45593999997E+02  0.45594000000E+02  0.51100000000E-03 0. -1.
         11   -1    0    0    0    0 -0.00000000000E+00 -0.00000000000E+00 -0.45593999997E+02  0.45594000000E+02  0.51100000000E-03 0.  1.
    9900012    2    1    2    0    0 -0.15542373329E+02  0.38682761466E+02  0.12070700425E+02  0.47787271756E+02  0.20000003245E+02 0.  0.
        -12    1    1    2    0    0  0.15542373329E+02 -0.38682761466E+02 -0.12070700425E+02  0.43400728244E+02  0.00000000000E+00 0.  1.
         11    1    3    3    0    0  0.12537339054E+01  0.17512491338E+01  0.20679201387E+01  0.29858024374E+01  0.51100000000E-03 0. -1.
        -11    1    3    3    0    0 -0.71771226375E+01  0.23143138917E+02  0.13342211291E+02  0.27660993667E+02  0.51100000000E-03 0.  1.
         12    1    3    3    0    0 -0.96189845970E+01  0.13788373416E+02 -0.33394310042E+01  0.17140475651E+02  0.00000000000E+00 0. -1.
</event>
<event>
 7    1  0.4011333E-009  0.4778726E+02  0.7816164E-02  0.1312668E+00
        -11   -1    0    0    0    0  0.00000000000E+00  0.00000000000E+00  0.45593999997E+02  0.45594000000E+02  0.51100000000E-03 0.  1.
         11   -1    0    0    0    0 -0.00000000000E+00 -0.00000000000E+00 -0.45593999997E+02  0.45594000000E+02  0.51100000000E-03 0. -1.
    9900012    2    1    2    0    0  0.23895624347E+02 -0.34305910142E+02 -0.11650238103E+02  0.47787258284E+02  0.19999941821E+02 0.  0.
        -12    1    1    2    0    0 -0.23895624347E+02  0.34305910142E+02  0.11650238103E+02  0.43400741716E+02  0.00000000000E+00 0.  1.
         11    1    3    3    0    0  0.19087416730E+01 -0.36079555254E+01 -0.43319698957E+01  0.59520249736E+01  0.51100000000E-03 0. -1.
        -11    1    3    3    0    0  0.14081267192E+02 -0.25537213052E+02 -0.11706699699E+02  0.31424165133E+02  0.51100000000E-03 0.  1.
        -12    1    3    3    0    0  0.79056154822E+01 -0.51607415644E+01  0.43884314914E+01  0.10411068178E+02  0.00000000000E+00 0.  1.
</event>
<event>
 7    1  0.4011333E-009  0.4778727E+02  0.7816164E-02  0.1312668E+00
        -11   -1    0    0    0    0  0.00000000000E+00  0.00000000000E+00  0.45593999997E+02  0.45594000000E+02  0.51100000000E-03 0.  1.
         11   -1    0    0    0    0 -0.00000000000E+00 -0.00000000000E+00 -0.45593999997E+02  0.45594000000E+02  0.51100000000E-03 0. -1.
    9900012    2    1    2    0    0  0.21876236248E+02  0.36298170185E+02  0.93539490247E+01  0.47787271509E+02  0.20000002119E+02 0.  0.
        -12    1    1    2    0    0 -0.21876236248E+02 -0.36298170185E+02 -0.93539490247E+01  0.43400728491E+02  0.00000000000E+00 0.  1.
         11    1    3    3    0    0 -0.17806661794E+01  0.12507274851E+02  0.60176473509E+01  0.13993383298E+02  0.51100000000E-03 0. -1.
        -11    1    3    3    0    0  0.35352490612E+01  0.26193304728E+01  0.37405236182E-01  0.44000315298E+01  0.51100000000E-03 0.  1.
         12    1    3    3    0    0  0.20121653367E+02  0.21171564862E+02  0.32988964376E+01  0.29393856681E+02  0.00000000000E+00 0. -1.
</event>
<event>
 7    1  0.4011333E-009  0.4778726E+02  0.7816164E-02  0.1312668E+00
        -11   -1    0    0    0    0  0.00000000000E+00  0.00000000000E+00  0.45593999997E+02  0.45594000000E+02  0.51100000000E-03 0. -1.
         11   -1    0    0    0    0 -0.00000000000E+00 -0.00000000000E+00 -0.45593999997E+02  0.45594000000E+02  0.51100000000E-03 0.  1.
    9900012    2    1    2    0    0 -0.32782432609E+02  0.28430008931E+02 -0.81889121494E+00  0.47787264081E+02  0.19999968249E+02 0.  0.
        -12    1    1    2    0    0  0.32782432609E+02 -0.28430008931E+02  0.81889121494E+00  0.43400735919E+02  0.00000000000E+00 0.  1.
         11    1    3    3    0    0 -0.77285638102E+01  0.10988208964E+02 -0.42615356500E+01  0.14093690828E+02  0.51100000000E-03 0.  1.
        -11    1    3    3    0    0 -0.18151688275E+02  0.18844600874E+02  0.45688252235E+01  0.26560815754E+02  0.51100000000E-03 0. -1.
        -12    1    3    3    0    0 -0.69021805237E+01 -0.14028009074E+01 -0.11261807884E+01  0.71327574987E+01  0.00000000000E+00 0.  1.
</event>
<event>
 7    1  0.4011333E-009  0.4778728E+02  0.7816164E-02  0.1312668E+00
        -11   -1    0    0    0    0  0.00000000000E+00  0.00000000000E+00  0.45593999997E+02  0.45594000000E+02  0.51100000000E-03 0. -1.
         11   -1    0    0    0    0 -0.00000000000E+00 -0.00000000000E+00 -0.45593999997E+02  0.45594000000E+02  0.51100000000E-03 0.  1.
    9900012    2    1    2    0    0  0.77942243416E+01 -0.35549858285E+02  0.23644880116E+02  0.47787277507E+02  0.20000029465E+02 0.  0.
        -12    1    1    2    0    0 -0.77942243416E+01  0.35549858285E+02 -0.23644880116E+02  0.43400722493E+02  0.00000000000E+00 0.  1.
         11    1    3    3    0    0 -0.29904161237E+01 -0.28086692216E+01  0.68374550291E+00  0.41591729422E+01  0.51100000000E-03 0. -1.
        -11    1    3    3    0    0 -0.18545938231E+01 -0.16065481253E+02  0.98877770000E+01  0.18955403990E+02  0.51100000000E-03 0.  1.
        -12    1    3    3    0    0  0.12639234288E+02 -0.16675707811E+02  0.13073357614E+02  0.24672700575E+02  0.00000000000E+00 0.  1.
</event>
<event>
 7    1  0.4011333E-009  0.4778727E+02  0.7816164E-02  0.1312668E+00
        -11   -1    0    0    0    0  0.00000000000E+00  0.00000000000E+00  0.45593999997E+02  0.45594000000E+02  0.51100000000E-03 0.  1.
         11   -1    0    0    0    0 -0.00000000000E+00 -0.00000000000E+00 -0.45593999997E+02  0.45594000000E+02  0.51100000000E-03 0. -1.
    9900012    2    1    2    0    0  0.35961958812E+02 -0.24119414380E+02 -0.29350410546E+01  0.47787273075E+02  0.20000009257E+02 0.  0.
        -12    1    1    2    0    0 -0.35961958812E+02  0.24119414380E+02  0.29350410546E+01  0.43400726925E+02  0.00000000000E+00 0.  1.
         11    1    3    3    0    0  0.16072869970E+02 -0.11608436076E+02 -0.81930140993E+01  0.21452701869E+02  0.51100000000E-03 0. -1.
        -11    1    3    3    0    0 -0.72715560549E+00 -0.84882418419E+00 -0.13415840638E+01  0.17461689012E+01  0.51100000000E-03 0.  1.
        -12    1    3    3    0    0  0.20616244448E+02 -0.11662154120E+02  0.65995571085E+01  0.24588402304E+02  0.00000000000E+00 0.  1.
</event>
<event>
 7    1  0.4011333E-009  0.4778727E+02  0.7816164E-02  0.1312668E+00
        -11   -1    0    0    0    0  0.00000000000E+00  0.00000000000E+00  0.45593999997E+02  0.45594000000E+02  0.51100000000E-03 0.  1.
         11   -1    0    0    0    0 -0.00000000000E+00 -0.00000000000E+00 -0.45593999997E+02  0.45594000000E+02  0.51100000000E-03 0. -1.
    9900012    2    1    2    0    0 -0.23780674731E+02 -0.18273401099E+02 -0.31371737587E+02  0.47787267314E+02  0.19999982993E+02 0.  0.
        -12    1    1    2    0    0  0.23780674731E+02  0.18273401099E+02  0.31371737587E+02  0.43400732686E+02  0.00000000000E+00 0.  1.
         11    1    3    3    0    0 -0.79365074616E+01 -0.88799690793E+01 -0.47969758361E+01  0.12839508517E+02  0.51100000000E-03 0. -1.
        -11    1    3    3    0    0 -0.73671759100E+00  0.45549084549E+00  0.14103430427E+01  0.16550808072E+01  0.51100000000E-03 0.  1.
        -12    1    3    3    0    0 -0.15107449678E+02 -0.98489228654E+01 -0.27985104794E+02  0.33292677990E+02  0.00000000000E+00 0.  1.
</event>
<event>
 7    1  0.4011333E-009  0.4778727E+02  0.7816164E-02  0.1312668E+00
        -11   -1    0    0    0    0  0.00000000000E+00  0.00000000000E+00  0.45593999997E+02  0.45594000000E+02  0.51100000000E-03 0. -1.
         11   -1    0    0    0    0 -0.00000000000E+00 -0.00000000000E+00 -0.45593999997E+02  0.45594000000E+02  0.51100000000E-03 0.  1.
    9900012    2    1    2    0    0 -0.11383956026E+02 -0.35138373465E+02 -0.22788677698E+02  0.47787267566E+02  0.19999984140E+02 0.  0.
        -12    1    1    2    0    0  0.11383956026E+02  0.35138373465E+02  0.22788677698E+02  0.43400732434E+02  0.00000000000E+00 0.  1.
         11    1    3    3    0    0 -0.23454280791E+01 -0.22811877699E+02 -0.16114353918E+02  0.28027757660E+02  0.51100000000E-03 0. -1.
        -11    1    3    3    0    0 -0.71040494482E+01 -0.12064546904E+02 -0.90603576023E+01  0.16676657060E+02  0.51100000000E-03 0.  1.
         12    1    3    3    0    0 -0.19344784987E+01 -0.26194886296E+00  0.23860338219E+01  0.30828528457E+01  0.00000000000E+00 0. -1.
</event>
<event>
 7    1  0.4011333E-009  0.4778727E+02  0.7816164E-02  0.1312668E+00
        -11   -1    0    0    0    0  0.00000000000E+00  0.00000000000E+00  0.45593999997E+02  0.45594000000E+02  0.51100000000E-03 0. -1.
         11   -1    0    0    0    0 -0.00000000000E+00 -0.00000000000E+00 -0.45593999997E+02  0.45594000000E+02  0.51100000000E-03 0.  1.
    9900012    2    1    2    0    0 -0.23739049640E+02  0.13791984076E+02  0.33613421027E+02  0.47787269871E+02  0.19999994650E+02 0.  0.
        -12    1    1    2    0    0  0.23739049640E+02 -0.13791984076E+02 -0.33613421027E+02  0.43400730129E+02  0.00000000000E+00 0.  1.
         11    1    3    3    0    0  0.47837787399E+00  0.23413719270E+01  0.58785305709E+01  0.63457064087E+01  0.51100000000E-03 0. -1.
        -11    1    3    3    0    0 -0.15703826766E+01  0.61149100058E+01  0.11338116099E+02  0.12977330352E+02  0.51100000000E-03 0.  1.
         12    1    3    3    0    0 -0.22647044838E+02  0.53357021433E+01  0.16396774358E+02  0.28464233110E+02  0.00000000000E+00 0. -1.
</event>
<event>
 7    1  0.4011333E-009  0.4778727E+02  0.7816164E-02  0.1312668E+00
        -11   -1    0    0    0    0  0.00000000000E+00  0.00000000000E+00  0.45593999997E+02  0.45594000000E+02  0.51100000000E-03 0.  1.
         11   -1    0    0    0    0 -0.00000000000E+00 -0.00000000000E+00 -0.45593999997E+02  0.45594000000E+02  0.51100000000E-03 0. -1.
    9900012    2    1    2    0    0 -0.40703842096E+02 -0.97525174807E+01 -0.11476453987E+02  0.47787270113E+02  0.19999995753E+02 0.  0.
        -12    1    1    2    0    0  0.40703842096E+02  0.97525174807E+01  0.11476453987E+02  0.43400729887E+02  0.00000000000E+00 0.  1.
         11    1    3    3    0    0 -0.13748991331E+02 -0.50752933506E+01 -0.17323924287E+01  0.14757863972E+02  0.51100000000E-03 0. -1.
        -11    1    3    3    0    0  0.17689940690E+01 -0.10613765368E+01  0.80830379278E+00  0.22156749427E+01  0.51100000000E-03 0.  1.
        -12    1    3    3    0    0 -0.28723844834E+02 -0.36158475933E+01 -0.10552365351E+02  0.30813731198E+02  0.00000000000E+00 0.  1.
</event>
<event>
 7    1  0.4011333E-009  0.4778727E+02  0.7816164E-02  0.1312668E+00
        -11   -1    0    0    0    0  0.00000000000E+00  0.00000000000E+00  0.45593999997E+02  0.45594000000E+02  0.51100000000E-03 0. -1.
         11   -1    0    0    0    0 -0.00000000000E+00 -0.00000000000E+00 -0.45593999997E+02  0.45594000000E+02  0.51100000000E-03 0.  1.
    9900012    2    1    2    0    0  0.34099797744E+02 -0.72362735149E+01  0.25854657929E+02  0.47787271928E+02  0.20000004028E+02 0.  0.
        -12    1    1    2    0    0 -0.34099797744E+02  0.72362735149E+01 -0.25854657929E+02  0.43400728072E+02  0.00000000000E+00 0.  1.
         11    1    3    3    0    0  0.33502078113E+02 -0.27806886010E+01  0.19476428898E+02  0.38851676282E+02  0.51100000000E-03 0. -1.
        -11    1    3    3    0    0 -0.41926634686E+00  0.32849649375E+00 -0.33530146680E+00  0.62938187992E+00  0.51100000000E-03 0.  1.
         12    1    3    3    0    0  0.10169859776E+01 -0.47840814076E+01  0.67135304974E+01  0.83062137664E+01  0.00000000000E+00 0. -1.
</event>
<event>
 7    1  0.4011333E-009  0.4778728E+02  0.7816164E-02  0.1312668E+00
        -11   -1    0    0    0    0  0.00000000000E+00  0.00000000000E+00  0.45593999997E+02  0.45594000000E+02  0.51100000000E-03 0. -1.
         11   -1    0    0    0    0 -0.00000000000E+00 -0.00000000000E+00 -0.45593999997E+02  0.45594000000E+02  0.51100000000E-03 0.  1.
    9900012    2    1    2    0    0  0.78437745071E+01  0.30798178968E+02  0.29556213967E+02  0.47787280993E+02  0.20000045359E+02 0.  0.
        -12    1    1    2    0    0 -0.78437745071E+01 -0.30798178968E+02 -0.29556213967E+02  0.43400719007E+02  0.00000000000E+00 0.  1.
         11    1    3    3    0    0  0.42548231964E+01  0.44594598642E+01 -0.15051274554E+01  0.63447388939E+01  0.51100000000E-03 0.  1.
        -11    1    3    3    0    0  0.11996667697E+01  0.13898106529E+01  0.48079822876E+01  0.51465977061E+01  0.51100000000E-03 0. -1.
        -12    1    3    3    0    0  0.23892845410E+01  0.24948908451E+02  0.26253359135E+02  0.36295944393E+02  0.00000000000E+00 0.  1.
</event>
<event>
 7    1  0.4011333E-009  0.4778728E+02  0.7816164E-02  0.1312668E+00
        -11   -1    0    0    0    0  0.00000000000E+00  0.00000000000E+00  0.45593999997E+02  0.45594000000E+02  0.51100000000E-03 0. -1.
         11   -1    0    0    0    0 -0.00000000000E+00 -0.00000000000E+00 -0.45593999997E+02  0.45594000000E+02  0.51100000000E-03 0.  1.
    9900012    2    1    2    0    0  0.66373906003E+01 -0.32001476465E+02  0.28556489101E+02  0.47787279733E+02  0.20000039616E+02 0.  0.
        -12    1    1    2    0    0 -0.66373906003E+01  0.32001476465E+02 -0.28556489101E+02  0.43400720267E+02  0.00000000000E+00 0.  1.
         11    1    3    3    0    0  0.62156110145E+01 -0.11160702429E+02  0.18775261017E+02  0.22709150700E+02  0.51100000000E-03 0. -1.
        -11    1    3    3    0    0  0.10547391641E+01 -0.65364471923E+01  0.83965994514E+01  0.10693011700E+02  0.51100000000E-03 0.  1.
        -12    1    3    3    0    0 -0.63295957829E+00 -0.14304326843E+02  0.13846286326E+01  0.14385117334E+02  0.00000000000E+00 0.  1.
</event>
<event>
 7    1  0.4011333E-009  0.4778727E+02  0.7816164E-02  0.1312668E+00
        -11   -1    0    0    0    0  0.00000000000E+00  0.00000000000E+00  0.45593999997E+02  0.45594000000E+02  0.51100000000E-03 0.  1.
         11   -1    0    0    0    0 -0.00000000000E+00 -0.00000000000E+00 -0.45593999997E+02  0.45594000000E+02  0.51100000000E-03 0. -1.
    9900012    2    1    2    0    0 -0.23094253033E+02  0.36698697325E+02 -0.18667171499E+01  0.47787267962E+02  0.19999985947E+02 0.  0.
        -12    1    1    2    0    0  0.23094253033E+02 -0.36698697325E+02  0.18667171499E+01  0.43400732038E+02  0.00000000000E+00 0.  1.
         11    1    3    3    0    0 -0.80003227032E+01  0.34585592881E+01 -0.22212022640E+01  0.89944724950E+01  0.51100000000E-03 0. -1.
        -11    1    3    3    0    0 -0.18964506245E+01  0.25398210610E+00  0.25600844869E+01  0.31961014881E+01  0.51100000000E-03 0.  1.
         12    1    3    3    0    0 -0.13197479705E+02  0.32986155931E+02 -0.22055993728E+01  0.35596693979E+02  0.00000000000E+00 0. -1.
</event>
<event>
 7    1  0.4011333E-009  0.4778727E+02  0.7816164E-02  0.1312668E+00
        -11   -1    0    0    0    0  0.00000000000E+00  0.00000000000E+00  0.45593999997E+02  0.45594000000E+02  0.51100000000E-03 0.  1.
         11   -1    0    0    0    0 -0.00000000000E+00 -0.00000000000E+00 -0.45593999997E+02  0.45594000000E+02  0.51100000000E-03 0. -1.
    9900012    2    1    2    0    0  0.23504063866E+02 -0.36421195283E+02  0.21631350498E+01  0.47787266857E+02  0.19999980910E+02 0.  0.
        -12    1    1    2    0    0 -0.23504063866E+02  0.36421195283E+02 -0.21631350498E+01  0.43400733143E+02  0.00000000000E+00 0.  1.
         11    1    3    3    0    0  0.53347699316E+01 -0.22176745377E+02  0.64364917066E+01  0.23700131465E+02  0.51100000000E-03 0.  1.
        -11    1    3    3    0    0  0.23183894672E+01 -0.31347618363E+01  0.99997451374E+00  0.40251224554E+01  0.51100000000E-03 0. -1.
        -12    1    3    3    0    0  0.15850904467E+02 -0.11109688071E+02 -0.52733311704E+01  0.20062012937E+02  0.00000000000E+00 0.  1.
</event>
<event>
 7    1  0.4011333E-009  0.4778727E+02  0.7816164E-02  0.1312668E+00
        -11   -1    0    0    0    0  0.00000000000E+00  0.00000000000E+00  0.45593999997E+02  0.45594000000E+02  0.51100000000E-03 0.  1.
         11   -1    0    0    0    0 -0.00000000000E+00 -0.00000000000E+00 -0.45593999997E+02  0.45594000000E+02  0.51100000000E-03 0. -1.
    9900012    2    1    2    0    0 -0.21711168889E+02  0.37576579422E+02  0.49906208985E+00  0.47787271452E+02  0.20000001857E+02 0.  0.
        -12    1    1    2    0    0  0.21711168889E+02 -0.37576579422E+02 -0.49906208985E+00  0.43400728548E+02  0.00000000000E+00 0.  1.
         11    1    3    3    0    0 -0.15270783612E+01 -0.21728703338E+01 -0.73087869944E+00  0.27545449248E+01  0.51100000000E-03 0. -1.
        -11    1    3    3    0    0 -0.11692359861E+01  0.71091903894E+01 -0.46520213971E+00  0.72197031847E+01  0.51100000000E-03 0.  1.
         12    1    3    3    0    0 -0.19014854541E+02  0.32640259366E+02  0.16951429290E+01  0.37813023342E+02  0.00000000000E+00 0. -1.
</event>
<event>
 7    1  0.4011333E-009  0.4778728E+02  0.7816164E-02  0.1312668E+00
        -11   -1    0    0    0    0  0.00000000000E+00  0.00000000000E+00  0.45593999997E+02  0.45594000000E+02  0.51100000000E-03 0. -1.
         11   -1    0    0    0    0 -0.00000000000E+00 -0.00000000000E+00 -0.45593999997E+02  0.45594000000E+02  0.51100000000E-03 0.  1.
    9900012    2    1    2    0    0 -0.81646350716E+01  0.30778180333E+02  0.29490081084E+02  0.47787279582E+02  0.20000038927E+02 0.  0.
        -12    1    1    2    0    0  0.81646350716E+01 -0.30778180333E+02 -0.29490081084E+02  0.43400720418E+02  0.00000000000E+00 0.  1.
         11    1    3    3    0    0  0.37920313651E+01  0.77785741916E+01  0.47139352430E+01  0.98542835388E+01  0.51100000000E-03 0. -1.
        -11    1    3    3    0    0 -0.47509496113E+01  0.45992217634E+01  0.50074467416E+00  0.66313730500E+01  0.51100000000E-03 0.  1.
        -12    1    3    3    0    0 -0.72057168254E+01  0.18400384378E+02  0.24275401167E+02  0.31301622993E+02  0.00000000000E+00 0.  1.
</event>
<event>
 7    1  0.4011333E-009  0.4778728E+02  0.7816164E-02  0.1312668E+00
        -11   -1    0    0    0    0  0.00000000000E+00  0.00000000000E+00  0.45593999997E+02  0.45594000000E+02  0.51100000000E-03 0.  1.
         11   -1    0    0    0    0 -0.00000000000E+00 -0.00000000000E+00 -0.45593999997E+02  0.45594000000E+02  0.51100000000E-03 0. -1.
    9900012    2    1    2    0    0  0.25686864977E+02 -0.31776215800E+02 -0.14631450524E+02  0.47787282640E+02  0.20000052868E+02 0.  0.
        -12    1    1    2    0    0 -0.25686864977E+02  0.31776215800E+02  0.14631450524E+02  0.43400717360E+02  0.00000000000E+00 0.  1.
         11    1    3    3    0    0  0.12895988720E+02 -0.13722748600E+02 -0.90198694669E+01  0.20880095778E+02  0.51100000000E-03 0. -1.
        -11    1    3    3    0    0 -0.24275219682E+01 -0.16749897639E+01 -0.33073088023E+01  0.44313367498E+01  0.51100000000E-03 0.  1.
        -12    1    3    3    0    0  0.15218398225E+02 -0.16378477436E+02 -0.23042722547E+01  0.22475850113E+02  0.00000000000E+00 0.  1.
</event>
<event>
 7    1  0.4011333E-009  0.4778728E+02  0.7816164E-02  0.1312668E+00
        -11   -1    0    0    0    0  0.00000000000E+00  0.00000000000E+00  0.45593999997E+02  0.45594000000E+02  0.51100000000E-03 0. -1.
         11   -1    0    0    0    0 -0.00000000000E+00 -0.00000000000E+00 -0.45593999997E+02  0.45594000000E+02  0.51100000000E-03 0.  1.
    9900012    2    1    2    0    0 -0.48212291013E+01 -0.22068998489E+02  0.37058571996E+02  0.47787277624E+02  0.20000029998E+02 0.  0.
        -12    1    1    2    0    0  0.48212291013E+01  0.22068998489E+02 -0.37058571996E+02  0.43400722376E+02  0.00000000000E+00 0.  1.
         11    1    3    3    0    0  0.39535611988E+01 -0.24639359196E+01  0.11021753937E+02  0.11965813240E+02  0.51100000000E-03 0.  1.
        -11    1    3    3    0    0 -0.76043212050E+01 -0.18995544965E+02  0.27217531132E+02  0.34050703821E+02  0.51100000000E-03 0. -1.
         12    1    3    3    0    0 -0.11704690952E+01 -0.60951760405E+00 -0.11807130729E+01  0.17707605634E+01  0.00000000000E+00 0. -1.
</event>
<event>
 7    1  0.4011333E-009  0.4778725E+02  0.7816164E-02  0.1312668E+00
        -11   -1    0    0    0    0  0.00000000000E+00  0.00000000000E+00  0.45593999997E+02  0.45594000000E+02  0.51100000000E-03 0.  1.
         11   -1    0    0    0    0 -0.00000000000E+00 -0.00000000000E+00 -0.45593999997E+02  0.45594000000E+02  0.51100000000E-03 0. -1.
    9900012    2    1    2    0    0  0.16196877289E+02 -0.38653376222E+02  0.11278429872E+02  0.47787247614E+02  0.19999893172E+02 0.  0.
        -12    1    1    2    0    0 -0.16196877289E+02  0.38653376222E+02 -0.11278429872E+02  0.43400752386E+02  0.00000000000E+00 0.  1.
         11    1    3    3    0    0  0.10969283523E+01 -0.52104950811E+01 -0.47790490951E+01  0.71548460022E+01  0.51100000000E-03 0. -1.
        -11    1    3    3    0    0  0.46255443596E+01 -0.69423271373E+01  0.99615264753E+00  0.84014217286E+01  0.51100000000E-03 0.  1.
        -12    1    3    3    0    0  0.10474404577E+02 -0.26500554004E+02  0.15061326319E+02  0.32230979883E+02  0.00000000000E+00 0.  1.
</event>
<event>
 7    1  0.4011333E-009  0.4778727E+02  0.7816164E-02  0.1312668E+00
        -11   -1    0    0    0    0  0.00000000000E+00  0.00000000000E+00  0.45593999997E+02  0.45594000000E+02  0.51100000000E-03 0.  1.
         11   -1    0    0    0    0 -0.00000000000E+00 -0.00000000000E+00 -0.45593999997E+02  0.45594000000E+02  0.51100000000E-03 0. -1.
    9900012    2    1    2    0    0  0.30524249996E+02  0.11136476011E+01 -0.30832666353E+02  0.47787270015E+02  0.19999995306E+02 0.  0.
        -12    1    1    2    0    0 -0.30524249996E+02 -0.11136476011E+01  0.30832666353E+02  0.43400729985E+02  0.00000000000E+00 0.  1.
         11    1    3    3    0    0  0.50489641918E+01  0.11196679336E+01 -0.32421149068E+01  0.61038516546E+01  0.51100000000E-03 0.  1.
        -11    1    3    3    0    0  0.90072623100E+01  0.76767187191E+01 -0.54191818058E+01  0.13016540106E+02  0.51100000000E-03 0. -1.
         12    1    3    3    0    0  0.16468023495E+02 -0.76827390516E+01 -0.22171369640E+02  0.28666878255E+02  0.00000000000E+00 0. -1.
</event>
<event>
 7    1  0.4011333E-009  0.4778728E+02  0.7816164E-02  0.1312668E+00
        -11   -1    0    0    0    0  0.00000000000E+00  0.00000000000E+00  0.45593999997E+02  0.45594000000E+02  0.51100000000E-03 0.  1.
         11   -1    0    0    0    0 -0.00000000000E+00 -0.00000000000E+00 -0.45593999997E+02  0.45594000000E+02  0.51100000000E-03 0. -1.
    9900012    2    1    2    0    0 -0.22273400754E+01 -0.22303349732E+02 -0.37164795518E+02  0.47787280202E+02  0.20000041751E+02 0.  0.
        -12    1    1    2    0    0  0.22273400754E+01  0.22303349732E+02  0.37164795518E+02  0.43400719798E+02  0.00000000000E+00 0.  1.
         11    1    3    3    0    0 -0.74026886216E+01 -0.13179589688E+02 -0.16911521623E+02  0.22682613321E+02  0.51100000000E-03 0. -1.
        -11    1    3    3    0    0 -0.31058117737E+01 -0.19198709543E+01 -0.70118616895E+01  0.79055787814E+01  0.51100000000E-03 0.  1.
        -12    1    3    3    0    0  0.82811603199E+01 -0.72038890894E+01 -0.13241412206E+02  0.17199088100E+02  0.00000000000E+00 0.  1.
</event>
<event>
 7    1  0.4011333E-009  0.4778728E+02  0.7816164E-02  0.1312668E+00
        -11   -1    0    0    0    0  0.00000000000E+00  0.00000000000E+00  0.45593999997E+02  0.45594000000E+02  0.51100000000E-03 0.  1.
         11   -1    0    0    0    0 -0.00000000000E+00 -0.00000000000E+00 -0.45593999997E+02  0.45594000000E+02  0.51100000000E-03 0. -1.
    9900012    2    1    2    0    0 -0.31364239386E+02 -0.36463312530E+01 -0.29776025030E+02  0.47787275231E+02  0.20000019088E+02 0.  0.
        -12    1    1    2    0    0  0.31364239386E+02  0.36463312530E+01  0.29776025030E+02  0.43400724769E+02  0.00000000000E+00 0.  1.
         11    1    3    3    0    0 -0.44534495076E+01 -0.18448132712E+01 -0.10829887376E+02  0.11854240143E+02  0.51100000000E-03 0. -1.
        -11    1    3    3    0    0 -0.21450821173E+02  0.38082603344E+00 -0.20684462061E+02  0.29801505474E+02  0.51100000000E-03 0.  1.
        -12    1    3    3    0    0 -0.54599687054E+01 -0.21823440152E+01  0.17383244075E+01  0.61315296142E+01  0.00000000000E+00 0.  1.
</event>
<event>
 7    1  0.4011333E-009  0.4778728E+02  0.7816164E-02  0.1312668E+00
        -11   -1    0    0    0    0  0.00000000000E+00  0.00000000000E+00  0.45593999997E+02  0.45594000000E+02  0.51100000000E-03 0. -1.
         11   -1    0    0    0    0 -0.00000000000E+00 -0.00000000000E+00 -0.45593999997E+02  0.45594000000E+02  0.51100000000E-03 0.  1.
    9900012    2    1    2    0    0 -0.27542908020E+02  0.69219114590E+01  0.32819168949E+02  0.47787280065E+02  0.20000041127E+02 0.  0.
        -12    1    1    2    0    0  0.27542908020E+02 -0.69219114590E+01 -0.32819168949E+02  0.43400719935E+02  0.00000000000E+00 0.  1.
         11    1    3    3    0    0 -0.74559779765E+01  0.77375754106E+01  0.10246001942E+02  0.14847297292E+02  0.51100000000E-03 0. -1.
        -11    1    3    3    0    0 -0.40150037443E+01  0.20081021022E+01 -0.67175133344E+00  0.45391606310E+01  0.51100000000E-03 0.  1.
         12    1    3    3    0    0 -0.16071926299E+02 -0.28237660538E+01  0.23244918340E+02  0.28400822141E+02  0.00000000000E+00 0. -1.
</event>
<event>
 7    1  0.4011333E-009  0.4778727E+02  0.7816164E-02  0.1312668E+00
        -11   -1    0    0    0    0  0.00000000000E+00  0.00000000000E+00  0.45593999997E+02  0.45594000000E+02  0.51100000000E-03 0.  1.
         11   -1    0    0    0    0 -0.00000000000E+00 -0.00000000000E+00 -0.45593999997E+02  0.45594000000E+02  0.51100000000E-03 0. -1.
    9900012    2    1    2    0    0 -0.26142416454E+02  0.12021292929E+02 -0.32491321842E+02  0.47787269399E+02  0.19999992496E+02 0.  0.
        -12    1    1    2    0    0  0.26142416454E+02 -0.12021292929E+02  0.32491321842E+02  0.43400730601E+02  0.00000000000E+00 0.  1.
         11    1    3    3    0    0 -0.77927029049E+01  0.98244261809E+01 -0.21209250014E+02  0.24638949953E+02  0.51100000000E-03 0. -1.
        -11    1    3    3    0    0 -0.19196527604E+01  0.32015214535E+01 -0.24838350450E+01  0.44837755441E+01  0.51100000000E-03 0.  1.
        -12    1    3    3    0    0 -0.16430060788E+02 -0.10046547056E+01 -0.87982367824E+01  0.18664543902E+02  0.00000000000E+00 0.  1.
</event>
<event>
 7    1  0.4011333E-009  0.4778727E+02  0.7816164E-02  0.1312668E+00
        -11   -1    0    0    0    0  0.00000000000E+00  0.00000000000E+00  0.45593999997E+02  0.45594000000E+02  0.51100000000E-03 0.  1.
         11   -1    0    0    0    0 -0.00000000000E+00 -0.00000000000E+00 -0.45593999997E+02  0.45594000000E+02  0.51100000000E-03 0. -1.
    9900012    2    1    2    0    0  0.38408148214E+02  0.79324709404E+01 -0.18587994065E+02  0.47787268810E+02  0.19999989814E+02 0.  0.
        -12    1    1    2    0    0 -0.38408148214E+02 -0.79324709404E+01  0.18587994065E+02  0.43400731190E+02  0.00000000000E+00 0.  1.
         11    1    3    3    0    0  0.14212575764E+02 -0.15880769920E+01 -0.11898657867E+02  0.18603692044E+02  0.51100000000E-03 0. -1.
        -11    1    3    3    0    0  0.22321350671E+02  0.49269768312E+01 -0.31172991362E+01  0.23070226497E+02  0.51100000000E-03 0.  1.
        -12    1    3    3    0    0  0.18742217788E+01  0.45935711012E+01 -0.35720370623E+01  0.61133502691E+01  0.00000000000E+00 0.  1.
</event>
<event>
 7    1  0.4011333E-009  0.4778727E+02  0.7816164E-02  0.1312668E+00
        -11   -1    0    0    0    0  0.00000000000E+00  0.00000000000E+00  0.45593999997E+02  0.45594000000E+02  0.51100000000E-03 0.  1.
         11   -1    0    0    0    0 -0.00000000000E+00 -0.00000000000E+00 -0.45593999997E+02  0.45594000000E+02  0.51100000000E-03 0. -1.
    9900012    2    1    2    0    0 -0.29179826134E+02  0.21572528384E+02 -0.23807285893E+02  0.47787273098E+02  0.20000009361E+02 0.  0.
        -12    1    1    2    0    0  0.29179826134E+02 -0.21572528384E+02  0.23807285893E+02  0.43400726902E+02  0.00000000000E+00 0.  1.
         11    1    3    3    0    0 -0.76166614709E+01  0.33669211952E+01 -0.12706757719E+02  0.15192477819E+02  0.51100000000E-03 0. -1.
        -11    1    3    3    0    0 -0.34450634157E+01 -0.15396682536E+01 -0.63986561575E+00  0.38273317777E+01  0.51100000000E-03 0.  1.
        -12    1    3    3    0    0 -0.18118101247E+02  0.19745275443E+02 -0.10460662558E+02  0.28767463500E+02  0.00000000000E+00 0.  1.
</event>
<event>
 7    1  0.4011333E-009  0.4778727E+02  0.7816164E-02  0.1312668E+00
        -11   -1    0    0    0    0  0.00000000000E+00  0.00000000000E+00  0.45593999997E+02  0.45594000000E+02  0.51100000000E-03 0. -1.
         11   -1    0    0    0    0 -0.00000000000E+00 -0.00000000000E+00 -0.45593999997E+02  0.45594000000E+02  0.51100000000E-03 0.  1.
    9900012    2    1    2    0    0  0.29330029531E+02  0.25756316706E+02  0.18973262997E+02  0.47787271996E+02  0.20000004337E+02 0.  0.
        -12    1    1    2    0    0 -0.29330029531E+02 -0.25756316706E+02 -0.18973262997E+02  0.43400728004E+02  0.00000000000E+00 0.  1.
         11    1    3    3    0    0 -0.96491757775E+00  0.80118660954E+01  0.59001679806E+01  0.99966517756E+01  0.51100000000E-03 0. -1.
        -11    1    3    3    0    0  0.62503284321E+01  0.32570769291E+01  0.60342754824E+00  0.70738448314E+01  0.51100000000E-03 0.  1.
         12    1    3    3    0    0  0.24044618677E+02  0.14487373681E+02  0.12469667468E+02  0.30716775389E+02  0.00000000000E+00 0. -1.
</event>
<event>
 7    1  0.4011333E-009  0.4778727E+02  0.7816164E-02  0.1312668E+00
        -11   -1    0    0    0    0  0.00000000000E+00  0.00000000000E+00  0.45593999997E+02  0.45594000000E+02  0.51100000000E-03 0.  1.
         11   -1    0    0    0    0 -0.00000000000E+00 -0.00000000000E+00 -0.45593999997E+02  0.45594000000E+02  0.51100000000E-03 0. -1.
    9900012    2    1    2    0    0  0.27685821941E+02 -0.28848032723E+02 -0.16879261939E+02  0.47787271756E+02  0.20000003243E+02 0.  0.
        -12    1    1    2    0    0 -0.27685821941E+02  0.28848032723E+02  0.16879261939E+02  0.43400728244E+02  0.00000000000E+00 0.  1.
         11    1    3    3    0    0 -0.17350544755E+01 -0.20978488331E+00 -0.12865620410E+00  0.17524201581E+01  0.51100000000E-03 0.  1.
        -11    1    3    3    0    0  0.94589572393E+01 -0.22932709624E+01 -0.25608755245E+01  0.10064245996E+02  0.51100000000E-03 0. -1.
         12    1    3    3    0    0  0.19961919177E+02 -0.26344976877E+02 -0.14189730210E+02  0.35970605601E+02  0.00000000000E+00 0. -1.
</event>
<event>
 7    1  0.4011333E-009  0.4778722E+02  0.7816164E-02  0.1312668E+00
        -11   -1    0    0    0    0  0.00000000000E+00  0.00000000000E+00  0.45593999997E+02  0.45594000000E+02  0.51100000000E-03 0.  1.
         11   -1    0    0    0    0 -0.00000000000E+00 -0.00000000000E+00 -0.45593999997E+02  0.45594000000E+02  0.51100000000E-03 0. -1.
    9900012    2    1    2    0    0 -0.36690027311E+02 -0.19097478305E+02 -0.13143658072E+02  0.47787222021E+02  0.19999776482E+02 0.  0.
        -12    1    1    2    0    0  0.36690027311E+02  0.19097478305E+02  0.13143658072E+02  0.43400777979E+02  0.00000000000E+00 0.  1.
         11    1    3    3    0    0  0.15572377172E+01 -0.78442991200E+00 -0.19075238920E+01  0.25843697983E+01  0.51100000000E-03 0. -1.
        -11    1    3    3    0    0 -0.54258889918E+00  0.99767760765E+00  0.50629709063E+00  0.12434228273E+01  0.51100000000E-03 0.  1.
         12    1    3    3    0    0 -0.37704676129E+02 -0.19310726001E+02 -0.11742431270E+02  0.43959429396E+02  0.00000000000E+00 0. -1.
</event>
<event>
 7    1  0.4011333E-009  0.4778727E+02  0.7816164E-02  0.1312668E+00
        -11   -1    0    0    0    0  0.00000000000E+00  0.00000000000E+00  0.45593999997E+02  0.45594000000E+02  0.51100000000E-03 0.  1.
         11   -1    0    0    0    0 -0.00000000000E+00 -0.00000000000E+00 -0.45593999997E+02  0.45594000000E+02  0.51100000000E-03 0. -1.
    9900012    2    1    2    0    0 -0.68960909349E+01  0.89062727229E+01 -0.41913547824E+02  0.47787271259E+02  0.20000000980E+02 0.  0.
        -12    1    1    2    0    0  0.68960909349E+01 -0.89062727229E+01  0.41913547824E+02  0.43400728741E+02  0.00000000000E+00 0.  1.
         11    1    3    3    0    0 -0.42803199469E+01 -0.10635812302E+01 -0.30621104227E+01  0.53692517526E+01  0.51100000000E-03 0.  1.
        -11    1    3    3    0    0 -0.16953380415E+01 -0.89515613541E+00 -0.23555648356E+02  0.23633536454E+02  0.51100000000E-03 0. -1.
         12    1    3    3    0    0 -0.92043294656E+00  0.10865010089E+02 -0.15295789045E+02  0.18784483053E+02  0.00000000000E+00 0. -1.
</event>
<event>
 7    1  0.4011333E-009  0.4778727E+02  0.7816164E-02  0.1312668E+00
        -11   -1    0    0    0    0  0.00000000000E+00  0.00000000000E+00  0.45593999997E+02  0.45594000000E+02  0.51100000000E-03 0. -1.
         11   -1    0    0    0    0 -0.00000000000E+00 -0.00000000000E+00 -0.45593999997E+02  0.45594000000E+02  0.51100000000E-03 0.  1.
    9900012    2    1    2    0    0  0.38653702864E+02 -0.49288020911E+01 -0.19110763360E+02  0.47787272917E+02  0.20000008536E+02 0.  0.
        -12    1    1    2    0    0 -0.38653702864E+02  0.49288020911E+01  0.19110763360E+02  0.43400727083E+02  0.00000000000E+00 0.  1.
         11    1    3    3    0    0  0.19095706249E+02  0.15293403035E+00 -0.45105584985E+01  0.19621786977E+02  0.51100000000E-03 0. -1.
        -11    1    3    3    0    0  0.99167904569E+01 -0.60423122932E+01 -0.12638953411E+01  0.11681168713E+02  0.51100000000E-03 0.  1.
        -12    1    3    3    0    0  0.96412061588E+01  0.96057617183E+00 -0.13336309521E+02  0.16484317226E+02  0.00000000000E+00 0.  1.
</event>
<event>
 7    1  0.4011333E-009  0.4778727E+02  0.7816164E-02  0.1312668E+00
        -11   -1    0    0    0    0  0.00000000000E+00  0.00000000000E+00  0.45593999997E+02  0.45594000000E+02  0.51100000000E-03 0. -1.
         11   -1    0    0    0    0 -0.00000000000E+00 -0.00000000000E+00 -0.45593999997E+02  0.45594000000E+02  0.51100000000E-03 0.  1.
    9900012    2    1    2    0    0 -0.97500578735E+01 -0.17526739801E+02  0.38488609387E+02  0.47787270868E+02  0.19999999197E+02 0.  0.
        -12    1    1    2    0    0  0.97500578735E+01  0.17526739801E+02 -0.38488609387E+02  0.43400729132E+02  0.00000000000E+00 0.  1.
         11    1    3    3    0    0 -0.58861153174E+01 -0.37543726811E+01  0.74729894039E+01  0.10226790242E+02  0.51100000000E-03 0. -1.
        -11    1    3    3    0    0 -0.82825033704E+01 -0.81020928514E+01  0.98500592263E+01  0.15207479662E+02  0.51100000000E-03 0.  1.
         12    1    3    3    0    0  0.44185608144E+01 -0.56702742683E+01  0.21165560757E+02  0.22353000964E+02  0.00000000000E+00 0. -1.
</event>
<event>
 7    1  0.4011333E-009  0.4778727E+02  0.7816164E-02  0.1312668E+00
        -11   -1    0    0    0    0  0.00000000000E+00  0.00000000000E+00  0.45593999997E+02  0.45594000000E+02  0.51100000000E-03 0.  1.
         11   -1    0    0    0    0 -0.00000000000E+00 -0.00000000000E+00 -0.45593999997E+02  0.45594000000E+02  0.51100000000E-03 0. -1.
    9900012    2    1    2    0    0  0.55053825868E+01  0.21138071476E+02 -0.37503280420E+02  0.47787270220E+02  0.19999996243E+02 0.  0.
        -12    1    1    2    0    0 -0.55053825868E+01 -0.21138071476E+02  0.37503280420E+02  0.43400729780E+02  0.00000000000E+00 0.  1.
         11    1    3    3    0    0 -0.69383844771E+00  0.65857825667E+01 -0.85253330557E+01  0.10795149271E+02  0.51100000000E-03 0. -1.
        -11    1    3    3    0    0  0.10006621667E+02  0.80196722628E+01 -0.25758488007E+02  0.28774073835E+02  0.51100000000E-03 0.  1.
        -12    1    3    3    0    0 -0.38074006325E+01  0.65326166469E+01 -0.32194593573E+01  0.82180471151E+01  0.00000000000E+00 0.  1.
</event>
<event>
 7    1  0.4011333E-009  0.4778727E+02  0.7816164E-02  0.1312668E+00
        -11   -1    0    0    0    0  0.00000000000E+00  0.00000000000E+00  0.45593999997E+02  0.45594000000E+02  0.51100000000E-03 0.  1.
         11   -1    0    0    0    0 -0.00000000000E+00 -0.00000000000E+00 -0.45593999997E+02  0.45594000000E+02  0.51100000000E-03 0. -1.
    9900012    2    1    2    0    0 -0.22201008624E+02  0.43192961519E+01 -0.37041630881E+02  0.47787268191E+02  0.19999986992E+02 0.  0.
        -12    1    1    2    0    0  0.22201008624E+02 -0.43192961519E+01  0.37041630881E+02  0.43400731809E+02  0.00000000000E+00 0.  1.
         11    1    3    3    0    0 -0.17292428862E+01  0.17666600711E+01  0.14455631265E+01  0.28637426176E+01  0.51100000000E-03 0. -1.
        -11    1    3    3    0    0  0.54411680541E+00  0.12156152774E+01 -0.38016584143E+00  0.13850306598E+01  0.51100000000E-03 0.  1.
         12    1    3    3    0    0 -0.21015882543E+02  0.13370208034E+01 -0.38107028166E+02  0.43538494914E+02  0.00000000000E+00 0. -1.
</event>
<event>
 7    1  0.4011333E-009  0.4778727E+02  0.7816164E-02  0.1312668E+00
        -11   -1    0    0    0    0  0.00000000000E+00  0.00000000000E+00  0.45593999997E+02  0.45594000000E+02  0.51100000000E-03 0.  1.
         11   -1    0    0    0    0 -0.00000000000E+00 -0.00000000000E+00 -0.45593999997E+02  0.45594000000E+02  0.51100000000E-03 0. -1.
    9900012    2    1    2    0    0  0.29151783640E+02 -0.28847212745E+02 -0.14199829943E+02  0.47787270249E+02  0.19999996372E+02 0.  0.
        -12    1    1    2    0    0 -0.29151783640E+02  0.28847212745E+02  0.14199829943E+02  0.43400729751E+02  0.00000000000E+00 0.  1.
         11    1    3    3    0    0 -0.22170211458E+00 -0.28730991422E+00 -0.35862881660E+01  0.36046028748E+01  0.51100000000E-03 0.  1.
        -11    1    3    3    0    0  0.11910470256E+02 -0.36998261321E+01 -0.39202272137E+01  0.13073492142E+02  0.51100000000E-03 0. -1.
        -12    1    3    3    0    0  0.17463015498E+02 -0.24860076699E+02 -0.66933145631E+01  0.31109175232E+02  0.00000000000E+00 0.  1.
</event>
<event>
 7    1  0.4011333E-009  0.4778727E+02  0.7816164E-02  0.1312668E+00
        -11   -1    0    0    0    0  0.00000000000E+00  0.00000000000E+00  0.45593999997E+02  0.45594000000E+02  0.51100000000E-03 0.  1.
         11   -1    0    0    0    0 -0.00000000000E+00 -0.00000000000E+00 -0.45593999997E+02  0.45594000000E+02  0.51100000000E-03 0. -1.
    9900012    2    1    2    0    0 -0.33799499539E+01  0.31899789687E+02 -0.29233586585E+02  0.47787271569E+02  0.20000002390E+02 0.  0.
        -12    1    1    2    0    0  0.33799499539E+01 -0.31899789687E+02  0.29233586585E+02  0.43400728431E+02  0.00000000000E+00 0.  1.
         11    1    3    3    0    0  0.45754297750E+01  0.90899727543E+01 -0.12226025183E+02  0.15907163617E+02  0.51100000000E-03 0. -1.
        -11    1    3    3    0    0  0.16596736488E+01  0.42220878353E+01 -0.77857758421E+01  0.90110403413E+01  0.51100000000E-03 0.  1.
         12    1    3    3    0    0 -0.96150533777E+01  0.18587729097E+02 -0.92217855601E+01  0.22869067610E+02  0.00000000000E+00 0. -1.
</event>
<event>
 7    1  0.4011333E-009  0.4778727E+02  0.7816164E-02  0.1312668E+00
        -11   -1    0    0    0    0  0.00000000000E+00  0.00000000000E+00  0.45593999997E+02  0.45594000000E+02  0.51100000000E-03 0.  1.
         11   -1    0    0    0    0 -0.00000000000E+00 -0.00000000000E+00 -0.45593999997E+02  0.45594000000E+02  0.51100000000E-03 0. -1.
    9900012    2    1    2    0    0 -0.17526783097E+02  0.28173526296E+02 -0.27976555529E+02  0.47787269949E+02  0.19999995005E+02 0.  0.
        -12    1    1    2    0    0  0.17526783097E+02 -0.28173526296E+02  0.27976555529E+02  0.43400730051E+02  0.00000000000E+00 0.  1.
         11    1    3    3    0    0 -0.21812367306E+01  0.89951851909E+01  0.80217228872E+00  0.92905667715E+01  0.51100000000E-03 0.  1.
        -11    1    3    3    0    0 -0.64277458779E+01  0.58036916151E+01 -0.56865063834E+01  0.10360265853E+02  0.51100000000E-03 0. -1.
        -12    1    3    3    0    0 -0.89178004881E+01  0.13374649490E+02 -0.23092221435E+02  0.28136437325E+02  0.00000000000E+00 0.  1.
</event>
<event>
 7    1  0.4011333E-009  0.4778725E+02  0.7816164E-02  0.1312668E+00
        -11   -1    0    0    0    0  0.00000000000E+00  0.00000000000E+00  0.45593999997E+02  0.45594000000E+02  0.51100000000E-03 0. -1.
         11   -1    0    0    0    0 -0.00000000000E+00 -0.00000000000E+00 -0.45593999997E+02  0.45594000000E+02  0.51100000000E-03 0.  1.
    9900012    2    1    2    0    0  0.30147441064E+02 -0.24517173806E+02 -0.19330413472E+02  0.47787252321E+02  0.19999914631E+02 0.  0.
        -12    1    1    2    0    0 -0.30147441064E+02  0.24517173806E+02  0.19330413472E+02  0.43400747679E+02  0.00000000000E+00 0.  1.
         11    1    3    3    0    0  0.45116472694E+01 -0.12762227870E+01 -0.83988286126E+01  0.96189411065E+01  0.51100000000E-03 0.  1.
        -11    1    3    3    0    0  0.99135917862E+01 -0.12514876942E+02 -0.10541568730E+02  0.19131809076E+02  0.51100000000E-03 0. -1.
         12    1    3    3    0    0  0.15722202008E+02 -0.10726074076E+02 -0.39001613025E+00  0.19036502138E+02  0.00000000000E+00 0. -1.
</event>
<event>
 7    1  0.4011333E-009  0.4778727E+02  0.7816164E-02  0.1312668E+00
        -11   -1    0    0    0    0  0.00000000000E+00  0.00000000000E+00  0.45593999997E+02  0.45594000000E+02  0.51100000000E-03 0.  1.
         11   -1    0    0    0    0 -0.00000000000E+00 -0.00000000000E+00 -0.45593999997E+02  0.45594000000E+02  0.51100000000E-03 0. -1.
    9900012    2    1    2    0    0  0.35722831623E+01  0.31615013463E+02 -0.29518694810E+02  0.47787266982E+02  0.19999981477E+02 0.  0.
        -12    1    1    2    0    0 -0.35722831623E+01 -0.31615013463E+02  0.29518694810E+02  0.43400733018E+02  0.00000000000E+00 0.  1.
         11    1    3    3    0    0 -0.31526961189E+01  0.33249903672E+01  0.90981608555E+00  0.46714900547E+01  0.51100000000E-03 0. -1.
        -11    1    3    3    0    0 -0.48501459141E+00  0.36090327089E+01 -0.87734974134E+01  0.94991901429E+01  0.51100000000E-03 0.  1.
         12    1    3    3    0    0  0.72099938727E+01  0.24680990387E+02 -0.21655013482E+02  0.33616586784E+02  0.00000000000E+00 0. -1.
</event>
<event>
 7    1  0.4011333E-009  0.4778727E+02  0.7816164E-02  0.1312668E+00
        -11   -1    0    0    0    0  0.00000000000E+00  0.00000000000E+00  0.45593999997E+02  0.45594000000E+02  0.51100000000E-03 0. -1.
         11   -1    0    0    0    0 -0.00000000000E+00 -0.00000000000E+00 -0.45593999997E+02  0.45594000000E+02  0.51100000000E-03 0.  1.
    9900012    2    1    2    0    0 -0.93224766310E+01 -0.23691359927E+02  0.35148748111E+02  0.47787267293E+02  0.19999982897E+02 0.  0.
        -12    1    1    2    0    0  0.93224766310E+01  0.23691359927E+02 -0.35148748111E+02  0.43400732707E+02  0.00000000000E+00 0.  1.
         11    1    3    3    0    0 -0.63741539204E+01 -0.54487069492E+01  0.51527523637E+01  0.98422102600E+01  0.51100000000E-03 0. -1.
        -11    1    3    3    0    0 -0.20238414441E+01 -0.18453142720E+02  0.17821316254E+02  0.25733513629E+02  0.51100000000E-03 0.  1.
         12    1    3    3    0    0 -0.92448126650E+00  0.21048974209E+00  0.12174679493E+02  0.12211543404E+02  0.00000000000E+00 0. -1.
</event>
<event>
 7    1  0.4011333E-009  0.4778727E+02  0.7816164E-02  0.1312668E+00
        -11   -1    0    0    0    0  0.00000000000E+00  0.00000000000E+00  0.45593999997E+02  0.45594000000E+02  0.51100000000E-03 0. -1.
         11   -1    0    0    0    0 -0.00000000000E+00 -0.00000000000E+00 -0.45593999997E+02  0.45594000000E+02  0.51100000000E-03 0.  1.
    9900012    2    1    2    0    0  0.20675487625E+02  0.22669750213E+02  0.30695765577E+02  0.47787269734E+02  0.19999994025E+02 0.  0.
        -12    1    1    2    0    0 -0.20675487625E+02 -0.22669750213E+02 -0.30695765577E+02  0.43400730266E+02  0.00000000000E+00 0.  1.
         11    1    3    3    0    0  0.42755004910E+01  0.87281848885E+01  0.18716585151E+01  0.98976876974E+01  0.51100000000E-03 0. -1.
        -11    1    3    3    0    0  0.47048088616E+01  0.19308839693E+00  0.11462893614E+01  0.48462861156E+01  0.51100000000E-03 0.  1.
         12    1    3    3    0    0  0.11695178273E+02  0.13748476928E+02  0.27677817700E+02  0.33043295921E+02  0.00000000000E+00 0. -1.
</event>
<event>
 7    1  0.4011333E-009  0.4778727E+02  0.7816164E-02  0.1312668E+00
        -11   -1    0    0    0    0  0.00000000000E+00  0.00000000000E+00  0.45593999997E+02  0.45594000000E+02  0.51100000000E-03 0.  1.
         11   -1    0    0    0    0 -0.00000000000E+00 -0.00000000000E+00 -0.45593999997E+02  0.45594000000E+02  0.51100000000E-03 0. -1.
    9900012    2    1    2    0    0  0.10972001121E+02  0.38733295136E+02 -0.16216361173E+02  0.47787270394E+02  0.19999997033E+02 0.  0.
        -12    1    1    2    0    0 -0.10972001121E+02 -0.38733295136E+02  0.16216361173E+02  0.43400729606E+02  0.00000000000E+00 0.  1.
         11    1    3    3    0    0  0.11352645371E+02  0.23396311029E+02 -0.10571456496E+02  0.28071794018E+02  0.51100000000E-03 0. -1.
        -11    1    3    3    0    0  0.47629182146E+01  0.10838675591E+02 -0.21219325012E+01  0.12027671275E+02  0.51100000000E-03 0.  1.
        -12    1    3    3    0    0 -0.51435624640E+01  0.44983085160E+01 -0.35229721760E+01  0.76878051015E+01  0.00000000000E+00 0.  1.
</event>
<event>
 7    1  0.4011333E-009  0.4778727E+02  0.7816164E-02  0.1312668E+00
        -11   -1    0    0    0    0  0.00000000000E+00  0.00000000000E+00  0.45593999997E+02  0.45594000000E+02  0.51100000000E-03 0.  1.
         11   -1    0    0    0    0 -0.00000000000E+00 -0.00000000000E+00 -0.45593999997E+02  0.45594000000E+02  0.51100000000E-03 0. -1.
    9900012    2    1    2    0    0  0.12885763556E+02  0.32590965860E+02 -0.25600964788E+02  0.47787270096E+02  0.19999995678E+02 0.  0.
        -12    1    1    2    0    0 -0.12885763556E+02 -0.32590965860E+02  0.25600964788E+02  0.43400729904E+02  0.00000000000E+00 0.  1.
         11    1    3    3    0    0  0.58414576943E+01  0.17281143829E+02 -0.14650875356E+02  0.23396767063E+02  0.51100000000E-03 0. -1.
        -11    1    3    3    0    0 -0.31837936250E+01  0.95008700786E+01 -0.54344010307E+01  0.11398938061E+02  0.51100000000E-03 0.  1.
        -12    1    3    3    0    0  0.10228099487E+02  0.58089519520E+01 -0.55156884007E+01  0.12991564972E+02  0.00000000000E+00 0.  1.
</event>
<event>
 7    1  0.4011333E-009  0.4778727E+02  0.7816164E-02  0.1312668E+00
        -11   -1    0    0    0    0  0.00000000000E+00  0.00000000000E+00  0.45593999997E+02  0.45594000000E+02  0.51100000000E-03 0.  1.
         11   -1    0    0    0    0 -0.00000000000E+00 -0.00000000000E+00 -0.45593999997E+02  0.45594000000E+02  0.51100000000E-03 0. -1.
    9900012    2    1    2    0    0  0.11556399049E+01 -0.38217017316E+02 -0.20536488262E+02  0.47787271132E+02  0.20000000400E+02 0.  0.
        -12    1    1    2    0    0 -0.11556399049E+01  0.38217017316E+02  0.20536488262E+02  0.43400728868E+02  0.00000000000E+00 0.  1.
         11    1    3    3    0    0  0.33214506770E+01 -0.95772281561E+01 -0.24456224292E+01  0.10427674865E+02  0.51100000000E-03 0.  1.
        -11    1    3    3    0    0  0.25711212217E+01 -0.25931278015E+02 -0.10692983292E+02  0.28167032783E+02  0.51100000000E-03 0. -1.
        -12    1    3    3    0    0 -0.47369319937E+01 -0.27085111444E+01 -0.73978825407E+01  0.91925634846E+01  0.00000000000E+00 0.  1.
</event>
<event>
 7    1  0.4011333E-009  0.4778727E+02  0.7816164E-02  0.1312668E+00
        -11   -1    0    0    0    0  0.00000000000E+00  0.00000000000E+00  0.45593999997E+02  0.45594000000E+02  0.51100000000E-03 0.  1.
         11   -1    0    0    0    0 -0.00000000000E+00 -0.00000000000E+00 -0.45593999997E+02  0.45594000000E+02  0.51100000000E-03 0. -1.
    9900012    2    1    2    0    0 -0.35991065211E+02 -0.16433803729E+01 -0.24198466322E+02  0.47787271361E+02  0.20000001444E+02 0.  0.
        -12    1    1    2    0    0  0.35991065211E+02  0.16433803729E+01  0.24198466322E+02  0.43400728639E+02  0.00000000000E+00 0.  1.
         11    1    3    3    0    0 -0.21087012556E+02 -0.26120702482E+01 -0.18766083730E+02  0.28348737332E+02  0.51100000000E-03 0. -1.
        -11    1    3    3    0    0 -0.54760533628E+01 -0.47677835365E+01 -0.40563761290E+01  0.83170372035E+01  0.51100000000E-03 0.  1.
        -12    1    3    3    0    0 -0.94279992919E+01  0.57364734118E+01 -0.13760064630E+01  0.11121496825E+02  0.00000000000E+00 0.  1.
</event>
<event>
 7    1  0.4011333E-009  0.4778728E+02  0.7816164E-02  0.1312668E+00
        -11   -1    0    0    0    0  0.00000000000E+00  0.00000000000E+00  0.45593999997E+02  0.45594000000E+02  0.51100000000E-03 0. -1.
         11   -1    0    0    0    0 -0.00000000000E+00 -0.00000000000E+00 -0.45593999997E+02  0.45594000000E+02  0.51100000000E-03 0.  1.
    9900012    2    1    2    0    0  0.36309115299E+02  0.11415250760E+02  0.20855762301E+02  0.47787278521E+02  0.20000034091E+02 0.  0.
        -12    1    1    2    0    0 -0.36309115299E+02 -0.11415250760E+02 -0.20855762301E+02  0.43400721479E+02  0.00000000000E+00 0.  1.
         11    1    3    3    0    0  0.19911937836E+02  0.10249519825E+02  0.34660709498E+01  0.22661676309E+02  0.51100000000E-03 0. -1.
        -11    1    3    3    0    0  0.40223936933E+01  0.36276772915E+01  0.64802210481E+01  0.84458841247E+01  0.51100000000E-03 0.  1.
         12    1    3    3    0    0  0.12374783770E+02 -0.24619463567E+01  0.10909470303E+02  0.16679718088E+02  0.00000000000E+00 0. -1.
</event>
<event>
 7    1  0.4011333E-009  0.4778727E+02  0.7816164E-02  0.1312668E+00
        -11   -1    0    0    0    0  0.00000000000E+00  0.00000000000E+00  0.45593999997E+02  0.45594000000E+02  0.51100000000E-03 0.  1.
         11   -1    0    0    0    0 -0.00000000000E+00 -0.00000000000E+00 -0.45593999997E+02  0.45594000000E+02  0.51100000000E-03 0. -1.
    9900012    2    1    2    0    0  0.21722137017E+02  0.11573107358E+02 -0.35746820677E+02  0.47787271446E+02  0.20000001829E+02 0.  0.
        -12    1    1    2    0    0 -0.21722137017E+02 -0.11573107358E+02  0.35746820677E+02  0.43400728554E+02  0.00000000000E+00 0.  1.
         11    1    3    3    0    0  0.45016068652E+01  0.36100846032E+01 -0.29817244066E+01  0.64952179263E+01  0.51100000000E-03 0. -1.
        -11    1    3    3    0    0  0.52508384577E+01 -0.51078051170E+01 -0.11128806934E+02  0.13323337482E+02  0.51100000000E-03 0.  1.
         12    1    3    3    0    0  0.11969691694E+02  0.13070827872E+02 -0.21636289337E+02  0.27968716037E+02  0.00000000000E+00 0. -1.
</event>
<event>
 7    1  0.4011333E-009  0.4778727E+02  0.7816164E-02  0.1312668E+00
        -11   -1    0    0    0    0  0.00000000000E+00  0.00000000000E+00  0.45593999997E+02  0.45594000000E+02  0.51100000000E-03 0.  1.
         11   -1    0    0    0    0 -0.00000000000E+00 -0.00000000000E+00 -0.45593999997E+02  0.45594000000E+02  0.51100000000E-03 0. -1.
    9900012    2    1    2    0    0 -0.40694381426E+02 -0.14932467993E+02 -0.21475231233E+01  0.47787272638E+02  0.20000007264E+02 0.  0.
        -12    1    1    2    0    0  0.40694381426E+02  0.14932467993E+02  0.21475231233E+01  0.43400727362E+02  0.00000000000E+00 0.  1.
         11    1    3    3    0    0 -0.63270971180E+01 -0.16197195041E+01 -0.16672137951E+01  0.67405675809E+01  0.51100000000E-03 0. -1.
        -11    1    3    3    0    0 -0.35372573294E+02 -0.13207685623E+02  0.25581884767E+01  0.37844500650E+02  0.51100000000E-03 0.  1.
        -12    1    3    3    0    0  0.10052889857E+01 -0.10506286615E+00 -0.30384978049E+01  0.32022044065E+01  0.00000000000E+00 0.  1.
</event>
<event>
 7    1  0.4011333E-009  0.4778727E+02  0.7816164E-02  0.1312668E+00
        -11   -1    0    0    0    0  0.00000000000E+00  0.00000000000E+00  0.45593999997E+02  0.45594000000E+02  0.51100000000E-03 0. -1.
         11   -1    0    0    0    0 -0.00000000000E+00 -0.00000000000E+00 -0.45593999997E+02  0.45594000000E+02  0.51100000000E-03 0.  1.
    9900012    2    1    2    0    0 -0.35376571944E+02 -0.84036986895E+01  0.23695971722E+02  0.47787273393E+02  0.20000010706E+02 0.  0.
        -12    1    1    2    0    0  0.35376571944E+02  0.84036986895E+01 -0.23695971722E+02  0.43400726607E+02  0.00000000000E+00 0.  1.
         11    1    3    3    0    0  0.65638681282E+00  0.84350768360E+00 -0.17301074304E+01  0.20336225909E+01  0.51100000000E-03 0. -1.
        -11    1    3    3    0    0 -0.81983667920E+01 -0.75205148415E-01  0.25831460446E+01  0.85960175442E+01  0.51100000000E-03 0.  1.
         12    1    3    3    0    0 -0.27834591965E+02 -0.91720012247E+01  0.22842933108E+02  0.37157633258E+02  0.00000000000E+00 0. -1.
</event>
<event>
 7    1  0.4011333E-009  0.4778728E+02  0.7816164E-02  0.1312668E+00
        -11   -1    0    0    0    0  0.00000000000E+00  0.00000000000E+00  0.45593999997E+02  0.45594000000E+02  0.51100000000E-03 0.  1.
         11   -1    0    0    0    0 -0.00000000000E+00 -0.00000000000E+00 -0.45593999997E+02  0.45594000000E+02  0.51100000000E-03 0. -1.
    9900012    2    1    2    0    0 -0.27870668788E+02  0.11914628980E+02 -0.31062682873E+02  0.47787276161E+02  0.20000023331E+02 0.  0.
        -12    1    1    2    0    0  0.27870668788E+02 -0.11914628980E+02  0.31062682873E+02  0.43400723839E+02  0.00000000000E+00 0.  1.
         11    1    3    3    0    0  0.23000940682E+00 -0.24767546052E+01 -0.31645842162E+01  0.40251473544E+01  0.51100000000E-03 0. -1.
        -11    1    3    3    0    0 -0.33517950471E+01  0.65369946493E+01 -0.91583562714E+01  0.11740626855E+02  0.51100000000E-03 0.  1.
         12    1    3    3    0    0 -0.24748883148E+02  0.78543889361E+01 -0.18739742386E+02  0.32021501953E+02  0.00000000000E+00 0. -1.
</event>
<event>
 7    1  0.4011333E-009  0.4778727E+02  0.7816164E-02  0.1312668E+00
        -11   -1    0    0    0    0  0.00000000000E+00  0.00000000000E+00  0.45593999997E+02  0.45594000000E+02  0.51100000000E-03 0.  1.
         11   -1    0    0    0    0 -0.00000000000E+00 -0.00000000000E+00 -0.45593999997E+02  0.45594000000E+02  0.51100000000E-03 0. -1.
    9900012    2    1    2    0    0  0.23659666795E+01  0.36963345107E+02 -0.22621592647E+02  0.47787272659E+02  0.20000007363E+02 0.  0.
        -12    1    1    2    0    0 -0.23659666795E+01 -0.36963345107E+02  0.22621592647E+02  0.43400727341E+02  0.00000000000E+00 0.  1.
         11    1    3    3    0    0 -0.31633794423E+01  0.50463348567E+01 -0.23483736617E+01  0.64021343392E+01  0.51100000000E-03 0. -1.
        -11    1    3    3    0    0 -0.39973535262E+01  0.74319772064E+01 -0.41043896900E+00  0.84487620880E+01  0.51100000000E-03 0.  1.
         12    1    3    3    0    0  0.95266996481E+01  0.24485033044E+02 -0.19862780016E+02  0.32936376232E+02  0.00000000000E+00 0. -1.
</event>
<event>
 7    1  0.4011333E-009  0.4778727E+02  0.7816164E-02  0.1312668E+00
        -11   -1    0    0    0    0  0.00000000000E+00  0.00000000000E+00  0.45593999997E+02  0.45594000000E+02  0.51100000000E-03 0. -1.
         11   -1    0    0    0    0 -0.00000000000E+00 -0.00000000000E+00 -0.45593999997E+02  0.45594000000E+02  0.51100000000E-03 0.  1.
    9900012    2    1    2    0    0 -0.23591996922E+02 -0.36045690334E+02 -0.52677551437E+01  0.47787270113E+02  0.19999995753E+02 0.  0.
        -12    1    1    2    0    0  0.23591996922E+02  0.36045690334E+02  0.52677551437E+01  0.43400729887E+02  0.00000000000E+00 0.  1.
         11    1    3    3    0    0 -0.10327460432E+01 -0.37537472943E+00  0.20569012623E+01  0.23320192197E+01  0.51100000000E-03 0. -1.
        -11    1    3    3    0    0 -0.10099567709E+01 -0.14104597100E+02 -0.44918947789E+01  0.14837007481E+02  0.51100000000E-03 0.  1.
         12    1    3    3    0    0 -0.21549294108E+02 -0.21565718505E+02 -0.28327616271E+01  0.30618243412E+02  0.00000000000E+00 0. -1.
</event>
<event>
 7    1  0.4011333E-009  0.4778727E+02  0.7816164E-02  0.1312668E+00
        -11   -1    0    0    0    0  0.00000000000E+00  0.00000000000E+00  0.45593999997E+02  0.45594000000E+02  0.51100000000E-03 0. -1.
         11   -1    0    0    0    0 -0.00000000000E+00 -0.00000000000E+00 -0.45593999997E+02  0.45594000000E+02  0.51100000000E-03 0.  1.
    9900012    2    1    2    0    0 -0.27387256461E+02  0.10003105420E+02  0.32148086652E+02  0.47787269477E+02  0.19999992855E+02 0.  0.
        -12    1    1    2    0    0  0.27387256461E+02 -0.10003105420E+02 -0.32148086652E+02  0.43400730523E+02  0.00000000000E+00 0.  1.
         11    1    3    3    0    0 -0.17580779048E+01 -0.57533659452E+00  0.74719380448E+01  0.76975131388E+01  0.51100000000E-03 0. -1.
        -11    1    3    3    0    0 -0.72156711261E+01 -0.20981078915E+01  0.12627927449E+02  0.14694642508E+02  0.51100000000E-03 0.  1.
         12    1    3    3    0    0 -0.18413507430E+02  0.12676549906E+02  0.12048221159E+02  0.25395113831E+02  0.00000000000E+00 0. -1.
</event>
<event>
 7    1  0.4011333E-009  0.4778727E+02  0.7816164E-02  0.1312668E+00
        -11   -1    0    0    0    0  0.00000000000E+00  0.00000000000E+00  0.45593999997E+02  0.45594000000E+02  0.51100000000E-03 0.  1.
         11   -1    0    0    0    0 -0.00000000000E+00 -0.00000000000E+00 -0.45593999997E+02  0.45594000000E+02  0.51100000000E-03 0. -1.
    9900012    2    1    2    0    0  0.43175833160E+02 -0.36714771389E+01  0.24476582985E+01  0.47787270230E+02  0.19999996286E+02 0.  0.
        -12    1    1    2    0    0 -0.43175833160E+02  0.36714771389E+01 -0.24476582985E+01  0.43400729770E+02  0.00000000000E+00 0.  1.
         11    1    3    3    0    0  0.29823195230E+02 -0.34659475650E+01  0.43967005781E+00  0.30027138995E+02  0.51100000000E-03 0. -1.
        -11    1    3    3    0    0  0.13269679184E+02 -0.38508568937E+01  0.53476764075E+00  0.13827489329E+02  0.51100000000E-03 0.  1.
        -12    1    3    3    0    0  0.82958746743E-01  0.36453273198E+01  0.14732206000E+01  0.39326419057E+01  0.00000000000E+00 0.  1.
</event>
<event>
 7    1  0.4011333E-009  0.4778726E+02  0.7816164E-02  0.1312668E+00
        -11   -1    0    0    0    0  0.00000000000E+00  0.00000000000E+00  0.45593999997E+02  0.45594000000E+02  0.51100000000E-03 0.  1.
         11   -1    0    0    0    0 -0.00000000000E+00 -0.00000000000E+00 -0.45593999997E+02  0.45594000000E+02  0.51100000000E-03 0. -1.
    9900012    2    1    2    0    0 -0.41077168125E+02 -0.32014564883E+01 -0.13639676682E+02  0.47787264467E+02  0.19999970011E+02 0.  0.
        -12    1    1    2    0    0  0.41077168125E+02  0.32014564883E+01  0.13639676682E+02  0.43400735533E+02  0.00000000000E+00 0.  1.
         11    1    3    3    0    0  0.56249820994E+00 -0.53614142573E+00  0.12284873459E+01  0.14536276294E+01  0.51100000000E-03 0.  1.
        -11    1    3    3    0    0 -0.30901962705E+02  0.37952970043E+01 -0.84825918062E+01  0.32269024503E+02  0.51100000000E-03 0. -1.
         12    1    3    3    0    0 -0.10737703630E+02 -0.64606120670E+01 -0.63855722222E+01  0.14064612335E+02  0.00000000000E+00 0. -1.
</event>
<event>
 7    1  0.4011333E-009  0.4778727E+02  0.7816164E-02  0.1312668E+00
        -11   -1    0    0    0    0  0.00000000000E+00  0.00000000000E+00  0.45593999997E+02  0.45594000000E+02  0.51100000000E-03 0.  1.
         11   -1    0    0    0    0 -0.00000000000E+00 -0.00000000000E+00 -0.45593999997E+02  0.45594000000E+02  0.51100000000E-03 0. -1.
    9900012    2    1    2    0    0  0.37851176714E+02 -0.20727770695E+02 -0.46121060104E+01  0.47787267535E+02  0.19999984000E+02 0.  0.
        -12    1    1    2    0    0 -0.37851176714E+02  0.20727770695E+02  0.46121060104E+01  0.43400732465E+02  0.00000000000E+00 0.  1.
         11    1    3    3    0    0  0.63021144419E+01  0.11851063657E+01 -0.52639648666E+01  0.82964118699E+01  0.51100000000E-03 0. -1.
        -11    1    3    3    0    0  0.56045543794E+01 -0.77149454323E+01 -0.21751924737E+01  0.97807400218E+01  0.51100000000E-03 0.  1.
        -12    1    3    3    0    0  0.25944507893E+02 -0.14197931628E+02  0.28270513299E+01  0.29710115644E+02  0.00000000000E+00 0.  1.
</event>
<event>
 7    1  0.4011333E-009  0.4778728E+02  0.7816164E-02  0.1312668E+00
        -11   -1    0    0    0    0  0.00000000000E+00  0.00000000000E+00  0.45593999997E+02  0.45594000000E+02  0.51100000000E-03 0.  1.
         11   -1    0    0    0    0 -0.00000000000E+00 -0.00000000000E+00 -0.45593999997E+02  0.45594000000E+02  0.51100000000E-03 0. -1.
    9900012    2    1    2    0    0  0.15582092662E+02  0.26109287821E+02 -0.30969756659E+02  0.47787281690E+02  0.20000048538E+02 0.  0.
        -12    1    1    2    0    0 -0.15582092662E+02 -0.26109287821E+02  0.30969756659E+02  0.43400718310E+02  0.00000000000E+00 0.  1.
         11    1    3    3    0    0  0.42002967384E+00  0.10869567850E+02 -0.57997731469E+01  0.12327258373E+02  0.51100000000E-03 0. -1.
        -11    1    3    3    0    0  0.11542997408E+02  0.13716588866E+02 -0.11646828713E+02  0.21378358651E+02  0.51100000000E-03 0.  1.
        -12    1    3    3    0    0  0.36190655800E+01  0.15231311047E+01 -0.13523154799E+02  0.14081664666E+02  0.00000000000E+00 0.  1.
</event>
<event>
 7    1  0.4011333E-009  0.4778729E+02  0.7816164E-02  0.1312668E+00
        -11   -1    0    0    0    0  0.00000000000E+00  0.00000000000E+00  0.45593999997E+02  0.45594000000E+02  0.51100000000E-03 0.  1.
         11   -1    0    0    0    0 -0.00000000000E+00 -0.00000000000E+00 -0.45593999997E+02  0.45594000000E+02  0.51100000000E-03 0. -1.
    9900012    2    1    2    0    0 -0.75089354640E+00 -0.36481592632E+01 -0.43240595091E+02  0.47787286054E+02  0.20000068437E+02 0.  0.
        -12    1    1    2    0    0  0.75089354640E+00  0.36481592632E+01  0.43240595091E+02  0.43400713946E+02  0.00000000000E+00 0.  1.
         11    1    3    3    0    0 -0.16073018981E+01  0.10393459298E+01 -0.10380750045E+02  0.10555739250E+02  0.51100000000E-03 0. -1.
        -11    1    3    3    0    0  0.13578078420E+01 -0.10950974206E+02 -0.18233676577E+02  0.21312776449E+02  0.51100000000E-03 0.  1.
        -12    1    3    3    0    0 -0.50139949023E+00  0.62634690133E+01 -0.14626168470E+02  0.15918770355E+02  0.00000000000E+00 0.  1.
</event>
<event>
 7    1  0.4011333E-009  0.4778726E+02  0.7816164E-02  0.1312668E+00
        -11   -1    0    0    0    0  0.00000000000E+00  0.00000000000E+00  0.45593999997E+02  0.45594000000E+02  0.51100000000E-03 0.  1.
         11   -1    0    0    0    0 -0.00000000000E+00 -0.00000000000E+00 -0.45593999997E+02  0.45594000000E+02  0.51100000000E-03 0. -1.
    9900012    2    1    2    0    0  0.30845938958E+02  0.21164337404E+02 -0.22005061898E+02  0.47787264095E+02  0.19999968316E+02 0.  0.
        -12    1    1    2    0    0 -0.30845938958E+02 -0.21164337404E+02  0.22005061898E+02  0.43400735905E+02  0.00000000000E+00 0.  1.
         11    1    3    3    0    0  0.21749496638E+02  0.13786834656E+02 -0.15757833892E+02  0.30189845032E+02  0.51100000000E-03 0. -1.
        -11    1    3    3    0    0  0.87419676044E+01  0.15546107017E+01 -0.75093163060E+01  0.11628785133E+02  0.51100000000E-03 0.  1.
        -12    1    3    3    0    0  0.35447471538E+00  0.58228920470E+01  0.12620882999E+01  0.59686339301E+01  0.00000000000E+00 0.  1.
</event>
<event>
 7    1  0.5188258E-009  0.4778727E+02  0.7816164E-02  0.1312668E+00
        -11   -1    0    0    0    0  0.00000000000E+00  0.00000000000E+00  0.45593999997E+02  0.45594000000E+02  0.51100000000E-03 0.  1.
         11   -1    0    0    0    0 -0.00000000000E+00 -0.00000000000E+00 -0.45593999997E+02  0.45594000000E+02  0.51100000000E-03 0. -1.
    9900012    2    1    2    0    0  0.39111336486E+02  0.12303683933E+02  0.14231859361E+02  0.47787273037E+02  0.20000009087E+02 0.  0.
        -12    1    1    2    0    0 -0.39111336486E+02 -0.12303683933E+02 -0.14231859361E+02  0.43400726963E+02  0.00000000000E+00 0.  1.
         11    1    3    3    0    0  0.15921094189E+02 -0.66037010861E+00  0.76252253848E+01  0.17665259446E+02  0.51100000000E-03 0. -1.
        -11    1    3    3    0    0  0.16377292052E+02  0.22868751226E+01  0.20552117441E+01  0.16663414666E+02  0.51100000000E-03 0.  1.
        -12    1    3    3    0    0  0.68129502453E+01  0.10677178919E+02  0.45514222318E+01  0.13458598925E+02  0.00000000000E+00 0.  1.
</event>
<event>
 7    1  0.4011333E-009  0.4778727E+02  0.7816164E-02  0.1312668E+00
        -11   -1    0    0    0    0  0.00000000000E+00  0.00000000000E+00  0.45593999997E+02  0.45594000000E+02  0.51100000000E-03 0.  1.
         11   -1    0    0    0    0 -0.00000000000E+00 -0.00000000000E+00 -0.45593999997E+02  0.45594000000E+02  0.51100000000E-03 0. -1.
    9900012    2    1    2    0    0 -0.11393879068E+02  0.59527213463E+01 -0.41453198630E+02  0.47787273643E+02  0.20000011850E+02 0.  0.
        -12    1    1    2    0    0  0.11393879068E+02 -0.59527213463E+01  0.41453198630E+02  0.43400726357E+02  0.00000000000E+00 0.  1.
         11    1    3    3    0    0 -0.10493073138E+02  0.11448248080E+01 -0.24053041787E+02  0.26267166333E+02  0.51100000000E-03 0. -1.
        -11    1    3    3    0    0 -0.49359057652E+01  0.99486124970E+00 -0.25047875440E+01  0.56237776921E+01  0.51100000000E-03 0.  1.
        -12    1    3    3    0    0  0.40350998343E+01  0.38130352885E+01 -0.14895369299E+02  0.15896329618E+02  0.00000000000E+00 0.  1.
</event>
<event>
 7    1  0.4011333E-009  0.4778727E+02  0.7816164E-02  0.1312668E+00
        -11   -1    0    0    0    0  0.00000000000E+00  0.00000000000E+00  0.45593999997E+02  0.45594000000E+02  0.51100000000E-03 0.  1.
         11   -1    0    0    0    0 -0.00000000000E+00 -0.00000000000E+00 -0.45593999997E+02  0.45594000000E+02  0.51100000000E-03 0. -1.
    9900012    2    1    2    0    0  0.16426459183E+02  0.70929420012E+01 -0.39540926397E+02  0.47787271345E+02  0.20000001368E+02 0.  0.
        -12    1    1    2    0    0 -0.16426459183E+02 -0.70929420012E+01  0.39540926397E+02  0.43400728655E+02  0.00000000000E+00 0.  1.
         11    1    3    3    0    0  0.36163193354E+01  0.32955301655E+00 -0.13505316284E+02  0.13984989772E+02  0.51100000000E-03 0. -1.
        -11    1    3    3    0    0  0.82588888308E+01  0.49538194052E+01 -0.27125735136E+02  0.28784632677E+02  0.51100000000E-03 0.  1.
        -12    1    3    3    0    0  0.45512510168E+01  0.18095695794E+01  0.10901250229E+01  0.50176488962E+01  0.00000000000E+00 0.  1.
</event>
<event>
 7    1  0.4011333E-009  0.4778727E+02  0.7816164E-02  0.1312668E+00
        -11   -1    0    0    0    0  0.00000000000E+00  0.00000000000E+00  0.45593999997E+02  0.45594000000E+02  0.51100000000E-03 0.  1.
         11   -1    0    0    0    0 -0.00000000000E+00 -0.00000000000E+00 -0.45593999997E+02  0.45594000000E+02  0.51100000000E-03 0. -1.
    9900012    2    1    2    0    0 -0.13830742859E+02  0.34057844504E+02 -0.23073728316E+02  0.47787272371E+02  0.20000006049E+02 0.  0.
        -12    1    1    2    0    0  0.13830742859E+02 -0.34057844504E+02  0.23073728316E+02  0.43400727629E+02  0.00000000000E+00 0.  1.
         11    1    3    3    0    0 -0.54330331069E+01  0.43635366145E+01 -0.26366979329E+01  0.74505353349E+01  0.51100000000E-03 0. -1.
        -11    1    3    3    0    0  0.18833811153E+01  0.32512137135E+01 -0.89890424316E+01  0.97427100508E+01  0.51100000000E-03 0.  1.
        -12    1    3    3    0    0 -0.10281090867E+02  0.26443094176E+02 -0.11447987952E+02  0.30594026985E+02  0.00000000000E+00 0.  1.
</event>
<event>
 7    1  0.4011333E-009  0.4778727E+02  0.7816164E-02  0.1312668E+00
        -11   -1    0    0    0    0  0.00000000000E+00  0.00000000000E+00  0.45593999997E+02  0.45594000000E+02  0.51100000000E-03 0.  1.
         11   -1    0    0    0    0 -0.00000000000E+00 -0.00000000000E+00 -0.45593999997E+02  0.45594000000E+02  0.51100000000E-03 0. -1.
    9900012    2    1    2    0    0  0.12446347682E+02 -0.35920830561E+02 -0.20938139782E+02  0.47787270324E+02  0.19999996716E+02 0.  0.
        -12    1    1    2    0    0 -0.12446347682E+02  0.35920830561E+02  0.20938139782E+02  0.43400729676E+02  0.00000000000E+00 0.  1.
         11    1    3    3    0    0  0.62555632308E+01 -0.18472812848E+02 -0.35134460306E+01  0.19817194280E+02  0.51100000000E-03 0. -1.
        -11    1    3    3    0    0  0.83168072753E+00 -0.24837388551E+01  0.16845621956E+01  0.31142256798E+01  0.51100000000E-03 0.  1.
         12    1    3    3    0    0  0.53591037240E+01 -0.14964278858E+02 -0.19109255947E+02  0.24855850364E+02  0.00000000000E+00 0. -1.
</event>
<event>
 7    1  0.4011333E-009  0.4778727E+02  0.7816164E-02  0.1312668E+00
        -11   -1    0    0    0    0  0.00000000000E+00  0.00000000000E+00  0.45593999997E+02  0.45594000000E+02  0.51100000000E-03 0.  1.
         11   -1    0    0    0    0 -0.00000000000E+00 -0.00000000000E+00 -0.45593999997E+02  0.45594000000E+02  0.51100000000E-03 0. -1.
    9900012    2    1    2    0    0 -0.29510821483E+02  0.18817925942E+02 -0.25663602039E+02  0.47787269696E+02  0.19999993851E+02 0.  0.
        -12    1    1    2    0    0  0.29510821483E+02 -0.18817925942E+02  0.25663602039E+02  0.43400730304E+02  0.00000000000E+00 0.  1.
         11    1    3    3    0    0 -0.19226766082E+02  0.12311311368E+02 -0.11144266250E+02  0.25405345738E+02  0.51100000000E-03 0. -1.
        -11    1    3    3    0    0 -0.19597808435E+01  0.75324835781E+01 -0.10529961376E+02  0.13094240591E+02  0.51100000000E-03 0.  1.
        -12    1    3    3    0    0 -0.83242745576E+01 -0.10258690040E+01 -0.39893744125E+01  0.92876833671E+01  0.00000000000E+00 0.  1.
</event>
<event>
 7    1  0.4011333E-009  0.4778728E+02  0.7816164E-02  0.1312668E+00
        -11   -1    0    0    0    0  0.00000000000E+00  0.00000000000E+00  0.45593999997E+02  0.45594000000E+02  0.51100000000E-03 0.  1.
         11   -1    0    0    0    0 -0.00000000000E+00 -0.00000000000E+00 -0.45593999997E+02  0.45594000000E+02  0.51100000000E-03 0. -1.
    9900012    2    1    2    0    0 -0.10758512658E+02  0.90213121677E+01 -0.41066933276E+02  0.47787277926E+02  0.20000031377E+02 0.  0.
        -12    1    1    2    0    0  0.10758512658E+02 -0.90213121677E+01  0.41066933276E+02  0.43400722074E+02  0.00000000000E+00 0.  1.
         11    1    3    3    0    0 -0.23857128862E+01 -0.18079415894E+01 -0.19320062730E+01  0.35627134696E+01  0.51100000000E-03 0. -1.
        -11    1    3    3    0    0  0.44534288411E+01  0.15222832136E+01 -0.77883334030E+01  0.90999182460E+01  0.51100000000E-03 0.  1.
         12    1    3    3    0    0 -0.12826228613E+02  0.93069705435E+01 -0.31346593600E+02  0.35124646211E+02  0.00000000000E+00 0. -1.
</event>
<event>
 7    1  0.4011333E-009  0.4778727E+02  0.7816164E-02  0.1312668E+00
        -11   -1    0    0    0    0  0.00000000000E+00  0.00000000000E+00  0.45593999997E+02  0.45594000000E+02  0.51100000000E-03 0. -1.
         11   -1    0    0    0    0 -0.00000000000E+00 -0.00000000000E+00 -0.45593999997E+02  0.45594000000E+02  0.51100000000E-03 0.  1.
    9900012    2    1    2    0    0  0.33772579438E+02  0.21531854861E+02  0.16715726849E+02  0.47787269364E+02  0.19999992336E+02 0.  0.
        -12    1    1    2    0    0 -0.33772579438E+02 -0.21531854861E+02 -0.16715726849E+02  0.43400730636E+02  0.00000000000E+00 0.  1.
         11    1    3    3    0    0  0.12209929495E+01 -0.19249994253E+01  0.21378103578E+01  0.31251687886E+01  0.51100000000E-03 0.  1.
        -11    1    3    3    0    0  0.11904620722E+02  0.71210751584E+01 -0.12741737385E+01  0.13930298810E+02  0.51100000000E-03 0. -1.
         12    1    3    3    0    0  0.20646965766E+02  0.16335779128E+02  0.15852090230E+02  0.30731801765E+02  0.00000000000E+00 0. -1.
</event>
<event>
 7    1  0.4011333E-009  0.4778727E+02  0.7816164E-02  0.1312668E+00
        -11   -1    0    0    0    0  0.00000000000E+00  0.00000000000E+00  0.45593999997E+02  0.45594000000E+02  0.51100000000E-03 0.  1.
         11   -1    0    0    0    0 -0.00000000000E+00 -0.00000000000E+00 -0.45593999997E+02  0.45594000000E+02  0.51100000000E-03 0. -1.
    9900012    2    1    2    0    0  0.67904834098E+01 -0.28390908320E+02 -0.32116488772E+02  0.47787271997E+02  0.20000004342E+02 0.  0.
        -12    1    1    2    0    0 -0.67904834098E+01  0.28390908320E+02  0.32116488772E+02  0.43400728003E+02  0.00000000000E+00 0.  1.
         11    1    3    3    0    0  0.28256020008E+01 -0.10836024303E+02 -0.31647974059E+01  0.11636983812E+02  0.51100000000E-03 0. -1.
        -11    1    3    3    0    0  0.50053652879E+01 -0.12875313743E+01 -0.51026406321E+01  0.72628066466E+01  0.51100000000E-03 0.  1.
         12    1    3    3    0    0 -0.10404838790E+01 -0.16267352643E+02 -0.23849050734E+02  0.28887481538E+02  0.00000000000E+00 0. -1.
</event>
<event>
 7    1  0.4011333E-009  0.4778727E+02  0.7816164E-02  0.1312668E+00
        -11   -1    0    0    0    0  0.00000000000E+00  0.00000000000E+00  0.45593999997E+02  0.45594000000E+02  0.51100000000E-03 0.  1.
         11   -1    0    0    0    0 -0.00000000000E+00 -0.00000000000E+00 -0.45593999997E+02  0.45594000000E+02  0.51100000000E-03 0. -1.
    9900012    2    1    2    0    0 -0.38004139756E+02 -0.16983467952E+02  0.12282935244E+02  0.47787270508E+02  0.19999997552E+02 0.  0.
        -12    1    1    2    0    0  0.38004139756E+02  0.16983467952E+02 -0.12282935244E+02  0.43400729492E+02  0.00000000000E+00 0.  1.
         11    1    3    3    0    0 -0.17982387297E+02 -0.28271940589E+01  0.86156877426E+01  0.20139249110E+02  0.51100000000E-03 0. -1.
        -11    1    3    3    0    0 -0.11178429073E+01  0.90733252991E+00  0.31583091497E+01  0.34709857435E+01  0.51100000000E-03 0.  1.
        -12    1    3    3    0    0 -0.18903909551E+02 -0.15063606423E+02  0.50893835185E+00  0.24177035655E+02  0.00000000000E+00 0.  1.
</event>
<event>
 7    1  0.4011333E-009  0.4778727E+02  0.7816164E-02  0.1312668E+00
        -11   -1    0    0    0    0  0.00000000000E+00  0.00000000000E+00  0.45593999997E+02  0.45594000000E+02  0.51100000000E-03 0. -1.
         11   -1    0    0    0    0 -0.00000000000E+00 -0.00000000000E+00 -0.45593999997E+02  0.45594000000E+02  0.51100000000E-03 0.  1.
    9900012    2    1    2    0    0 -0.30321391396E+02 -0.12913452411E+02  0.28239677289E+02  0.47787269559E+02  0.19999993228E+02 0.  0.
        -12    1    1    2    0    0  0.30321391396E+02  0.12913452411E+02 -0.28239677289E+02  0.43400730441E+02  0.00000000000E+00 0.  1.
         11    1    3    3    0    0 -0.19711318199E+02 -0.51892616047E+01  0.20825277930E+02  0.29140293448E+02  0.51100000000E-03 0. -1.
        -11    1    3    3    0    0  0.64891635767E+00 -0.86502508764E+00  0.51596396518E+01  0.52717399822E+01  0.51100000000E-03 0.  1.
         12    1    3    3    0    0 -0.11258989555E+02 -0.68591657187E+01  0.22547597079E+01  0.13375236129E+02  0.00000000000E+00 0. -1.
</event>
<event>
 7    1  0.4011333E-009  0.4778727E+02  0.7816164E-02  0.1312668E+00
        -11   -1    0    0    0    0  0.00000000000E+00  0.00000000000E+00  0.45593999997E+02  0.45594000000E+02  0.51100000000E-03 0.  1.
         11   -1    0    0    0    0 -0.00000000000E+00 -0.00000000000E+00 -0.45593999997E+02  0.45594000000E+02  0.51100000000E-03 0. -1.
    9900012    2    1    2    0    0  0.25133822246E+02 -0.46876934741E+01 -0.35070503388E+02  0.47787266150E+02  0.19999977686E+02 0.  0.
        -12    1    1    2    0    0 -0.25133822246E+02  0.46876934741E+01  0.35070503388E+02  0.43400733850E+02  0.00000000000E+00 0.  1.
         11    1    3    3    0    0  0.68045870425E+01 -0.24991546185E+01 -0.13803826395E+02  0.15591465679E+02  0.51100000000E-03 0. -1.
        -11    1    3    3    0    0 -0.28469889104E+01 -0.76369287201E+00 -0.26623695090E+01  0.39720000406E+01  0.51100000000E-03 0.  1.
        -12    1    3    3    0    0  0.21176224113E+02 -0.14248459836E+01 -0.18604307484E+02  0.28223800431E+02  0.00000000000E+00 0.  1.
</event>
<event>
 7    1  0.4011333E-009  0.4778728E+02  0.7816164E-02  0.1312668E+00
        -11   -1    0    0    0    0  0.00000000000E+00  0.00000000000E+00  0.45593999997E+02  0.45594000000E+02  0.51100000000E-03 0. -1.
         11   -1    0    0    0    0 -0.00000000000E+00 -0.00000000000E+00 -0.45593999997E+02  0.45594000000E+02  0.51100000000E-03 0.  1.
    9900012    2    1    2    0    0 -0.32968079656E+02  0.21028913643E+02  0.18828523957E+02  0.47787276508E+02  0.20000024910E+02 0.  0.
        -12    1    1    2    0    0  0.32968079656E+02 -0.21028913643E+02 -0.18828523957E+02  0.43400723492E+02  0.00000000000E+00 0.  1.
         11    1    3    3    0    0 -0.42018894472E+01  0.86362537507E+01  0.95246335228E+01  0.13526248474E+02  0.51100000000E-03 0. -1.
        -11    1    3    3    0    0 -0.11882392096E+02  0.10680327551E+02  0.51953076330E+01  0.16800352978E+02  0.51100000000E-03 0.  1.
        -12    1    3    3    0    0 -0.16883798114E+02  0.17123323413E+01  0.41085828015E+01  0.17460675056E+02  0.00000000000E+00 0.  1.
</event>
<event>
 7    1  0.4022709E-009  0.4778727E+02  0.7816164E-02  0.1312668E+00
        -11   -1    0    0    0    0  0.00000000000E+00  0.00000000000E+00  0.45593999997E+02  0.45594000000E+02  0.51100000000E-03 0.  1.
         11   -1    0    0    0    0 -0.00000000000E+00 -0.00000000000E+00 -0.45593999997E+02  0.45594000000E+02  0.51100000000E-03 0. -1.
    9900012    2    1    2    0    0  0.38615902300E+02 -0.19073600397E+02  0.53510094814E+01  0.47787269073E+02  0.19999991010E+02 0.  0.
        -12    1    1    2    0    0 -0.38615902300E+02  0.19073600397E+02 -0.53510094814E+01  0.43400730927E+02  0.00000000000E+00 0.  1.
         11    1    3    3    0    0  0.13626451123E+02 -0.26468487250E+01  0.66362861914E+01  0.15385911512E+02  0.51100000000E-03 0. -1.
        -11    1    3    3    0    0  0.20713468368E+01  0.17191522827E+01 -0.16681129126E+01  0.31667906845E+01  0.51100000000E-03 0.  1.
         12    1    3    3    0    0  0.22918104340E+02 -0.18145903955E+02  0.38283620257E+00  0.29234566876E+02  0.00000000000E+00 0. -1.
</event>
<event>
 7    1  0.4011333E-009  0.4778727E+02  0.7816164E-02  0.1312668E+00
        -11   -1    0    0    0    0  0.00000000000E+00  0.00000000000E+00  0.45593999997E+02  0.45594000000E+02  0.51100000000E-03 0.  1.
         11   -1    0    0    0    0 -0.00000000000E+00 -0.00000000000E+00 -0.45593999997E+02  0.45594000000E+02  0.51100000000E-03 0. -1.
    9900012    2    1    2    0    0  0.41060839793E+02  0.10909801899E+02 -0.88660629980E+01  0.47787269418E+02  0.19999992583E+02 0.  0.
        -12    1    1    2    0    0 -0.41060839793E+02 -0.10909801899E+02  0.88660629980E+01  0.43400730582E+02  0.00000000000E+00 0.  1.
         11    1    3    3    0    0  0.95240595501E+01  0.26751888977E+01 -0.80722043226E+01  0.12768117670E+02  0.51100000000E-03 0. -1.
        -11    1    3    3    0    0  0.41949222384E+01  0.19185573724E+01 -0.48180098230E+01  0.66701914435E+01  0.51100000000E-03 0.  1.
        -12    1    3    3    0    0  0.27341858005E+02  0.63160556292E+01  0.40241511475E+01  0.28348960304E+02  0.00000000000E+00 0.  1.
</event>
<event>
 7    1  0.4011333E-009  0.4778728E+02  0.7816164E-02  0.1312668E+00
        -11   -1    0    0    0    0  0.00000000000E+00  0.00000000000E+00  0.45593999997E+02  0.45594000000E+02  0.51100000000E-03 0.  1.
         11   -1    0    0    0    0 -0.00000000000E+00 -0.00000000000E+00 -0.45593999997E+02  0.45594000000E+02  0.51100000000E-03 0. -1.
    9900012    2    1    2    0    0 -0.17089914149E+02 -0.13478416307E+01 -0.39871553165E+02  0.47787278872E+02  0.20000035688E+02 0.  0.
        -12    1    1    2    0    0  0.17089914149E+02  0.13478416307E+01  0.39871553165E+02  0.43400721128E+02  0.00000000000E+00 0.  1.
         11    1    3    3    0    0 -0.76640327639E+01 -0.72805540072E+00 -0.74381071969E+01  0.10704807416E+02  0.51100000000E-03 0. -1.
        -11    1    3    3    0    0 -0.84845925825E+00  0.12844868242E+01  0.14279519202E+01  0.20997229488E+01  0.51100000000E-03 0.  1.
         12    1    3    3    0    0 -0.85774221266E+01 -0.19042730541E+01 -0.33861397888E+02  0.34982748507E+02  0.00000000000E+00 0. -1.
</event>
<event>
 7    1  0.4011333E-009  0.4778728E+02  0.7816164E-02  0.1312668E+00
        -11   -1    0    0    0    0  0.00000000000E+00  0.00000000000E+00  0.45593999997E+02  0.45594000000E+02  0.51100000000E-03 0. -1.
         11   -1    0    0    0    0 -0.00000000000E+00 -0.00000000000E+00 -0.45593999997E+02  0.45594000000E+02  0.51100000000E-03 0.  1.
    9900012    2    1    2    0    0  0.77118779072E+01 -0.23001217825E+02  0.35987406724E+02  0.47787279671E+02  0.20000039334E+02 0.  0.
        -12    1    1    2    0    0 -0.77118779072E+01  0.23001217825E+02 -0.35987406724E+02  0.43400720329E+02  0.00000000000E+00 0.  1.
         11    1    3    3    0    0  0.57288115245E+01 -0.35462618758E+01  0.92823702272E+01  0.11469858415E+02  0.51100000000E-03 0. -1.
        -11    1    3    3    0    0 -0.93960330105E+00  0.21629772408E+01  0.50798685189E+01  0.56005704475E+01  0.51100000000E-03 0.  1.
        -12    1    3    3    0    0  0.29226696838E+01 -0.21617933191E+02  0.21625167978E+02  0.30716850808E+02  0.00000000000E+00 0.  1.
</event>
<event>
 7    1  0.4011333E-009  0.4778727E+02  0.7816164E-02  0.1312668E+00
        -11   -1    0    0    0    0  0.00000000000E+00  0.00000000000E+00  0.45593999997E+02  0.45594000000E+02  0.51100000000E-03 0. -1.
         11   -1    0    0    0    0 -0.00000000000E+00 -0.00000000000E+00 -0.45593999997E+02  0.45594000000E+02  0.51100000000E-03 0.  1.
    9900012    2    1    2    0    0  0.13134678514E+02  0.39136536446E+02  0.13395336337E+02  0.47787270740E+02  0.19999998613E+02 0.  0.
        -12    1    1    2    0    0 -0.13134678514E+02 -0.39136536446E+02 -0.13395336337E+02  0.43400729260E+02  0.00000000000E+00 0.  1.
         11    1    3    3    0    0 -0.95127055844E+00  0.26648996785E+01  0.45471913180E+01  0.53557030459E+01  0.51100000000E-03 0. -1.
        -11    1    3    3    0    0  0.19321769421E+01  0.11141895391E+02 -0.33633325345E+01  0.11797760238E+02  0.51100000000E-03 0.  1.
         12    1    3    3    0    0  0.12153772130E+02  0.25329741377E+02  0.12211477554E+02  0.30633807456E+02  0.00000000000E+00 0. -1.
</event>
<event>
 7    1  0.4011333E-009  0.4778727E+02  0.7816164E-02  0.1312668E+00
        -11   -1    0    0    0    0  0.00000000000E+00  0.00000000000E+00  0.45593999997E+02  0.45594000000E+02  0.51100000000E-03 0.  1.
         11   -1    0    0    0    0 -0.00000000000E+00 -0.00000000000E+00 -0.45593999997E+02  0.45594000000E+02  0.51100000000E-03 0. -1.
    9900012    2    1    2    0    0  0.27774984661E+02  0.32551690871E+02 -0.72499106728E+01  0.47787267791E+02  0.19999985167E+02 0.  0.
        -12    1    1    2    0    0 -0.27774984661E+02 -0.32551690871E+02  0.72499106728E+01  0.43400732209E+02  0.00000000000E+00 0.  1.
         11    1    3    3    0    0  0.16629422175E+02  0.24439942713E+02 -0.10935106330E+02  0.31518645789E+02  0.51100000000E-03 0. -1.
        -11    1    3    3    0    0  0.57811775089E+00  0.46933205207E+01  0.13704915152E+01  0.49233855119E+01  0.51100000000E-03 0.  1.
         12    1    3    3    0    0  0.10567444735E+02  0.34184276378E+01  0.23147041420E+01  0.11345236490E+02  0.00000000000E+00 0. -1.
</event>
<event>
 7    1  0.4011333E-009  0.4778727E+02  0.7816164E-02  0.1312668E+00
        -11   -1    0    0    0    0  0.00000000000E+00  0.00000000000E+00  0.45593999997E+02  0.45594000000E+02  0.51100000000E-03 0.  1.
         11   -1    0    0    0    0 -0.00000000000E+00 -0.00000000000E+00 -0.45593999997E+02  0.45594000000E+02  0.51100000000E-03 0. -1.
    9900012    2    1    2    0    0  0.15073933017E+02  0.15981690520E+02 -0.37429741467E+02  0.47787269191E+02  0.19999991548E+02 0.  0.
        -12    1    1    2    0    0 -0.15073933017E+02 -0.15981690520E+02  0.37429741467E+02  0.43400730809E+02  0.00000000000E+00 0.  1.
         11    1    3    3    0    0  0.38619847788E+01  0.56111487190E+00 -0.10884782063E+02  0.11563228665E+02  0.51100000000E-03 0. -1.
        -11    1    3    3    0    0  0.87896081277E+01  0.10911883657E+02 -0.63370751258E+01  0.15378066764E+02  0.51100000000E-03 0.  1.
        -12    1    3    3    0    0  0.24223401101E+01  0.45086919913E+01 -0.20207884278E+02  0.20845973762E+02  0.00000000000E+00 0.  1.
</event>
<event>
 7    1  0.4011333E-009  0.4778728E+02  0.7816164E-02  0.1312668E+00
        -11   -1    0    0    0    0  0.00000000000E+00  0.00000000000E+00  0.45593999997E+02  0.45594000000E+02  0.51100000000E-03 0.  1.
         11   -1    0    0    0    0 -0.00000000000E+00 -0.00000000000E+00 -0.45593999997E+02  0.45594000000E+02  0.51100000000E-03 0. -1.
    9900012    2    1    2    0    0 -0.12887516214E+01  0.31212734323E+02 -0.30128505059E+02  0.47787280170E+02  0.20000041606E+02 0.  0.
        -12    1    1    2    0    0  0.12887516214E+01 -0.31212734323E+02  0.30128505059E+02  0.43400719830E+02  0.00000000000E+00 0.  1.
         11    1    3    3    0    0 -0.36248967051E+00  0.66321361191E+01 -0.40173201944E+01  0.77624409866E+01  0.51100000000E-03 0. -1.
        -11    1    3    3    0    0  0.70503205672E+00 -0.17260116861E+01 -0.75782074491E+01  0.78041921391E+01  0.51100000000E-03 0.  1.
        -12    1    3    3    0    0 -0.16312940076E+01  0.26306609890E+02 -0.18532977416E+02  0.32220647044E+02  0.00000000000E+00 0.  1.
</event>
<event>
 7    1  0.4011333E-009  0.4778727E+02  0.7816164E-02  0.1312668E+00
        -11   -1    0    0    0    0  0.00000000000E+00  0.00000000000E+00  0.45593999997E+02  0.45594000000E+02  0.51100000000E-03 0. -1.
         11   -1    0    0    0    0 -0.00000000000E+00 -0.00000000000E+00 -0.45593999997E+02  0.45594000000E+02  0.51100000000E-03 0.  1.
    9900012    2    1    2    0    0 -0.16652533886E+02 -0.23013778067E+02  0.32812840528E+02  0.47787269945E+02  0.19999994989E+02 0.  0.
        -12    1    1    2    0    0  0.16652533886E+02  0.23013778067E+02 -0.32812840528E+02  0.43400730055E+02  0.00000000000E+00 0.  1.
         11    1    3    3    0    0 -0.33878335905E+01 -0.29994001205E+01  0.12108613359E+02  0.12926420048E+02  0.51100000000E-03 0. -1.
        -11    1    3    3    0    0 -0.49776636284E+01 -0.88658523505E+01  0.18052407383E+02  0.20718829255E+02  0.51100000000E-03 0.  1.
        -12    1    3    3    0    0 -0.82870366671E+01 -0.11148525596E+02  0.26518197868E+01  0.14142020643E+02  0.00000000000E+00 0.  1.
</event>
<event>
 7    1  0.4011333E-009  0.4778727E+02  0.7816164E-02  0.1312668E+00
        -11   -1    0    0    0    0  0.00000000000E+00  0.00000000000E+00  0.45593999997E+02  0.45594000000E+02  0.51100000000E-03 0. -1.
         11   -1    0    0    0    0 -0.00000000000E+00 -0.00000000000E+00 -0.45593999997E+02  0.45594000000E+02  0.51100000000E-03 0.  1.
    9900012    2    1    2    0    0  0.26433753769E+02  0.29012937591E+02 -0.18523743808E+02  0.47787274538E+02  0.20000015929E+02 0.  0.
        -12    1    1    2    0    0 -0.26433753769E+02 -0.29012937591E+02  0.18523743808E+02  0.43400725462E+02  0.00000000000E+00 0.  1.
         11    1    3    3    0    0  0.60584088570E+01  0.14311551146E+01  0.34728332837E-01  0.62252493251E+01  0.51100000000E-03 0. -1.
        -11    1    3    3    0    0  0.10857195541E+02  0.63925344570E+01 -0.12060817877E+02  0.17441517134E+02  0.51100000000E-03 0.  1.
         12    1    3    3    0    0  0.95181493703E+01  0.21189248020E+02 -0.64976542630E+01  0.24120508079E+02  0.00000000000E+00 0. -1.
</event>
<event>
 7    1  0.4162981E-009  0.4778728E+02  0.7816164E-02  0.1312668E+00
        -11   -1    0    0    0    0  0.00000000000E+00  0.00000000000E+00  0.45593999997E+02  0.45594000000E+02  0.51100000000E-03 0. -1.
         11   -1    0    0    0    0 -0.00000000000E+00 -0.00000000000E+00 -0.45593999997E+02  0.45594000000E+02  0.51100000000E-03 0.  1.
    9900012    2    1    2    0    0 -0.44664418974E+00  0.16423827412E+02  0.40170647676E+02  0.47787279584E+02  0.20000038936E+02 0.  0.
        -12    1    1    2    0    0  0.44664418974E+00 -0.16423827412E+02 -0.40170647676E+02  0.43400720416E+02  0.00000000000E+00 0.  1.
         11    1    3    3    0    0  0.49400941673E+01  0.40462117935E+01  0.86809680268E+01  0.10776621289E+02  0.51100000000E-03 0. -1.
        -11    1    3    3    0    0 -0.20461772350E+01  0.10717988489E+02  0.88042001346E+01  0.14020558434E+02  0.51100000000E-03 0.  1.
        -12    1    3    3    0    0 -0.33405611220E+01  0.16596271291E+01  0.22685479515E+02  0.22990099861E+02  0.00000000000E+00 0.  1.
</event>
<event>
 7    1  0.6181215E-009  0.4778728E+02  0.7816164E-02  0.1312668E+00
        -11   -1    0    0    0    0  0.00000000000E+00  0.00000000000E+00  0.45593999997E+02  0.45594000000E+02  0.51100000000E-03 0. -1.
         11   -1    0    0    0    0 -0.00000000000E+00 -0.00000000000E+00 -0.45593999997E+02  0.45594000000E+02  0.51100000000E-03 0.  1.
    9900012    2    1    2    0    0  0.21554799987E+02  0.26698669836E+02  0.26574318883E+02  0.47787276531E+02  0.20000025017E+02 0.  0.
        -12    1    1    2    0    0 -0.21554799987E+02 -0.26698669836E+02 -0.26574318883E+02  0.43400723469E+02  0.00000000000E+00 0.  1.
         11    1    3    3    0    0  0.13916038892E+02  0.22978412903E+02  0.18624530244E+02  0.32688480005E+02  0.51100000000E-03 0. -1.
        -11    1    3    3    0    0  0.26354368256E+01  0.44833233290E+01 -0.52580042245E+00  0.52270624330E+01  0.51100000000E-03 0.  1.
        -12    1    3    3    0    0  0.50033242700E+01 -0.76306639536E+00  0.84755890611E+01  0.98717340932E+01  0.00000000000E+00 0.  1.
</event>
<event>
 7    1  0.4011333E-009  0.4778728E+02  0.7816164E-02  0.1312668E+00
        -11   -1    0    0    0    0  0.00000000000E+00  0.00000000000E+00  0.45593999997E+02  0.45594000000E+02  0.51100000000E-03 0.  1.
         11   -1    0    0    0    0 -0.00000000000E+00 -0.00000000000E+00 -0.45593999997E+02  0.45594000000E+02  0.51100000000E-03 0. -1.
    9900012    2    1    2    0    0 -0.40692133567E+02 -0.11703045541E+02  0.95295259868E+01  0.47787275644E+02  0.20000020969E+02 0.  0.
        -12    1    1    2    0    0  0.40692133567E+02  0.11703045541E+02 -0.95295259868E+01  0.43400724356E+02  0.00000000000E+00 0.  1.
         11    1    3    3    0    0 -0.29357789936E+01 -0.19559955735E+01 -0.14938413280E+01  0.38309632153E+01  0.51100000000E-03 0. -1.
        -11    1    3    3    0    0 -0.86303688095E+01  0.49162710730E+01  0.21641218964E+01  0.10165451829E+02  0.51100000000E-03 0.  1.
         12    1    3    3    0    0 -0.29125985764E+02 -0.14663321040E+02  0.88592454184E+01  0.33790860599E+02  0.00000000000E+00 0. -1.
</event>
<event>
 7    1  0.4011333E-009  0.4778727E+02  0.7816164E-02  0.1312668E+00
        -11   -1    0    0    0    0  0.00000000000E+00  0.00000000000E+00  0.45593999997E+02  0.45594000000E+02  0.51100000000E-03 0.  1.
         11   -1    0    0    0    0 -0.00000000000E+00 -0.00000000000E+00 -0.45593999997E+02  0.45594000000E+02  0.51100000000E-03 0. -1.
    9900012    2    1    2    0    0  0.63018023382E+00  0.61926093427E+01 -0.42952039851E+02  0.47787271148E+02  0.20000000470E+02 0.  0.
        -12    1    1    2    0    0 -0.63018023382E+00 -0.61926093427E+01  0.42952039851E+02  0.43400728852E+02  0.00000000000E+00 0.  1.
         11    1    3    3    0    0 -0.23184663768E+01  0.28545417179E+01 -0.36346381916E+01  0.51705212314E+01  0.51100000000E-03 0. -1.
        -11    1    3    3    0    0  0.46787410413E+01  0.73910748131E+00 -0.19553585350E+01  0.51244828872E+01  0.51100000000E-03 0.  1.
         12    1    3    3    0    0 -0.17300944307E+01  0.25989601435E+01 -0.37362043124E+02  0.37492267029E+02  0.00000000000E+00 0. -1.
</event>
<event>
 7    1  0.4011333E-009  0.4778730E+02  0.7816164E-02  0.1312668E+00
        -11   -1    0    0    0    0  0.00000000000E+00  0.00000000000E+00  0.45593999997E+02  0.45594000000E+02  0.51100000000E-03 0. -1.
         11   -1    0    0    0    0 -0.00000000000E+00 -0.00000000000E+00 -0.45593999997E+02  0.45594000000E+02  0.51100000000E-03 0.  1.
    9900012    2    1    2    0    0  0.30634392139E+02  0.61364594920E+01  0.30124724062E+02  0.47787295897E+02  0.20000113314E+02 0.  0.
        -12    1    1    2    0    0 -0.30634392139E+02 -0.61364594920E+01 -0.30124724062E+02  0.43400704103E+02  0.00000000000E+00 0.  1.
         11    1    3    3    0    0  0.20228306436E+01 -0.30962873032E+01  0.51294924797E+00  0.37338928839E+01  0.51100000000E-03 0.  1.
        -11    1    3    3    0    0  0.47006948831E+00  0.97464194498E+00  0.68335274466E+01  0.69186696603E+01  0.51100000000E-03 0. -1.
         12    1    3    3    0    0  0.28141492007E+02  0.82581048502E+01  0.22778247367E+02  0.37134733353E+02  0.00000000000E+00 0. -1.
</event>
<event>
 7    1  0.4011333E-009  0.4778727E+02  0.7816164E-02  0.1312668E+00
        -11   -1    0    0    0    0  0.00000000000E+00  0.00000000000E+00  0.45593999997E+02  0.45594000000E+02  0.51100000000E-03 0.  1.
         11   -1    0    0    0    0 -0.00000000000E+00 -0.00000000000E+00 -0.45593999997E+02  0.45594000000E+02  0.51100000000E-03 0. -1.
    9900012    2    1    2    0    0  0.19181292235E+02 -0.22875730420E+02 -0.31502416102E+02  0.47787271500E+02  0.20000002078E+02 0.  0.
        -12    1    1    2    0    0 -0.19181292235E+02  0.22875730420E+02  0.31502416102E+02  0.43400728500E+02  0.00000000000E+00 0.  1.
         11    1    3    3    0    0 -0.14710431482E+01 -0.46327106931E+01 -0.23845426768E+01  0.54140576603E+01  0.51100000000E-03 0. -1.
        -11    1    3    3    0    0  0.44679416309E+01 -0.96527193363E+01 -0.41817673446E+01  0.11429115075E+02  0.51100000000E-03 0.  1.
         12    1    3    3    0    0  0.16184393753E+02 -0.85903003906E+01 -0.24936106080E+02  0.30944098765E+02  0.00000000000E+00 0. -1.
</event>
<event>
 7    1  0.4011333E-009  0.4778726E+02  0.7816164E-02  0.1312668E+00
        -11   -1    0    0    0    0  0.00000000000E+00  0.00000000000E+00  0.45593999997E+02  0.45594000000E+02  0.51100000000E-03 0. -1.
         11   -1    0    0    0    0 -0.00000000000E+00 -0.00000000000E+00 -0.45593999997E+02  0.45594000000E+02  0.51100000000E-03 0.  1.
    9900012    2    1    2    0    0 -0.15832355471E+02  0.20287706523E+02  0.34948094806E+02  0.47787264450E+02  0.19999969935E+02 0.  0.
        -12    1    1    2    0    0  0.15832355471E+02 -0.20287706523E+02 -0.34948094806E+02  0.43400735550E+02  0.00000000000E+00 0.  1.
         11    1    3    3    0    0 -0.73196901074E+00  0.80923812242E+01  0.47446510801E+01  0.94092574970E+01  0.51100000000E-03 0. -1.
        -11    1    3    3    0    0  0.15280671900E+01  0.20061499205E+01  0.11784393199E+00  0.25245820039E+01  0.51100000000E-03 0.  1.
        -12    1    3    3    0    0 -0.16628453650E+02  0.10189175378E+02  0.30085599794E+02  0.35853424950E+02  0.00000000000E+00 0.  1.
</event>
<event>
 7    1  0.4011333E-009  0.4778727E+02  0.7816164E-02  0.1312668E+00
        -11   -1    0    0    0    0  0.00000000000E+00  0.00000000000E+00  0.45593999997E+02  0.45594000000E+02  0.51100000000E-03 0.  1.
         11   -1    0    0    0    0 -0.00000000000E+00 -0.00000000000E+00 -0.45593999997E+02  0.45594000000E+02  0.51100000000E-03 0. -1.
    9900012    2    1    2    0    0  0.18735551923E+02  0.36236453968E+02 -0.14816279086E+02  0.47787266965E+02  0.19999981402E+02 0.  0.
        -12    1    1    2    0    0 -0.18735551923E+02 -0.36236453968E+02  0.14816279086E+02  0.43400733035E+02  0.00000000000E+00 0.  1.
         11    1    3    3    0    0  0.72835256529E+01  0.11276273276E+02 -0.83114962286E+01  0.15788763560E+02  0.51100000000E-03 0. -1.
        -11    1    3    3    0    0  0.12358422666E+02  0.13848538445E+02  0.95299803419E+00  0.18585500622E+02  0.51100000000E-03 0.  1.
         12    1    3    3    0    0 -0.90639639601E+00  0.11111642247E+02 -0.74577808915E+01  0.13413002784E+02  0.00000000000E+00 0. -1.
</event>
<event>
 7    1  0.4011333E-009  0.4778729E+02  0.7816164E-02  0.1312668E+00
        -11   -1    0    0    0    0  0.00000000000E+00  0.00000000000E+00  0.45593999997E+02  0.45594000000E+02  0.51100000000E-03 0.  1.
         11   -1    0    0    0    0 -0.00000000000E+00 -0.00000000000E+00 -0.45593999997E+02  0.45594000000E+02  0.51100000000E-03 0. -1.
    9900012    2    1    2    0    0  0.10023231161E+02  0.29081650286E+02 -0.30617220760E+02  0.47787288562E+02  0.20000079870E+02 0.  0.
        -12    1    1    2    0    0 -0.10023231161E+02 -0.29081650286E+02  0.30617220760E+02  0.43400711438E+02  0.00000000000E+00 0.  1.
         11    1    3    3    0    0  0.25847746771E+01  0.11184034277E+02 -0.23684893323E+02  0.26319913656E+02  0.51100000000E-03 0. -1.
        -11    1    3    3    0    0  0.12810364248E+01  0.33889231051E-01  0.14633475933E+00  0.12898127479E+01  0.51100000000E-03 0.  1.
         12    1    3    3    0    0  0.61574200586E+01  0.17863726778E+02 -0.70786621956E+01  0.20177562158E+02  0.00000000000E+00 0. -1.
</event>
<event>
 7    1  0.4011333E-009  0.4778727E+02  0.7816164E-02  0.1312668E+00
        -11   -1    0    0    0    0  0.00000000000E+00  0.00000000000E+00  0.45593999997E+02  0.45594000000E+02  0.51100000000E-03 0. -1.
         11   -1    0    0    0    0 -0.00000000000E+00 -0.00000000000E+00 -0.45593999997E+02  0.45594000000E+02  0.51100000000E-03 0.  1.
    9900012    2    1    2    0    0  0.30437856641E+02 -0.16508137778E+02  0.26165654053E+02  0.47787272105E+02  0.20000004838E+02 0.  0.
        -12    1    1    2    0    0 -0.30437856641E+02  0.16508137778E+02 -0.26165654053E+02  0.43400727895E+02  0.00000000000E+00 0.  1.
         11    1    3    3    0    0  0.59074366372E+01 -0.12548373665E+01  0.11754379439E+02  0.13215061888E+02  0.51100000000E-03 0. -1.
        -11    1    3    3    0    0  0.11402188557E+00  0.49604788770E-01 -0.16015159414E+01  0.16063359540E+01  0.51100000000E-03 0.  1.
         12    1    3    3    0    0  0.24416398118E+02 -0.15302905200E+02  0.16012790555E+02  0.32965874264E+02  0.00000000000E+00 0. -1.
</event>
<event>
 7    1  0.4011333E-009  0.4778723E+02  0.7816164E-02  0.1312668E+00
        -11   -1    0    0    0    0  0.00000000000E+00  0.00000000000E+00  0.45593999997E+02  0.45594000000E+02  0.51100000000E-03 0.  1.
         11   -1    0    0    0    0 -0.00000000000E+00 -0.00000000000E+00 -0.45593999997E+02  0.45594000000E+02  0.51100000000E-03 0. -1.
    9900012    2    1    2    0    0  0.42359119655E+01 -0.22272893148E+02 -0.37008137453E+02  0.47787228612E+02  0.19999806531E+02 0.  0.
        -12    1    1    2    0    0 -0.42359119655E+01  0.22272893148E+02  0.37008137453E+02  0.43400771388E+02  0.00000000000E+00 0.  1.
         11    1    3    3    0    0  0.22623573260E+01 -0.83741894644E+01 -0.75326220928E+01  0.11488503197E+02  0.51100000000E-03 0. -1.
        -11    1    3    3    0    0 -0.12644140704E+01 -0.57655393267E+01 -0.37995388436E+00  0.59147740350E+01  0.51100000000E-03 0.  1.
         12    1    3    3    0    0  0.32379687099E+01 -0.81331643566E+01 -0.29095561476E+02  0.30383951379E+02  0.00000000000E+00 0. -1.
</event>
<event>
 7    1  0.4011333E-009  0.4778727E+02  0.7816164E-02  0.1312668E+00
        -11   -1    0    0    0    0  0.00000000000E+00  0.00000000000E+00  0.45593999997E+02  0.45594000000E+02  0.51100000000E-03 0. -1.
         11   -1    0    0    0    0 -0.00000000000E+00 -0.00000000000E+00 -0.45593999997E+02  0.45594000000E+02  0.51100000000E-03 0.  1.
    9900012    2    1    2    0    0 -0.19154145884E+02 -0.25943841826E+02  0.29045810030E+02  0.47787270588E+02  0.19999997917E+02 0.  0.
        -12    1    1    2    0    0  0.19154145884E+02  0.25943841826E+02 -0.29045810030E+02  0.43400729412E+02  0.00000000000E+00 0.  1.
         11    1    3    3    0    0 -0.53050996727E+01 -0.34739780076E+01 -0.48924678056E+00  0.63601861928E+01  0.51100000000E-03 0. -1.
        -11    1    3    3    0    0 -0.18868989836E+01  0.53443016292E+00 -0.20436917546E+00  0.19717429839E+01  0.51100000000E-03 0.  1.
         12    1    3    3    0    0 -0.11962147228E+02 -0.23004293981E+02  0.29739425986E+02  0.39455341411E+02  0.00000000000E+00 0. -1.
</event>
<event>
 7    1  0.4011333E-009  0.4778729E+02  0.7816164E-02  0.1312668E+00
        -11   -1    0    0    0    0  0.00000000000E+00  0.00000000000E+00  0.45593999997E+02  0.45594000000E+02  0.51100000000E-03 0. -1.
         11   -1    0    0    0    0 -0.00000000000E+00 -0.00000000000E+00 -0.45593999997E+02  0.45594000000E+02  0.51100000000E-03 0.  1.
    9900012    2    1    2    0    0  0.15748075222E+02 -0.36517716082E+02 -0.17380345019E+02  0.47787287402E+02  0.20000074579E+02 0.  0.
        -12    1    1    2    0    0 -0.15748075222E+02  0.36517716082E+02  0.17380345019E+02  0.43400712598E+02  0.00000000000E+00 0.  1.
         11    1    3    3    0    0 -0.18790081378E+01 -0.11819413836E+01 -0.13455038816E+01  0.25957730974E+01  0.51100000000E-03 0. -1.
        -11    1    3    3    0    0 -0.25055829409E+01 -0.29680120481E+01 -0.29943749821E+01  0.49044187409E+01  0.51100000000E-03 0.  1.
         12    1    3    3    0    0  0.20132666301E+02 -0.32367762650E+02 -0.13040466156E+02  0.40287095563E+02  0.00000000000E+00 0. -1.
</event>
<event>
 7    1  0.4011333E-009  0.4778727E+02  0.7816164E-02  0.1312668E+00
        -11   -1    0    0    0    0  0.00000000000E+00  0.00000000000E+00  0.45593999997E+02  0.45594000000E+02  0.51100000000E-03 0.  1.
         11   -1    0    0    0    0 -0.00000000000E+00 -0.00000000000E+00 -0.45593999997E+02  0.45594000000E+02  0.51100000000E-03 0. -1.
    9900012    2    1    2    0    0 -0.19559357950E+02 -0.29911255317E+02 -0.24624618296E+02  0.47787268390E+02  0.19999987898E+02 0.  0.
        -12    1    1    2    0    0  0.19559357950E+02  0.29911255317E+02  0.24624618296E+02  0.43400731610E+02  0.00000000000E+00 0.  1.
         11    1    3    3    0    0 -0.97930623804E+01 -0.26133588353E+01 -0.78641541263E+01  0.12828820506E+02  0.51100000000E-03 0. -1.
        -11    1    3    3    0    0 -0.20553480896E+01  0.25092782010E+00 -0.10856476861E+01  0.23379588747E+01  0.51100000000E-03 0.  1.
        -12    1    3    3    0    0 -0.77109474800E+01 -0.27548824301E+02 -0.15674816484E+02  0.32620489010E+02  0.00000000000E+00 0.  1.
</event>
<event>
 7    1  0.4011333E-009  0.4778727E+02  0.7816164E-02  0.1312668E+00
        -11   -1    0    0    0    0  0.00000000000E+00  0.00000000000E+00  0.45593999997E+02  0.45594000000E+02  0.51100000000E-03 0.  1.
         11   -1    0    0    0    0 -0.00000000000E+00 -0.00000000000E+00 -0.45593999997E+02  0.45594000000E+02  0.51100000000E-03 0. -1.
    9900012    2    1    2    0    0  0.16678713037E+02  0.30992156098E+02 -0.25395477395E+02  0.47787268667E+02  0.19999989159E+02 0.  0.
        -12    1    1    2    0    0 -0.16678713037E+02 -0.30992156098E+02  0.25395477395E+02  0.43400731333E+02  0.00000000000E+00 0.  1.
         11    1    3    3    0    0  0.15882132321E+01  0.85470825793E+01 -0.71978734021E+01  0.11286470824E+02  0.51100000000E-03 0. -1.
        -11    1    3    3    0    0  0.53434877566E+01  0.65472209122E+01  0.23313326319E+01  0.87666456059E+01  0.51100000000E-03 0.  1.
        -12    1    3    3    0    0  0.97470120486E+01  0.15897852606E+02 -0.20528936625E+02  0.27734152237E+02  0.00000000000E+00 0.  1.
</event>
<event>
 7    1  0.4011333E-009  0.4778727E+02  0.7816164E-02  0.1312668E+00
        -11   -1    0    0    0    0  0.00000000000E+00  0.00000000000E+00  0.45593999997E+02  0.45594000000E+02  0.51100000000E-03 0.  1.
         11   -1    0    0    0    0 -0.00000000000E+00 -0.00000000000E+00 -0.45593999997E+02  0.45594000000E+02  0.51100000000E-03 0. -1.
    9900012    2    1    2    0    0  0.74984367342E+01  0.19498407039E+02 -0.38042196873E+02  0.47787272201E+02  0.20000005274E+02 0.  0.
        -12    1    1    2    0    0 -0.74984367342E+01 -0.19498407039E+02  0.38042196873E+02  0.43400727799E+02  0.00000000000E+00 0.  1.
         11    1    3    3    0    0  0.48276131522E+01  0.10533214309E+02 -0.16889496567E+02  0.20481932208E+02  0.51100000000E-03 0. -1.
        -11    1    3    3    0    0  0.59701595070E+01  0.99216959780E+01 -0.20859140124E+02  0.23857631538E+02  0.51100000000E-03 0.  1.
        -12    1    3    3    0    0 -0.32993359249E+01 -0.95650324771E+00 -0.29356018149E+00  0.34477084547E+01  0.00000000000E+00 0.  1.
</event>
<event>
 7    1  0.4011333E-009  0.4778727E+02  0.7816164E-02  0.1312668E+00
        -11   -1    0    0    0    0  0.00000000000E+00  0.00000000000E+00  0.45593999997E+02  0.45594000000E+02  0.51100000000E-03 0.  1.
         11   -1    0    0    0    0 -0.00000000000E+00 -0.00000000000E+00 -0.45593999997E+02  0.45594000000E+02  0.51100000000E-03 0. -1.
    9900012    2    1    2    0    0  0.49440012183E+01 -0.26438487931E+00 -0.43117399760E+02  0.47787271786E+02  0.20000003383E+02 0.  0.
        -12    1    1    2    0    0 -0.49440012183E+01  0.26438487931E+00  0.43117399760E+02  0.43400728214E+02  0.00000000000E+00 0.  1.
         11    1    3    3    0    0  0.34045645108E+01  0.51771991275E+01 -0.70824546716E+01  0.94103992876E+01  0.51100000000E-03 0. -1.
        -11    1    3    3    0    0  0.29969415221E+01 -0.30764771444E+01 -0.30322717853E+01  0.52574749213E+01  0.51100000000E-03 0.  1.
        -12    1    3    3    0    0 -0.14575048146E+01 -0.23651068624E+01 -0.33002673303E+02  0.33119397578E+02  0.00000000000E+00 0.  1.
</event>
<event>
 7    1  0.4011333E-009  0.4778728E+02  0.7816164E-02  0.1312668E+00
        -11   -1    0    0    0    0  0.00000000000E+00  0.00000000000E+00  0.45593999997E+02  0.45594000000E+02  0.51100000000E-03 0.  1.
         11   -1    0    0    0    0 -0.00000000000E+00 -0.00000000000E+00 -0.45593999997E+02  0.45594000000E+02  0.51100000000E-03 0. -1.
    9900012    2    1    2    0    0 -0.20090363610E+02  0.17532066128E+02 -0.34243639823E+02  0.47787275109E+02  0.20000018533E+02 0.  0.
        -12    1    1    2    0    0  0.20090363610E+02 -0.17532066128E+02  0.34243639823E+02  0.43400724891E+02  0.00000000000E+00 0.  1.
         11    1    3    3    0    0 -0.48190423522E+01 -0.44976842686E+00 -0.14159745462E+02  0.14964085426E+02  0.51100000000E-03 0. -1.
        -11    1    3    3    0    0 -0.74800150344E+01  0.15740543943E+01 -0.43653892169E+01  0.88025505070E+01  0.51100000000E-03 0.  1.
         12    1    3    3    0    0 -0.77913062236E+01  0.16407780160E+02 -0.15718505144E+02  0.24020639176E+02  0.00000000000E+00 0. -1.
</event>
<event>
 7    1  0.4011333E-009  0.4778726E+02  0.7816164E-02  0.1312668E+00
        -11   -1    0    0    0    0  0.00000000000E+00  0.00000000000E+00  0.45593999997E+02  0.45594000000E+02  0.51100000000E-03 0.  1.
         11   -1    0    0    0    0 -0.00000000000E+00 -0.00000000000E+00 -0.45593999997E+02  0.45594000000E+02  0.51100000000E-03 0. -1.
    9900012    2    1    2    0    0 -0.10045708704E+02 -0.28456058346E+02 -0.31192315384E+02  0.47787261999E+02  0.19999958760E+02 0.  0.
        -12    1    1    2    0    0  0.10045708704E+02  0.28456058346E+02  0.31192315384E+02  0.43400738001E+02  0.00000000000E+00 0.  1.
         11    1    3    3    0    0 -0.29678606065E+01  0.77821771325E+00 -0.76319610563E+01  0.82256093522E+01  0.51100000000E-03 0.  1.
        -11    1    3    3    0    0 -0.37362286059E+01 -0.26977925818E+01 -0.60021369011E+01  0.75672410197E+01  0.51100000000E-03 0. -1.
         12    1    3    3    0    0 -0.33416194917E+01 -0.26536483478E+02 -0.17558217427E+02  0.31994411628E+02  0.00000000000E+00 0. -1.
</event>
<event>
 7    1  0.4011333E-009  0.4778726E+02  0.7816164E-02  0.1312668E+00
        -11   -1    0    0    0    0  0.00000000000E+00  0.00000000000E+00  0.45593999997E+02  0.45594000000E+02  0.51100000000E-03 0. -1.
         11   -1    0    0    0    0 -0.00000000000E+00 -0.00000000000E+00 -0.45593999997E+02  0.45594000000E+02  0.51100000000E-03 0.  1.
    9900012    2    1    2    0    0 -0.12478098315E+02 -0.17011025035E+02  0.37928173561E+02  0.47787259684E+02  0.19999948203E+02 0.  0.
        -12    1    1    2    0    0  0.12478098315E+02  0.17011025035E+02 -0.37928173561E+02  0.43400740316E+02  0.00000000000E+00 0.  1.
         11    1    3    3    0    0  0.22337820071E+01 -0.87780268786E+01  0.61243911795E+01  0.10933970254E+02  0.51100000000E-03 0.  1.
        -11    1    3    3    0    0 -0.23728481101E+01  0.15747204009E+01  0.44530375349E+01  0.52858013624E+01  0.51100000000E-03 0. -1.
        -12    1    3    3    0    0 -0.12339032212E+02 -0.98077185575E+01  0.27350744846E+02  0.31567488068E+02  0.00000000000E+00 0.  1.
</event>
<event>
 7    1  0.4011333E-009  0.4778727E+02  0.7816164E-02  0.1312668E+00
        -11   -1    0    0    0    0  0.00000000000E+00  0.00000000000E+00  0.45593999997E+02  0.45594000000E+02  0.51100000000E-03 0.  1.
         11   -1    0    0    0    0 -0.00000000000E+00 -0.00000000000E+00 -0.45593999997E+02  0.45594000000E+02  0.51100000000E-03 0. -1.
    9900012    2    1    2    0    0 -0.31165592485E+02 -0.19892920507E+02 -0.22728854202E+02  0.47787271267E+02  0.20000001015E+02 0.  0.
        -12    1    1    2    0    0  0.31165592485E+02  0.19892920507E+02  0.22728854202E+02  0.43400728733E+02  0.00000000000E+00 0.  1.
         11    1    3    3    0    0 -0.10554510257E+02 -0.96702065715E+01 -0.25823606355E+01  0.14545761191E+02  0.51100000000E-03 0. -1.
        -11    1    3    3    0    0 -0.35861775372E+01 -0.62768697232E+01 -0.96604012607E+00  0.72933529077E+01  0.51100000000E-03 0.  1.
         12    1    3    3    0    0 -0.17024904691E+02 -0.39458442119E+01 -0.19180453440E+02  0.25948157169E+02  0.00000000000E+00 0. -1.
</event>
<event>
 7    1  0.4011333E-009  0.4778727E+02  0.7816164E-02  0.1312668E+00
        -11   -1    0    0    0    0  0.00000000000E+00  0.00000000000E+00  0.45593999997E+02  0.45594000000E+02  0.51100000000E-03 0. -1.
         11   -1    0    0    0    0 -0.00000000000E+00 -0.00000000000E+00 -0.45593999997E+02  0.45594000000E+02  0.51100000000E-03 0.  1.
    9900012    2    1    2    0    0  0.25113992305E+02 -0.29659378298E+02  0.19319203565E+02  0.47787274697E+02  0.20000016651E+02 0.  0.
        -12    1    1    2    0    0 -0.25113992305E+02  0.29659378298E+02 -0.19319203565E+02  0.43400725303E+02  0.00000000000E+00 0.  1.
         11    1    3    3    0    0  0.29477916393E+01 -0.56598488675E+01  0.80651799843E+01  0.10284478265E+02  0.51100000000E-03 0. -1.
        -11    1    3    3    0    0  0.10500256344E+02 -0.99084796969E+01  0.12596664689E+02  0.19160096939E+02  0.51100000000E-03 0.  1.
        -12    1    3    3    0    0  0.11665944321E+02 -0.14091049733E+02 -0.13426411079E+01  0.18342699492E+02  0.00000000000E+00 0.  1.
</event>
<event>
 7    1  0.4011333E-009  0.4778727E+02  0.7816164E-02  0.1312668E+00
        -11   -1    0    0    0    0  0.00000000000E+00  0.00000000000E+00  0.45593999997E+02  0.45594000000E+02  0.51100000000E-03 0.  1.
         11   -1    0    0    0    0 -0.00000000000E+00 -0.00000000000E+00 -0.45593999997E+02  0.45594000000E+02  0.51100000000E-03 0. -1.
    9900012    2    1    2    0    0 -0.11872919708E+02 -0.18843317462E+02 -0.37250327755E+02  0.47787265522E+02  0.19999974822E+02 0.  0.
        -12    1    1    2    0    0  0.11872919708E+02  0.18843317462E+02  0.37250327755E+02  0.43400734478E+02  0.00000000000E+00 0.  1.
         11    1    3    3    0    0 -0.11165867921E+02 -0.41366497659E+01 -0.16316465077E+02  0.20199393817E+02  0.51100000000E-03 0. -1.
        -11    1    3    3    0    0 -0.50965274802E+01 -0.47635078115E+01 -0.97903536405E+01  0.12021506715E+02  0.51100000000E-03 0.  1.
        -12    1    3    3    0    0  0.43894756925E+01 -0.99431598843E+01 -0.11143509037E+02  0.15566364990E+02  0.00000000000E+00 0.  1.
</event>
<event>
 7    1  0.4011333E-009  0.4778727E+02  0.7816164E-02  0.1312668E+00
        -11   -1    0    0    0    0  0.00000000000E+00  0.00000000000E+00  0.45593999997E+02  0.45594000000E+02  0.51100000000E-03 0. -1.
         11   -1    0    0    0    0 -0.00000000000E+00 -0.00000000000E+00 -0.45593999997E+02  0.45594000000E+02  0.51100000000E-03 0.  1.
    9900012    2    1    2    0    0 -0.16884759683E+02 -0.33316234608E+02  0.22103324331E+02  0.47787267927E+02  0.19999985786E+02 0.  0.
        -12    1    1    2    0    0  0.16884759683E+02  0.33316234608E+02 -0.22103324331E+02  0.43400732073E+02  0.00000000000E+00 0.  1.
         11    1    3    3    0    0 -0.28042742476E+01  0.20931544232E+00  0.26153929690E+00  0.28242114076E+01  0.51100000000E-03 0. -1.
        -11    1    3    3    0    0 -0.68941024918E+01 -0.13107408207E+02  0.17429892038E+02  0.22872121366E+02  0.51100000000E-03 0.  1.
        -12    1    3    3    0    0 -0.71863829437E+01 -0.20418141843E+02  0.44118929964E+01  0.22090935153E+02  0.00000000000E+00 0.  1.
</event>
<event>
 7    1  0.4011333E-009  0.4778727E+02  0.7816164E-02  0.1312668E+00
        -11   -1    0    0    0    0  0.00000000000E+00  0.00000000000E+00  0.45593999997E+02  0.45594000000E+02  0.51100000000E-03 0.  1.
         11   -1    0    0    0    0 -0.00000000000E+00 -0.00000000000E+00 -0.45593999997E+02  0.45594000000E+02  0.51100000000E-03 0. -1.
    9900012    2    1    2    0    0  0.36926793061E+02  0.12319494425E+02 -0.19190241969E+02  0.47787269874E+02  0.19999994663E+02 0.  0.
        -12    1    1    2    0    0 -0.36926793061E+02 -0.12319494425E+02  0.19190241969E+02  0.43400730126E+02  0.00000000000E+00 0.  1.
         11    1    3    3    0    0  0.19656142615E+01  0.28487515130E+01 -0.55152991090E+01  0.65113400411E+01  0.51100000000E-03 0. -1.
        -11    1    3    3    0    0  0.90329506394E+01  0.70489448272E+01  0.79378316114E+00  0.11485291133E+02  0.51100000000E-03 0.  1.
         12    1    3    3    0    0  0.25928228160E+02  0.24217980847E+01 -0.14468726021E+02  0.29790638700E+02  0.00000000000E+00 0. -1.
</event>
<event>
 7    1  0.4011333E-009  0.4778727E+02  0.7816164E-02  0.1312668E+00
        -11   -1    0    0    0    0  0.00000000000E+00  0.00000000000E+00  0.45593999997E+02  0.45594000000E+02  0.51100000000E-03 0.  1.
         11   -1    0    0    0    0 -0.00000000000E+00 -0.00000000000E+00 -0.45593999997E+02  0.45594000000E+02  0.51100000000E-03 0. -1.
    9900012    2    1    2    0    0  0.29067226171E+02  0.11297925738E+02 -0.30184043031E+02  0.47787271700E+02  0.20000002990E+02 0.  0.
        -12    1    1    2    0    0 -0.29067226171E+02 -0.11297925738E+02  0.30184043031E+02  0.43400728300E+02  0.00000000000E+00 0.  1.
         11    1    3    3    0    0  0.67621995287E+00  0.45957540012E+00 -0.68749838458E+01  0.69234302275E+01  0.51100000000E-03 0. -1.
        -11    1    3    3    0    0  0.47278487017E+01  0.72619692215E+01 -0.21705124582E+01  0.89330775722E+01  0.51100000000E-03 0.  1.
        -12    1    3    3    0    0  0.23663157516E+02  0.35763811160E+01 -0.21138546727E+02  0.31930763901E+02  0.00000000000E+00 0.  1.
</event>
<event>
 7    1  0.4011333E-009  0.4778724E+02  0.7816164E-02  0.1312668E+00
        -11   -1    0    0    0    0  0.00000000000E+00  0.00000000000E+00  0.45593999997E+02  0.45594000000E+02  0.51100000000E-03 0.  1.
         11   -1    0    0    0    0 -0.00000000000E+00 -0.00000000000E+00 -0.45593999997E+02  0.45594000000E+02  0.51100000000E-03 0. -1.
    9900012    2    1    2    0    0 -0.16895044410E+02  0.24664983377E+02 -0.31461431861E+02  0.47787243954E+02  0.19999876484E+02 0.  0.
        -12    1    1    2    0    0  0.16895044410E+02 -0.24664983377E+02  0.31461431861E+02  0.43400756046E+02  0.00000000000E+00 0.  1.
         11    1    3    3    0    0 -0.18937373646E+02  0.22344677869E+02 -0.24708140306E+02  0.38319720084E+02  0.51100000000E-03 0. -1.
        -11    1    3    3    0    0 -0.14279033910E+01 -0.70912296196E+00 -0.34453210167E+01  0.37963140859E+01  0.51100000000E-03 0.  1.
        -12    1    3    3    0    0  0.34702326264E+01  0.30294284697E+01 -0.33079705385E+01  0.56712097843E+01  0.00000000000E+00 0.  1.
</event>
<event>
 7    1  0.4011333E-009  0.4778727E+02  0.7816164E-02  0.1312668E+00
        -11   -1    0    0    0    0  0.00000000000E+00  0.00000000000E+00  0.45593999997E+02  0.45594000000E+02  0.51100000000E-03 0. -1.
         11   -1    0    0    0    0 -0.00000000000E+00 -0.00000000000E+00 -0.45593999997E+02  0.45594000000E+02  0.51100000000E-03 0.  1.
    9900012    2    1    2    0    0 -0.11418758778E+02  0.41075849439E+02  0.81246512222E+01  0.47787269400E+02  0.19999992501E+02 0.  0.
        -12    1    1    2    0    0  0.11418758778E+02 -0.41075849439E+02 -0.81246512222E+01  0.43400730600E+02  0.00000000000E+00 0.  1.
         11    1    3    3    0    0  0.18482326443E+00  0.51850018532E+01 -0.74154517958E-01  0.51888248198E+01  0.51100000000E-03 0. -1.
        -11    1    3    3    0    0 -0.38441461174E+01  0.33194580165E+02  0.80963702113E+01  0.34383263698E+02  0.51100000000E-03 0.  1.
        -12    1    3    3    0    0 -0.77594359251E+01  0.26962674212E+01  0.10243552888E+00  0.82151808817E+01  0.00000000000E+00 0.  1.
</event>
<event>
 7    1  0.4011333E-009  0.4778727E+02  0.7816164E-02  0.1312668E+00
        -11   -1    0    0    0    0  0.00000000000E+00  0.00000000000E+00  0.45593999997E+02  0.45594000000E+02  0.51100000000E-03 0.  1.
         11   -1    0    0    0    0 -0.00000000000E+00 -0.00000000000E+00 -0.45593999997E+02  0.45594000000E+02  0.51100000000E-03 0. -1.
    9900012    2    1    2    0    0 -0.28513309234E+02  0.32689130142E+02  0.14267055639E+01  0.47787268190E+02  0.19999986984E+02 0.  0.
        -12    1    1    2    0    0  0.28513309234E+02 -0.32689130142E+02 -0.14267055639E+01  0.43400731810E+02  0.00000000000E+00 0.  1.
         11    1    3    3    0    0 -0.11264969043E+02  0.17681123070E+02 -0.38053313454E+01  0.21307327084E+02  0.51100000000E-03 0. -1.
        -11    1    3    3    0    0 -0.13233481715E+02  0.16283472134E+02  0.66879907527E+01  0.22022845493E+02  0.51100000000E-03 0.  1.
         12    1    3    3    0    0 -0.40148584755E+01 -0.12754650621E+01 -0.14559538435E+01  0.44570956123E+01  0.00000000000E+00 0. -1.
</event>
<event>
 7    1  0.4011333E-009  0.4778727E+02  0.7816164E-02  0.1312668E+00
        -11   -1    0    0    0    0  0.00000000000E+00  0.00000000000E+00  0.45593999997E+02  0.45594000000E+02  0.51100000000E-03 0.  1.
         11   -1    0    0    0    0 -0.00000000000E+00 -0.00000000000E+00 -0.45593999997E+02  0.45594000000E+02  0.51100000000E-03 0. -1.
    9900012    2    1    2    0    0  0.39978378554E+02  0.99184018758E+01 -0.13673980933E+02  0.47787271871E+02  0.20000003769E+02 0.  0.
        -12    1    1    2    0    0 -0.39978378554E+02 -0.99184018758E+01  0.13673980933E+02  0.43400728129E+02  0.00000000000E+00 0.  1.
         11    1    3    3    0    0  0.45140232816E+01  0.21557240922E+01  0.48196390133E+00  0.50255190788E+01  0.51100000000E-03 0. -1.
        -11    1    3    3    0    0  0.74346220743E+01 -0.40377839086E+01 -0.81791564075E+01  0.11767578514E+02  0.51100000000E-03 0.  1.
         12    1    3    3    0    0  0.28029733198E+02  0.11800461692E+02 -0.59767884269E+01  0.30994174278E+02  0.00000000000E+00 0. -1.
</event>
<event>
 7    1  0.4011333E-009  0.4778727E+02  0.7816164E-02  0.1312668E+00
        -11   -1    0    0    0    0  0.00000000000E+00  0.00000000000E+00  0.45593999997E+02  0.45594000000E+02  0.51100000000E-03 0.  1.
         11   -1    0    0    0    0 -0.00000000000E+00 -0.00000000000E+00 -0.45593999997E+02  0.45594000000E+02  0.51100000000E-03 0. -1.
    9900012    2    1    2    0    0  0.20028615796E+02 -0.15376759093E+02 -0.35299191984E+02  0.47787272752E+02  0.20000007786E+02 0.  0.
        -12    1    1    2    0    0 -0.20028615796E+02  0.15376759093E+02  0.35299191984E+02  0.43400727248E+02  0.00000000000E+00 0.  1.
         11    1    3    3    0    0 -0.29621778197E+01 -0.25410258636E+01 -0.30068804542E+01  0.49267271288E+01  0.51100000000E-03 0. -1.
        -11    1    3    3    0    0  0.10861265070E+02 -0.99299831821E+01 -0.23007107510E+02  0.27311144999E+02  0.51100000000E-03 0.  1.
        -12    1    3    3    0    0  0.12129528546E+02 -0.29057500473E+01 -0.92852040196E+01  0.15549400624E+02  0.00000000000E+00 0.  1.
</event>
<event>
 7    1  0.4011333E-009  0.4778727E+02  0.7816164E-02  0.1312668E+00
        -11   -1    0    0    0    0  0.00000000000E+00  0.00000000000E+00  0.45593999997E+02  0.45594000000E+02  0.51100000000E-03 0. -1.
         11   -1    0    0    0    0 -0.00000000000E+00 -0.00000000000E+00 -0.45593999997E+02  0.45594000000E+02  0.51100000000E-03 0.  1.
    9900012    2    1    2    0    0  0.10082528997E+02 -0.41683489900E+02  0.66672625027E+01  0.47787272926E+02  0.20000008580E+02 0.  0.
        -12    1    1    2    0    0 -0.10082528997E+02  0.41683489900E+02 -0.66672625027E+01  0.43400727074E+02  0.00000000000E+00 0.  1.
         11    1    3    3    0    0  0.17064508832E+01 -0.11661766113E+01  0.42189952588E+01  0.46980702166E+01  0.51100000000E-03 0. -1.
        -11    1    3    3    0    0 -0.92745306054E+00 -0.16086136505E+02  0.48749575036E+01  0.16834166679E+02  0.51100000000E-03 0.  1.
        -12    1    3    3    0    0  0.93035311745E+01 -0.24431176784E+02 -0.24266902597E+01  0.26255036031E+02  0.00000000000E+00 0.  1.
</event>
<event>
 7    1  0.4011333E-009  0.4778727E+02  0.7816164E-02  0.1312668E+00
        -11   -1    0    0    0    0  0.00000000000E+00  0.00000000000E+00  0.45593999997E+02  0.45594000000E+02  0.51100000000E-03 0.  1.
         11   -1    0    0    0    0 -0.00000000000E+00 -0.00000000000E+00 -0.45593999997E+02  0.45594000000E+02  0.51100000000E-03 0. -1.
    9900012    2    1    2    0    0 -0.36865227811E+02 -0.13085438178E+02 -0.18797598044E+02  0.47787269522E+02  0.19999993057E+02 0.  0.
        -12    1    1    2    0    0  0.36865227811E+02  0.13085438178E+02  0.18797598044E+02  0.43400730478E+02  0.00000000000E+00 0.  1.
         11    1    3    3    0    0 -0.44005176997E+01 -0.60436642542E+01 -0.49597236435E+01  0.89715824983E+01  0.51100000000E-03 0. -1.
        -11    1    3    3    0    0  0.13509837145E+01 -0.10495330657E+01 -0.16438897771E+01  0.23725620146E+01  0.51100000000E-03 0.  1.
         12    1    3    3    0    0 -0.33815693826E+02 -0.59922408578E+01 -0.12193984623E+02  0.36443125009E+02  0.00000000000E+00 0. -1.
</event>
<event>
 7    1  0.4011333E-009  0.4778727E+02  0.7816164E-02  0.1312668E+00
        -11   -1    0    0    0    0  0.00000000000E+00  0.00000000000E+00  0.45593999997E+02  0.45594000000E+02  0.51100000000E-03 0.  1.
         11   -1    0    0    0    0 -0.00000000000E+00 -0.00000000000E+00 -0.45593999997E+02  0.45594000000E+02  0.51100000000E-03 0. -1.
    9900012    2    1    2    0    0 -0.36025468544E+02  0.24200068003E+02 -0.38142369020E+00  0.47787272365E+02  0.20000006021E+02 0.  0.
        -12    1    1    2    0    0  0.36025468544E+02 -0.24200068003E+02  0.38142369020E+00  0.43400727635E+02  0.00000000000E+00 0.  1.
         11    1    3    3    0    0 -0.26047670694E+01  0.74854735476E+01 -0.45631716408E+00  0.79388507564E+01  0.51100000000E-03 0.  1.
        -11    1    3    3    0    0 -0.90201029094E+01  0.11973632487E+02  0.11893429580E+00  0.14991473479E+02  0.51100000000E-03 0. -1.
        -12    1    3    3    0    0 -0.24400598566E+02  0.47409619685E+01 -0.44040821910E-01  0.24856948130E+02  0.00000000000E+00 0.  1.
</event>
<event>
 7    1  0.4011333E-009  0.4778727E+02  0.7816164E-02  0.1312668E+00
        -11   -1    0    0    0    0  0.00000000000E+00  0.00000000000E+00  0.45593999997E+02  0.45594000000E+02  0.51100000000E-03 0. -1.
         11   -1    0    0    0    0 -0.00000000000E+00 -0.00000000000E+00 -0.45593999997E+02  0.45594000000E+02  0.51100000000E-03 0.  1.
    9900012    2    1    2    0    0  0.29960776058E+02  0.36401109944E+01  0.31188533847E+02  0.47787272430E+02  0.20000006319E+02 0.  0.
        -12    1    1    2    0    0 -0.29960776058E+02 -0.36401109944E+01 -0.31188533847E+02  0.43400727570E+02  0.00000000000E+00 0.  1.
         11    1    3    3    0    0  0.39163185579E+01 -0.19910135898E+01  0.12569959375E+00  0.43951663007E+01  0.51100000000E-03 0. -1.
        -11    1    3    3    0    0  0.23576441875E+02 -0.53533378812E+00  0.22941552595E+02  0.32900608345E+02  0.51100000000E-03 0.  1.
         12    1    3    3    0    0  0.24680156249E+01  0.61664583724E+01  0.81212816583E+01  0.10491497784E+02  0.00000000000E+00 0. -1.
</event>
<event>
 7    1  0.4011333E-009  0.4778726E+02  0.7816164E-02  0.1312668E+00
        -11   -1    0    0    0    0  0.00000000000E+00  0.00000000000E+00  0.45593999997E+02  0.45594000000E+02  0.51100000000E-03 0. -1.
         11   -1    0    0    0    0 -0.00000000000E+00 -0.00000000000E+00 -0.45593999997E+02  0.45594000000E+02  0.51100000000E-03 0.  1.
    9900012    2    1    2    0    0 -0.29888432036E+02 -0.28916728671E+02  0.12414848906E+02  0.47787262219E+02  0.19999959759E+02 0.  0.
        -12    1    1    2    0    0  0.29888432036E+02  0.28916728671E+02 -0.12414848906E+02  0.43400737781E+02  0.00000000000E+00 0.  1.
         11    1    3    3    0    0 -0.10705723238E+02 -0.17044455292E+01  0.37084013803E+01  0.11457307086E+02  0.51100000000E-03 0. -1.
        -11    1    3    3    0    0 -0.93813787865E+01 -0.42761154942E+01  0.30863965003E+01  0.10762029329E+02  0.51100000000E-03 0.  1.
        -12    1    3    3    0    0 -0.98013300114E+01 -0.22936167648E+02  0.56200510256E+01  0.25567925804E+02  0.00000000000E+00 0.  1.
</event>
<event>
 7    1  0.4011333E-009  0.4778727E+02  0.7816164E-02  0.1312668E+00
        -11   -1    0    0    0    0  0.00000000000E+00  0.00000000000E+00  0.45593999997E+02  0.45594000000E+02  0.51100000000E-03 0.  1.
         11   -1    0    0    0    0 -0.00000000000E+00 -0.00000000000E+00 -0.45593999997E+02  0.45594000000E+02  0.51100000000E-03 0. -1.
    9900012    2    1    2    0    0  0.10880361379E+02  0.31428920745E+02 -0.27883043115E+02  0.47787269404E+02  0.19999992520E+02 0.  0.
        -12    1    1    2    0    0 -0.10880361379E+02 -0.31428920745E+02  0.27883043115E+02  0.43400730596E+02  0.00000000000E+00 0.  1.
         11    1    3    3    0    0  0.42896341518E+01  0.13385603483E+02 -0.10883558935E+02  0.17777153797E+02  0.51100000000E-03 0. -1.
        -11    1    3    3    0    0  0.73417082034E+01  0.91241072185E+01 -0.10978865452E+01  0.11762455824E+02  0.51100000000E-03 0.  1.
        -12    1    3    3    0    0 -0.75098097660E+00  0.89192100439E+01 -0.15901597635E+02  0.18247659783E+02  0.00000000000E+00 0.  1.
</event>
<event>
 7    1  0.4011333E-009  0.4778727E+02  0.7816164E-02  0.1312668E+00
        -11   -1    0    0    0    0  0.00000000000E+00  0.00000000000E+00  0.45593999997E+02  0.45594000000E+02  0.51100000000E-03 0. -1.
         11   -1    0    0    0    0 -0.00000000000E+00 -0.00000000000E+00 -0.45593999997E+02  0.45594000000E+02  0.51100000000E-03 0.  1.
    9900012    2    1    2    0    0  0.16600299928E+02 -0.24896794620E+02 -0.31435702698E+02  0.47787265626E+02  0.19999975297E+02 0.  0.
        -12    1    1    2    0    0 -0.16600299928E+02  0.24896794620E+02  0.31435702698E+02  0.43400734374E+02  0.00000000000E+00 0.  1.
         11    1    3    3    0    0  0.13120975051E+02 -0.15472988163E+02 -0.95881587174E+01  0.22438942418E+02  0.51100000000E-03 0. -1.
        -11    1    3    3    0    0  0.59640831957E+01 -0.55692867462E+01 -0.12362410328E+02  0.14812711859E+02  0.51100000000E-03 0.  1.
        -12    1    3    3    0    0 -0.24847583191E+01 -0.38545197108E+01 -0.94851336528E+01  0.10535611350E+02  0.00000000000E+00 0.  1.
</event>
<event>
 7    1  0.4011333E-009  0.4778727E+02  0.7816164E-02  0.1312668E+00
        -11   -1    0    0    0    0  0.00000000000E+00  0.00000000000E+00  0.45593999997E+02  0.45594000000E+02  0.51100000000E-03 0. -1.
         11   -1    0    0    0    0 -0.00000000000E+00 -0.00000000000E+00 -0.45593999997E+02  0.45594000000E+02  0.51100000000E-03 0.  1.
    9900012    2    1    2    0    0  0.34063899393E+01 -0.24774179997E+02  0.35471958797E+02  0.47787270193E+02  0.19999996117E+02 0.  0.
        -12    1    1    2    0    0 -0.34063899393E+01  0.24774179997E+02 -0.35471958797E+02  0.43400729807E+02  0.00000000000E+00 0.  1.
         11    1    3    3    0    0  0.49189302293E+01 -0.35429036303E+01  0.51464536589E+01  0.79519825364E+01  0.51100000000E-03 0. -1.
        -11    1    3    3    0    0  0.42412267373E+01 -0.16757931431E+02  0.26403604564E+02  0.31558938581E+02  0.51100000000E-03 0.  1.
        -12    1    3    3    0    0 -0.57537670272E+01 -0.44733449353E+01  0.39219005735E+01  0.82763490757E+01  0.00000000000E+00 0.  1.
</event>
<event>
 7    1  0.4011333E-009  0.4778727E+02  0.7816164E-02  0.1312668E+00
        -11   -1    0    0    0    0  0.00000000000E+00  0.00000000000E+00  0.45593999997E+02  0.45594000000E+02  0.51100000000E-03 0. -1.
         11   -1    0    0    0    0 -0.00000000000E+00 -0.00000000000E+00 -0.45593999997E+02  0.45594000000E+02  0.51100000000E-03 0.  1.
    9900012    2    1    2    0    0  0.14056837237E+02 -0.14396653509E+02  0.38454715097E+02  0.47787269378E+02  0.19999992402E+02 0.  0.
        -12    1    1    2    0    0 -0.14056837237E+02  0.14396653509E+02 -0.38454715097E+02  0.43400730622E+02  0.00000000000E+00 0.  1.
         11    1    3    3    0    0  0.12658254007E+02 -0.10959503459E+02  0.30613869819E+02  0.34893425399E+02  0.51100000000E-03 0. -1.
        -11    1    3    3    0    0  0.29244465194E+01 -0.22510539874E+01  0.95972298143E+01  0.10282336888E+02  0.51100000000E-03 0.  1.
        -12    1    3    3    0    0 -0.15258632889E+01 -0.11860960626E+01 -0.17563845364E+01  0.26115070909E+01  0.00000000000E+00 0.  1.
</event>
<event>
 7    1  0.4011333E-009  0.4778727E+02  0.7816164E-02  0.1312668E+00
        -11   -1    0    0    0    0  0.00000000000E+00  0.00000000000E+00  0.45593999997E+02  0.45594000000E+02  0.51100000000E-03 0.  1.
         11   -1    0    0    0    0 -0.00000000000E+00 -0.00000000000E+00 -0.45593999997E+02  0.45594000000E+02  0.51100000000E-03 0. -1.
    9900012    2    1    2    0    0  0.22979459013E+02 -0.22739705711E+02 -0.28956409411E+02  0.47787269610E+02  0.19999993461E+02 0.  0.
        -12    1    1    2    0    0 -0.22979459013E+02  0.22739705711E+02  0.28956409411E+02  0.43400730390E+02  0.00000000000E+00 0.  1.
         11    1    3    3    0    0  0.15093497071E+02 -0.14633828881E+02 -0.20799383385E+02  0.29573247218E+02  0.51100000000E-03 0. -1.
        -11    1    3    3    0    0  0.29229960657E+01 -0.10252268713E+02 -0.67802890396E+01  0.12634288246E+02  0.51100000000E-03 0.  1.
        -12    1    3    3    0    0  0.49629658765E+01  0.21463918834E+01 -0.13767369865E+01  0.55797341459E+01  0.00000000000E+00 0.  1.
</event>
<event>
 7    1  0.4011333E-009  0.4778725E+02  0.7816164E-02  0.1312668E+00
        -11   -1    0    0    0    0  0.00000000000E+00  0.00000000000E+00  0.45593999997E+02  0.45594000000E+02  0.51100000000E-03 0.  1.
         11   -1    0    0    0    0 -0.00000000000E+00 -0.00000000000E+00 -0.45593999997E+02  0.45594000000E+02  0.51100000000E-03 0. -1.
    9900012    2    1    2    0    0  0.20166075024E+02  0.11475859144E+02 -0.36677770006E+02  0.47787254181E+02  0.19999923115E+02 0.  0.
        -12    1    1    2    0    0 -0.20166075024E+02 -0.11475859144E+02  0.36677770006E+02  0.43400745819E+02  0.00000000000E+00 0.  1.
         11    1    3    3    0    0  0.21145454729E+01 -0.15054022878E+01 -0.34294021241E+01  0.43009694018E+01  0.51100000000E-03 0. -1.
        -11    1    3    3    0    0  0.47894175869E+01 -0.41385243865E+01 -0.65387357770E+01  0.91006027680E+01  0.51100000000E-03 0.  1.
         12    1    3    3    0    0  0.13262111965E+02  0.17119785818E+02 -0.26709632105E+02  0.34385682012E+02  0.00000000000E+00 0. -1.
</event>
<event>
 7    1  0.4011333E-009  0.4778727E+02  0.7816164E-02  0.1312668E+00
        -11   -1    0    0    0    0  0.00000000000E+00  0.00000000000E+00  0.45593999997E+02  0.45594000000E+02  0.51100000000E-03 0.  1.
         11   -1    0    0    0    0 -0.00000000000E+00 -0.00000000000E+00 -0.45593999997E+02  0.45594000000E+02  0.51100000000E-03 0. -1.
    9900012    2    1    2    0    0  0.11055213511E+02  0.16671274144E+02 -0.38515892943E+02  0.47787272626E+02  0.20000007213E+02 0.  0.
        -12    1    1    2    0    0 -0.11055213511E+02 -0.16671274144E+02  0.38515892943E+02  0.43400727374E+02  0.00000000000E+00 0.  1.
         11    1    3    3    0    0  0.60854783759E+00  0.56777938159E+01 -0.23581784249E+02  0.24263310197E+02  0.51100000000E-03 0. -1.
        -11    1    3    3    0    0 -0.12810263389E+01 -0.52396897169E+00 -0.10853831274E+00  0.13882913205E+01  0.51100000000E-03 0.  1.
        -12    1    3    3    0    0  0.11727692012E+02  0.11517449300E+02 -0.14825570381E+02  0.22135671109E+02  0.00000000000E+00 0.  1.
</event>
<event>
 7    1  0.4011333E-009  0.4778727E+02  0.7816164E-02  0.1312668E+00
        -11   -1    0    0    0    0  0.00000000000E+00  0.00000000000E+00  0.45593999997E+02  0.45594000000E+02  0.51100000000E-03 0.  1.
         11   -1    0    0    0    0 -0.00000000000E+00 -0.00000000000E+00 -0.45593999997E+02  0.45594000000E+02  0.51100000000E-03 0. -1.
    9900012    2    1    2    0    0  0.27651423041E+02  0.31585247544E+02  0.11017891596E+02  0.47787274270E+02  0.20000014707E+02 0.  0.
        -12    1    1    2    0    0 -0.27651423041E+02 -0.31585247544E+02 -0.11017891596E+02  0.43400725730E+02  0.00000000000E+00 0.  1.
         11    1    3    3    0    0  0.16469216657E+02  0.29622858813E+02  0.55334104049E+01  0.34341920338E+02  0.51100000000E-03 0. -1.
        -11    1    3    3    0    0  0.27262992762E+01  0.58390938357E+00 -0.70508774907E+00  0.28759010599E+01  0.51100000000E-03 0.  1.
        -12    1    3    3    0    0  0.84559071084E+01  0.13784793477E+01  0.61895689406E+01  0.10569452872E+02  0.00000000000E+00 0.  1.
</event>
<event>
 7    1  0.4011333E-009  0.4778727E+02  0.7816164E-02  0.1312668E+00
        -11   -1    0    0    0    0  0.00000000000E+00  0.00000000000E+00  0.45593999997E+02  0.45594000000E+02  0.51100000000E-03 0. -1.
         11   -1    0    0    0    0 -0.00000000000E+00 -0.00000000000E+00 -0.45593999997E+02  0.45594000000E+02  0.51100000000E-03 0.  1.
    9900012    2    1    2    0    0 -0.82735488983E+01  0.28882172879E+01  0.42506818322E+02  0.47787274034E+02  0.20000013632E+02 0.  0.
        -12    1    1    2    0    0  0.82735488983E+01 -0.28882172879E+01 -0.42506818322E+02  0.43400725966E+02  0.00000000000E+00 0.  1.
         11    1    3    3    0    0 -0.70244276966E+01  0.80186709021E+01  0.17585003192E+02  0.20563900531E+02  0.51100000000E-03 0. -1.
        -11    1    3    3    0    0 -0.51940577356E+01 -0.17663736575E+01  0.15875327950E+02  0.16796557666E+02  0.51100000000E-03 0.  1.
        -12    1    3    3    0    0  0.39449365339E+01 -0.33640799567E+01  0.90464871803E+01  0.10426815838E+02  0.00000000000E+00 0.  1.
</event>
<event>
 7    1  0.4011333E-009  0.4778727E+02  0.7816164E-02  0.1312668E+00
        -11   -1    0    0    0    0  0.00000000000E+00  0.00000000000E+00  0.45593999997E+02  0.45594000000E+02  0.51100000000E-03 0.  1.
         11   -1    0    0    0    0 -0.00000000000E+00 -0.00000000000E+00 -0.45593999997E+02  0.45594000000E+02  0.51100000000E-03 0. -1.
    9900012    2    1    2    0    0 -0.71564220484E+01 -0.27376530464E+02 -0.32907967173E+02  0.47787273045E+02  0.20000009121E+02 0.  0.
        -12    1    1    2    0    0  0.71564220484E+01  0.27376530464E+02  0.32907967173E+02  0.43400726955E+02  0.00000000000E+00 0.  1.
         11    1    3    3    0    0 -0.72793786841E+01 -0.11368344047E+02 -0.25434192655E+02  0.28794561235E+02  0.51100000000E-03 0.  1.
        -11    1    3    3    0    0  0.10798573035E+01 -0.63524581962E+01 -0.66422009779E+01  0.92541153560E+01  0.51100000000E-03 0. -1.
        -12    1    3    3    0    0 -0.95690066788E+00 -0.96557282200E+01 -0.83157353976E+00  0.97385964543E+01  0.00000000000E+00 0.  1.
</event>
<event>
 7    1  0.4011333E-009  0.4778727E+02  0.7816164E-02  0.1312668E+00
        -11   -1    0    0    0    0  0.00000000000E+00  0.00000000000E+00  0.45593999997E+02  0.45594000000E+02  0.51100000000E-03 0.  1.
         11   -1    0    0    0    0 -0.00000000000E+00 -0.00000000000E+00 -0.45593999997E+02  0.45594000000E+02  0.51100000000E-03 0. -1.
    9900012    2    1    2    0    0 -0.21224970277E+02  0.11159574233E+02 -0.36174411985E+02  0.47787267947E+02  0.19999985876E+02 0.  0.
        -12    1    1    2    0    0  0.21224970277E+02 -0.11159574233E+02  0.36174411985E+02  0.43400732053E+02  0.00000000000E+00 0.  1.
         11    1    3    3    0    0 -0.89590449203E+01  0.13628647396E+01 -0.22215902116E+02  0.23993086364E+02  0.51100000000E-03 0. -1.
        -11    1    3    3    0    0  0.75258789065E+00 -0.16816349083E+01 -0.19876296278E+01  0.27101579837E+01  0.51100000000E-03 0.  1.
        -12    1    3    3    0    0 -0.13018513248E+02  0.11478344401E+02 -0.11970880241E+02  0.21084023599E+02  0.00000000000E+00 0.  1.
</event>
<event>
 7    1  0.4011333E-009  0.4778727E+02  0.7816164E-02  0.1312668E+00
        -11   -1    0    0    0    0  0.00000000000E+00  0.00000000000E+00  0.45593999997E+02  0.45594000000E+02  0.51100000000E-03 0.  1.
         11   -1    0    0    0    0 -0.00000000000E+00 -0.00000000000E+00 -0.45593999997E+02  0.45594000000E+02  0.51100000000E-03 0. -1.
    9900012    2    1    2    0    0  0.19097993633E-01  0.40065655365E+02 -0.16684298791E+02  0.47787274998E+02  0.20000018026E+02 0.  0.
        -12    1    1    2    0    0 -0.19097993633E-01 -0.40065655365E+02  0.16684298791E+02  0.43400725002E+02  0.00000000000E+00 0.  1.
         11    1    3    3    0    0  0.32658334620E+01  0.26976941285E+02 -0.93210179028E+01  0.28728076934E+02  0.51100000000E-03 0. -1.
        -11    1    3    3    0    0  0.23589080861E+01  0.89870539628E+01 -0.77544548880E+01  0.12102196378E+02  0.51100000000E-03 0.  1.
        -12    1    3    3    0    0 -0.56056435544E+01  0.41016601168E+01  0.39117399969E+00  0.69570016868E+01  0.00000000000E+00 0.  1.
</event>
<event>
 7    1  0.4011333E-009  0.4778727E+02  0.7816164E-02  0.1312668E+00
        -11   -1    0    0    0    0  0.00000000000E+00  0.00000000000E+00  0.45593999997E+02  0.45594000000E+02  0.51100000000E-03 0.  1.
         11   -1    0    0    0    0 -0.00000000000E+00 -0.00000000000E+00 -0.45593999997E+02  0.45594000000E+02  0.51100000000E-03 0. -1.
    9900012    2    1    2    0    0  0.22732750703E+01  0.28966988410E+02 -0.32239245685E+02  0.47787272363E+02  0.20000006011E+02 0.  0.
        -12    1    1    2    0    0 -0.22732750703E+01 -0.28966988410E+02  0.32239245685E+02  0.43400727637E+02  0.00000000000E+00 0.  1.
         11    1    3    3    0    0 -0.28210568832E+00  0.15177708512E+02 -0.10511897430E+02  0.18464625832E+02  0.51100000000E-03 0. -1.
        -11    1    3    3    0    0  0.28009080482E+01  0.14204636736E+02 -0.10024523988E+02  0.17609879958E+02  0.51100000000E-03 0.  1.
        -12    1    3    3    0    0 -0.24552728950E+00 -0.41535683780E+00 -0.11702824267E+02  0.11712766572E+02  0.00000000000E+00 0.  1.
</event>
<event>
 7    1  0.4227202E-009  0.4778727E+02  0.7816164E-02  0.1312668E+00
        -11   -1    0    0    0    0  0.00000000000E+00  0.00000000000E+00  0.45593999997E+02  0.45594000000E+02  0.51100000000E-03 0.  1.
         11   -1    0    0    0    0 -0.00000000000E+00 -0.00000000000E+00 -0.45593999997E+02  0.45594000000E+02  0.51100000000E-03 0. -1.
    9900012    2    1    2    0    0  0.34567478690E+02  0.21949529339E+02 -0.14385087633E+02  0.47787272271E+02  0.20000005591E+02 0.  0.
        -12    1    1    2    0    0 -0.34567478690E+02 -0.21949529339E+02  0.14385087633E+02  0.43400727729E+02  0.00000000000E+00 0.  1.
         11    1    3    3    0    0  0.15601211160E+02  0.13483972350E+02 -0.68152185147E+01  0.21717792330E+02  0.51100000000E-03 0.  1.
        -11    1    3    3    0    0  0.20412934953E+02  0.84159246641E+01 -0.91731206140E+01  0.23909450923E+02  0.51100000000E-03 0. -1.
        -12    1    3    3    0    0 -0.14466674236E+01  0.49632324860E-01  0.16032514954E+01  0.21600290183E+01  0.00000000000E+00 0.  1.
</event>
<event>
 7    1  0.4011333E-009  0.4778727E+02  0.7816164E-02  0.1312668E+00
        -11   -1    0    0    0    0  0.00000000000E+00  0.00000000000E+00  0.45593999997E+02  0.45594000000E+02  0.51100000000E-03 0.  1.
         11   -1    0    0    0    0 -0.00000000000E+00 -0.00000000000E+00 -0.45593999997E+02  0.45594000000E+02  0.51100000000E-03 0. -1.
    9900012    2    1    2    0    0 -0.20424558222E+02 -0.21410442624E+02 -0.31749860960E+02  0.47787270710E+02  0.19999998477E+02 0.  0.
        -12    1    1    2    0    0  0.20424558222E+02  0.21410442624E+02  0.31749860960E+02  0.43400729290E+02  0.00000000000E+00 0.  1.
         11    1    3    3    0    0 -0.26986545666E+01 -0.45170079896E+01 -0.67597107558E+00  0.53050009241E+01  0.51100000000E-03 0. -1.
        -11    1    3    3    0    0 -0.65552915351E+01 -0.71451659769E+01 -0.20794537803E+01  0.99171252000E+01  0.51100000000E-03 0.  1.
         12    1    3    3    0    0 -0.11170612120E+02 -0.97482686574E+01 -0.28994436104E+02  0.32565144586E+02  0.00000000000E+00 0. -1.
</event>
<event>
 7    1  0.4011333E-009  0.4778727E+02  0.7816164E-02  0.1312668E+00
        -11   -1    0    0    0    0  0.00000000000E+00  0.00000000000E+00  0.45593999997E+02  0.45594000000E+02  0.51100000000E-03 0.  1.
         11   -1    0    0    0    0 -0.00000000000E+00 -0.00000000000E+00 -0.45593999997E+02  0.45594000000E+02  0.51100000000E-03 0. -1.
    9900012    2    1    2    0    0  0.26896663195E+02  0.53034837380E+01 -0.33646188151E+02  0.47787269501E+02  0.19999992961E+02 0.  0.
        -12    1    1    2    0    0 -0.26896663195E+02 -0.53034837380E+01  0.33646188151E+02  0.43400730499E+02  0.00000000000E+00 0.  1.
         11    1    3    3    0    0  0.30152375041E+01  0.12685774599E+01 -0.12204258067E+02  0.12635064749E+02  0.51100000000E-03 0. -1.
        -11    1    3    3    0    0  0.52108766092E+01 -0.46816394896E+01 -0.75636752271E+01  0.10309227253E+02  0.51100000000E-03 0.  1.
        -12    1    3    3    0    0  0.18670549082E+02  0.87165457677E+01 -0.13878254857E+02  0.24842977499E+02  0.00000000000E+00 0.  1.
</event>
<event>
 7    1  0.4011333E-009  0.4778727E+02  0.7816164E-02  0.1312668E+00
        -11   -1    0    0    0    0  0.00000000000E+00  0.00000000000E+00  0.45593999997E+02  0.45594000000E+02  0.51100000000E-03 0. -1.
         11   -1    0    0    0    0 -0.00000000000E+00 -0.00000000000E+00 -0.45593999997E+02  0.45594000000E+02  0.51100000000E-03 0.  1.
    9900012    2    1    2    0    0 -0.14580975641E+02 -0.25530531169E+02  0.31925076079E+02  0.47787270109E+02  0.19999995736E+02 0.  0.
        -12    1    1    2    0    0  0.14580975641E+02  0.25530531169E+02 -0.31925076079E+02  0.43400729891E+02  0.00000000000E+00 0.  1.
         11    1    3    3    0    0 -0.42342572555E+01 -0.12640554751E+02  0.21732877106E+02  0.25495695843E+02  0.51100000000E-03 0. -1.
        -11    1    3    3    0    0 -0.46898034015E+01  0.55287676146E+00  0.48233577547E+01  0.67501636239E+01  0.51100000000E-03 0.  1.
         12    1    3    3    0    0 -0.56569149838E+01 -0.13442853179E+02  0.53688412180E+01  0.15541410643E+02  0.00000000000E+00 0. -1.
</event>
<event>
 7    1  0.4011333E-009  0.4778727E+02  0.7816164E-02  0.1312668E+00
        -11   -1    0    0    0    0  0.00000000000E+00  0.00000000000E+00  0.45593999997E+02  0.45594000000E+02  0.51100000000E-03 0. -1.
         11   -1    0    0    0    0 -0.00000000000E+00 -0.00000000000E+00 -0.45593999997E+02  0.45594000000E+02  0.51100000000E-03 0.  1.
    9900012    2    1    2    0    0  0.23179700077E+02 -0.36308634324E+02  0.52922692599E+01  0.47787268024E+02  0.19999986230E+02 0.  0.
        -12    1    1    2    0    0 -0.23179700077E+02  0.36308634324E+02 -0.52922692599E+01  0.43400731976E+02  0.00000000000E+00 0.  1.
         11    1    3    3    0    0  0.81366716560E-01 -0.54076262749E+00  0.87742296346E+00  0.10338839779E+01  0.51100000000E-03 0. -1.
        -11    1    3    3    0    0  0.11811487853E+01 -0.11468464872E+01  0.55229122520E+01  0.57630659655E+01  0.51100000000E-03 0.  1.
         12    1    3    3    0    0  0.21917184575E+02 -0.34621025209E+02 -0.11080659555E+01  0.40990318081E+02  0.00000000000E+00 0. -1.
</event>
<event>
 7    1  0.4011333E-009  0.4778729E+02  0.7816164E-02  0.1312668E+00
        -11   -1    0    0    0    0  0.00000000000E+00  0.00000000000E+00  0.45593999997E+02  0.45594000000E+02  0.51100000000E-03 0.  1.
         11   -1    0    0    0    0 -0.00000000000E+00 -0.00000000000E+00 -0.45593999997E+02  0.45594000000E+02  0.51100000000E-03 0. -1.
    9900012    2    1    2    0    0 -0.24800939731E+02 -0.33226641401E+02 -0.12826755831E+02  0.47787286002E+02  0.20000068199E+02 0.  0.
        -12    1    1    2    0    0  0.24800939731E+02  0.33226641401E+02  0.12826755831E+02  0.43400713998E+02  0.00000000000E+00 0.  1.
         11    1    3    3    0    0 -0.37526403278E+01 -0.39883867791E+01 -0.61006554466E+01  0.81980202286E+01  0.51100000000E-03 0. -1.
        -11    1    3    3    0    0 -0.60241546026E+01  0.45608324573E-01 -0.19464128063E+01  0.63309590008E+01  0.51100000000E-03 0.  1.
        -12    1    3    3    0    0 -0.15024144801E+02 -0.29283862947E+02 -0.47796875782E+01  0.33258306773E+02  0.00000000000E+00 0.  1.
</event>
<event>
 7    1  0.4011333E-009  0.4778727E+02  0.7816164E-02  0.1312668E+00
        -11   -1    0    0    0    0  0.00000000000E+00  0.00000000000E+00  0.45593999997E+02  0.45594000000E+02  0.51100000000E-03 0.  1.
         11   -1    0    0    0    0 -0.00000000000E+00 -0.00000000000E+00 -0.45593999997E+02  0.45594000000E+02  0.51100000000E-03 0. -1.
    9900012    2    1    2    0    0  0.11419278624E+02 -0.40939614672E+02 -0.87847136955E+01  0.47787272259E+02  0.20000005537E+02 0.  0.
        -12    1    1    2    0    0 -0.11419278624E+02  0.40939614672E+02  0.87847136955E+01  0.43400727741E+02  0.00000000000E+00 0.  1.
         11    1    3    3    0    0 -0.26876830318E+01 -0.93246351935E+01 -0.61137461780E+01  0.11469540277E+02  0.51100000000E-03 0. -1.
        -11    1    3    3    0    0 -0.47840203321E+00 -0.91993024709E+01  0.12230845120E+01  0.92925760928E+01  0.51100000000E-03 0.  1.
         12    1    3    3    0    0  0.14585363689E+02 -0.22415677007E+02 -0.38940520296E+01  0.27025155889E+02  0.00000000000E+00 0. -1.
</event>
<event>
 7    1  0.4011333E-009  0.4778727E+02  0.7816164E-02  0.1312668E+00
        -11   -1    0    0    0    0  0.00000000000E+00  0.00000000000E+00  0.45593999997E+02  0.45594000000E+02  0.51100000000E-03 0.  1.
         11   -1    0    0    0    0 -0.00000000000E+00 -0.00000000000E+00 -0.45593999997E+02  0.45594000000E+02  0.51100000000E-03 0. -1.
    9900012    2    1    2    0    0  0.78833659198E+01 -0.22877077481E+02 -0.36029369505E+02  0.47787267296E+02  0.19999982909E+02 0.  0.
        -12    1    1    2    0    0 -0.78833659198E+01  0.22877077481E+02  0.36029369505E+02  0.43400732704E+02  0.00000000000E+00 0.  1.
         11    1    3    3    0    0  0.87240332998E+01 -0.20874785931E+02 -0.25210327982E+02  0.33873678305E+02  0.51100000000E-03 0. -1.
        -11    1    3    3    0    0 -0.20223909786E+01 -0.44418331897E+01 -0.32239167131E+01  0.58492381205E+01  0.51100000000E-03 0.  1.
        -12    1    3    3    0    0  0.11817235985E+01  0.24395416401E+01 -0.75951248101E+01  0.80643508702E+01  0.00000000000E+00 0.  1.
</event>
<event>
 7    1  0.4011333E-009  0.4778727E+02  0.7816164E-02  0.1312668E+00
        -11   -1    0    0    0    0  0.00000000000E+00  0.00000000000E+00  0.45593999997E+02  0.45594000000E+02  0.51100000000E-03 0. -1.
         11   -1    0    0    0    0 -0.00000000000E+00 -0.00000000000E+00 -0.45593999997E+02  0.45594000000E+02  0.51100000000E-03 0.  1.
    9900012    2    1    2    0    0 -0.31407964994E+02  0.29909688818E+02  0.16041633229E+01  0.47787273160E+02  0.20000009646E+02 0.  0.
        -12    1    1    2    0    0  0.31407964994E+02 -0.29909688818E+02 -0.16041633229E+01  0.43400726840E+02  0.00000000000E+00 0.  1.
         11    1    3    3    0    0 -0.48052695207E+01  0.20275853536E+01  0.10399914935E+01  0.53182045937E+01  0.51100000000E-03 0. -1.
        -11    1    3    3    0    0 -0.11650076059E+02  0.24362800785E+02 -0.10351746780E+01  0.27024838966E+02  0.51100000000E-03 0.  1.
        -12    1    3    3    0    0 -0.14952619414E+02  0.35193026801E+01  0.15993465074E+01  0.15444229601E+02  0.00000000000E+00 0.  1.
</event>
<event>
 7    1  0.4011333E-009  0.4778727E+02  0.7816164E-02  0.1312668E+00
        -11   -1    0    0    0    0  0.00000000000E+00  0.00000000000E+00  0.45593999997E+02  0.45594000000E+02  0.51100000000E-03 0.  1.
         11   -1    0    0    0    0 -0.00000000000E+00 -0.00000000000E+00 -0.45593999997E+02  0.45594000000E+02  0.51100000000E-03 0. -1.
    9900012    2    1    2    0    0 -0.14051874858E+02  0.47278353536E+01 -0.40789895143E+02  0.47787272357E+02  0.20000005984E+02 0.  0.
        -12    1    1    2    0    0  0.14051874858E+02 -0.47278353536E+01  0.40789895143E+02  0.43400727643E+02  0.00000000000E+00 0.  1.
         11    1    3    3    0    0  0.10831710107E+01  0.99298103461E+00  0.93036428016E+00  0.17392092251E+01  0.51100000000E-03 0. -1.
        -11    1    3    3    0    0 -0.10464345873E+02 -0.68195049822E+00 -0.13443388001E+02  0.17049700063E+02  0.51100000000E-03 0.  1.
         12    1    3    3    0    0 -0.46706999961E+01  0.44168048173E+01 -0.28276871422E+02  0.28998363069E+02  0.00000000000E+00 0. -1.
</event>
<event>
 7    1  0.4011333E-009  0.4778727E+02  0.7816164E-02  0.1312668E+00
        -11   -1    0    0    0    0  0.00000000000E+00  0.00000000000E+00  0.45593999997E+02  0.45594000000E+02  0.51100000000E-03 0. -1.
         11   -1    0    0    0    0 -0.00000000000E+00 -0.00000000000E+00 -0.45593999997E+02  0.45594000000E+02  0.51100000000E-03 0.  1.
    9900012    2    1    2    0    0 -0.13442036890E+02 -0.15488426513E+02  0.38249748205E+02  0.47787274784E+02  0.20000017049E+02 0.  0.
        -12    1    1    2    0    0  0.13442036890E+02  0.15488426513E+02 -0.38249748205E+02  0.43400725216E+02  0.00000000000E+00 0.  1.
         11    1    3    3    0    0 -0.11292658143E+01 -0.48671576182E+01  0.11561842505E+02  0.12595263670E+02  0.51100000000E-03 0. -1.
        -11    1    3    3    0    0  0.27398829676E+01 -0.67691866849E+01  0.70472812290E+01  0.10148547681E+02  0.51100000000E-03 0.  1.
         12    1    3    3    0    0 -0.15052654043E+02 -0.38520822096E+01  0.19640624471E+02  0.25043463433E+02  0.00000000000E+00 0. -1.
</event>
<event>
 7    1  0.4011333E-009  0.4778727E+02  0.7816164E-02  0.1312668E+00
        -11   -1    0    0    0    0  0.00000000000E+00  0.00000000000E+00  0.45593999997E+02  0.45594000000E+02  0.51100000000E-03 0.  1.
         11   -1    0    0    0    0 -0.00000000000E+00 -0.00000000000E+00 -0.45593999997E+02  0.45594000000E+02  0.51100000000E-03 0. -1.
    9900012    2    1    2    0    0  0.38447715897E+02  0.10960070296E+02 -0.16890032367E+02  0.47787271989E+02  0.20000004305E+02 0.  0.
        -12    1    1    2    0    0 -0.38447715897E+02 -0.10960070296E+02  0.16890032367E+02  0.43400728011E+02  0.00000000000E+00 0.  1.
         11    1    3    3    0    0  0.85155609131E+01 -0.95735272369E+00 -0.58893547735E+01  0.10397874870E+02  0.51100000000E-03 0. -1.
        -11    1    3    3    0    0  0.26206424688E+02  0.49854289574E+01 -0.12364027134E+02  0.29402387047E+02  0.51100000000E-03 0.  1.
        -12    1    3    3    0    0  0.37257302952E+01  0.69319940624E+01  0.13633495404E+01  0.79870100715E+01  0.00000000000E+00 0.  1.
</event>
<event>
 7    1  0.4011333E-009  0.4778727E+02  0.7816164E-02  0.1312668E+00
        -11   -1    0    0    0    0  0.00000000000E+00  0.00000000000E+00  0.45593999997E+02  0.45594000000E+02  0.51100000000E-03 0.  1.
         11   -1    0    0    0    0 -0.00000000000E+00 -0.00000000000E+00 -0.45593999997E+02  0.45594000000E+02  0.51100000000E-03 0. -1.
    9900012    2    1    2    0    0  0.26292033721E+02 -0.14526122003E+02 -0.31326409227E+02  0.47787272211E+02  0.20000005317E+02 0.  0.
        -12    1    1    2    0    0 -0.26292033721E+02  0.14526122003E+02  0.31326409227E+02  0.43400727789E+02  0.00000000000E+00 0.  1.
         11    1    3    3    0    0  0.85204439318E+01 -0.72223876678E-01 -0.13944517578E+02  0.16341748739E+02  0.51100000000E-03 0. -1.
        -11    1    3    3    0    0  0.14213366184E+02 -0.15533994084E+02 -0.10284031961E+02  0.23432585519E+02  0.51100000000E-03 0.  1.
        -12    1    3    3    0    0  0.35582236050E+01  0.10800959573E+01 -0.70978596872E+01  0.80129379531E+01  0.00000000000E+00 0.  1.
</event>
<event>
 7    1  0.4011333E-009  0.4778727E+02  0.7816164E-02  0.1312668E+00
        -11   -1    0    0    0    0  0.00000000000E+00  0.00000000000E+00  0.45593999997E+02  0.45594000000E+02  0.51100000000E-03 0. -1.
         11   -1    0    0    0    0 -0.00000000000E+00 -0.00000000000E+00 -0.45593999997E+02  0.45594000000E+02  0.51100000000E-03 0.  1.
    9900012    2    1    2    0    0  0.38925852214E+02  0.74141513217E+01  0.17704014668E+02  0.47787265607E+02  0.19999975211E+02 0.  0.
        -12    1    1    2    0    0 -0.38925852214E+02 -0.74141513217E+01 -0.17704014668E+02  0.43400734393E+02  0.00000000000E+00 0.  1.
         11    1    3    3    0    0  0.11836346604E+02  0.41500878504E+01  0.70867348378E+01  0.14406392366E+02  0.51100000000E-03 0. -1.
        -11    1    3    3    0    0  0.25296550476E+02 -0.13006658281E+01  0.48148362437E+01  0.25783518881E+02  0.51100000000E-03 0.  1.
         12    1    3    3    0    0  0.17929551346E+01  0.45647292993E+01  0.58024435869E+01  0.75973543600E+01  0.00000000000E+00 0. -1.
</event>
<event>
 7    1  0.4011333E-009  0.4778727E+02  0.7816164E-02  0.1312668E+00
        -11   -1    0    0    0    0  0.00000000000E+00  0.00000000000E+00  0.45593999997E+02  0.45594000000E+02  0.51100000000E-03 0.  1.
         11   -1    0    0    0    0 -0.00000000000E+00 -0.00000000000E+00 -0.45593999997E+02  0.45594000000E+02  0.51100000000E-03 0. -1.
    9900012    2    1    2    0    0  0.39160274968E+01 -0.40301043940E+02  0.15624141959E+02  0.47787271596E+02  0.20000002515E+02 0.  0.
        -12    1    1    2    0    0 -0.39160274968E+01  0.40301043940E+02 -0.15624141959E+02  0.43400728404E+02  0.00000000000E+00 0.  1.
         11    1    3    3    0    0  0.26408125847E+01 -0.92187420341E+01  0.85818611984E+01  0.12868855337E+02  0.51100000000E-03 0. -1.
        -11    1    3    3    0    0 -0.10778623878E+01 -0.13813059120E+02  0.10201468680E+02  0.17205590750E+02  0.51100000000E-03 0.  1.
         12    1    3    3    0    0  0.23530772999E+01 -0.17269242786E+02 -0.31591879190E+01  0.17712825509E+02  0.00000000000E+00 0. -1.
</event>
<event>
 7    1  0.4422992E-009  0.4778727E+02  0.7816164E-02  0.1312668E+00
        -11   -1    0    0    0    0  0.00000000000E+00  0.00000000000E+00  0.45593999997E+02  0.45594000000E+02  0.51100000000E-03 0. -1.
         11   -1    0    0    0    0 -0.00000000000E+00 -0.00000000000E+00 -0.45593999997E+02  0.45594000000E+02  0.51100000000E-03 0.  1.
    9900012    2    1    2    0    0  0.82448625622E+01 -0.27962834970E+01  0.42518537897E+02  0.47787273912E+02  0.20000013073E+02 0.  0.
        -12    1    1    2    0    0 -0.82448625622E+01  0.27962834970E+01 -0.42518537897E+02  0.43400726088E+02  0.00000000000E+00 0.  1.
         11    1    3    3    0    0  0.85905753875E+01  0.25300747135E+01  0.21898176181E+02  0.23658600632E+02  0.51100000000E-03 0. -1.
        -11    1    3    3    0    0  0.52396293266E+01 -0.15053816552E+01  0.65985884708E+01  0.85592791447E+01  0.51100000000E-03 0.  1.
        -12    1    3    3    0    0 -0.55853421520E+01 -0.38209765553E+01  0.14021773246E+02  0.15569394135E+02  0.00000000000E+00 0.  1.
</event>
<event>
 7    1  0.4011333E-009  0.4778727E+02  0.7816164E-02  0.1312668E+00
        -11   -1    0    0    0    0  0.00000000000E+00  0.00000000000E+00  0.45593999997E+02  0.45594000000E+02  0.51100000000E-03 0.  1.
         11   -1    0    0    0    0 -0.00000000000E+00 -0.00000000000E+00 -0.45593999997E+02  0.45594000000E+02  0.51100000000E-03 0. -1.
    9900012    2    1    2    0    0 -0.22366613703E+02  0.18159585307E+02 -0.32459013357E+02  0.47787268495E+02  0.19999988376E+02 0.  0.
        -12    1    1    2    0    0  0.22366613703E+02 -0.18159585307E+02  0.32459013357E+02  0.43400731505E+02  0.00000000000E+00 0.  1.
         11    1    3    3    0    0 -0.14302318737E+02  0.41880540735E+01 -0.13481616638E+02  0.20096022134E+02  0.51100000000E-03 0. -1.
        -11    1    3    3    0    0 -0.26339669396E+01  0.22539957990E+00  0.10124733563E+01  0.28308460516E+01  0.51100000000E-03 0.  1.
        -12    1    3    3    0    0 -0.54303280263E+01  0.13746131653E+02 -0.19989870076E+02  0.24860400309E+02  0.00000000000E+00 0.  1.
</event>
<event>
 7    1  0.4011333E-009  0.4778727E+02  0.7816164E-02  0.1312668E+00
        -11   -1    0    0    0    0  0.00000000000E+00  0.00000000000E+00  0.45593999997E+02  0.45594000000E+02  0.51100000000E-03 0.  1.
         11   -1    0    0    0    0 -0.00000000000E+00 -0.00000000000E+00 -0.45593999997E+02  0.45594000000E+02  0.51100000000E-03 0. -1.
    9900012    2    1    2    0    0 -0.12212295588E+02 -0.40021250353E+02 -0.11523123040E+02  0.47787274108E+02  0.20000013969E+02 0.  0.
        -12    1    1    2    0    0  0.12212295588E+02  0.40021250353E+02  0.11523123040E+02  0.43400725892E+02  0.00000000000E+00 0.  1.
         11    1    3    3    0    0 -0.79942703563E+01 -0.26676844553E+02 -0.67358637634E+01  0.28651950278E+02  0.51100000000E-03 0. -1.
        -11    1    3    3    0    0 -0.82417226928E+01 -0.11259558984E+02 -0.30575073230E+01  0.14284677552E+02  0.51100000000E-03 0.  1.
        -12    1    3    3    0    0  0.40236974606E+01 -0.20848468156E+01 -0.17297519536E+01  0.48506462786E+01  0.00000000000E+00 0.  1.
</event>
<event>
 7    1  0.4011333E-009  0.4778727E+02  0.7816164E-02  0.1312668E+00
        -11   -1    0    0    0    0  0.00000000000E+00  0.00000000000E+00  0.45593999997E+02  0.45594000000E+02  0.51100000000E-03 0. -1.
         11   -1    0    0    0    0 -0.00000000000E+00 -0.00000000000E+00 -0.45593999997E+02  0.45594000000E+02  0.51100000000E-03 0.  1.
    9900012    2    1    2    0    0 -0.97791735006E+01 -0.39630475205E+02  0.14745052715E+02  0.47787269834E+02  0.19999994482E+02 0.  0.
        -12    1    1    2    0    0  0.97791735006E+01  0.39630475205E+02 -0.14745052715E+02  0.43400730166E+02  0.00000000000E+00 0.  1.
         11    1    3    3    0    0 -0.88418947798E+00 -0.24326550271E+02  0.31702426607E+01  0.24548182782E+02  0.51100000000E-03 0. -1.
        -11    1    3    3    0    0  0.15800947614E+00 -0.39751757992E+01  0.69672783101E+01  0.80230889900E+01  0.51100000000E-03 0.  1.
        -12    1    3    3    0    0 -0.90529934988E+01 -0.11328749135E+02  0.46075317439E+01  0.15215998062E+02  0.00000000000E+00 0.  1.
</event>
<event>
 7    1  0.4011333E-009  0.4778727E+02  0.7816164E-02  0.1312668E+00
        -11   -1    0    0    0    0  0.00000000000E+00  0.00000000000E+00  0.45593999997E+02  0.45594000000E+02  0.51100000000E-03 0. -1.
         11   -1    0    0    0    0 -0.00000000000E+00 -0.00000000000E+00 -0.45593999997E+02  0.45594000000E+02  0.51100000000E-03 0.  1.
    9900012    2    1    2    0    0  0.93843249913E+01 -0.14564727252E+02  0.39792287739E+02  0.47787274212E+02  0.20000014441E+02 0.  0.
        -12    1    1    2    0    0 -0.93843249913E+01  0.14564727252E+02 -0.39792287739E+02  0.43400725788E+02  0.00000000000E+00 0.  1.
         11    1    3    3    0    0  0.57169007837E+00 -0.81115401923E+01  0.54888823793E+01  0.98107973107E+01  0.51100000000E-03 0. -1.
        -11    1    3    3    0    0  0.66754439705E+01 -0.16290168403E+01  0.58092784646E+01  0.89979422431E+01  0.51100000000E-03 0.  1.
         12    1    3    3    0    0  0.21371909425E+01 -0.48241702190E+01  0.28494126895E+02  0.28978534658E+02  0.00000000000E+00 0. -1.
</event>
<event>
 7    1  0.4011333E-009  0.4778727E+02  0.7816164E-02  0.1312668E+00
        -11   -1    0    0    0    0  0.00000000000E+00  0.00000000000E+00  0.45593999997E+02  0.45594000000E+02  0.51100000000E-03 0.  1.
         11   -1    0    0    0    0 -0.00000000000E+00 -0.00000000000E+00 -0.45593999997E+02  0.45594000000E+02  0.51100000000E-03 0. -1.
    9900012    2    1    2    0    0  0.21908718895E+02 -0.10300931160E+02 -0.36021136396E+02  0.47787269435E+02  0.19999992660E+02 0.  0.
        -12    1    1    2    0    0 -0.21908718895E+02  0.10300931160E+02  0.36021136396E+02  0.43400730565E+02  0.00000000000E+00 0.  1.
         11    1    3    3    0    0  0.87475479265E+01 -0.25676729108E+01 -0.21981928564E+02  0.23797431008E+02  0.51100000000E-03 0. -1.
        -11    1    3    3    0    0  0.93966412941E+01  0.14431500706E+01 -0.62343954621E+01  0.11368695474E+02  0.51100000000E-03 0.  1.
         12    1    3    3    0    0  0.37645296743E+01 -0.91764083198E+01 -0.78048123693E+01  0.12621142953E+02  0.00000000000E+00 0. -1.
</event>
<event>
 7    1  0.4011333E-009  0.4778727E+02  0.7816164E-02  0.1312668E+00
        -11   -1    0    0    0    0  0.00000000000E+00  0.00000000000E+00  0.45593999997E+02  0.45594000000E+02  0.51100000000E-03 0. -1.
         11   -1    0    0    0    0 -0.00000000000E+00 -0.00000000000E+00 -0.45593999997E+02  0.45594000000E+02  0.51100000000E-03 0.  1.
    9900012    2    1    2    0    0  0.23091571528E+01 -0.40138278081E+02  0.16346557834E+02  0.47787268128E+02  0.19999986701E+02 0.  0.
        -12    1    1    2    0    0 -0.23091571528E+01  0.40138278081E+02 -0.16346557834E+02  0.43400731872E+02  0.00000000000E+00 0.  1.
         11    1    3    3    0    0 -0.51341921540E+01 -0.19604435200E+02  0.23676154775E+01  0.20403416672E+02  0.51100000000E-03 0. -1.
        -11    1    3    3    0    0  0.17659383321E+01  0.25679934053E+00  0.18142497118E+00  0.17937110624E+01  0.51100000000E-03 0.  1.
         12    1    3    3    0    0  0.56774109748E+01 -0.20790642221E+02  0.13797517385E+02  0.25590140393E+02  0.00000000000E+00 0. -1.
</event>
<event>
 7    1  0.4011333E-009  0.4778727E+02  0.7816164E-02  0.1312668E+00
        -11   -1    0    0    0    0  0.00000000000E+00  0.00000000000E+00  0.45593999997E+02  0.45594000000E+02  0.51100000000E-03 0.  1.
         11   -1    0    0    0    0 -0.00000000000E+00 -0.00000000000E+00 -0.45593999997E+02  0.45594000000E+02  0.51100000000E-03 0. -1.
    9900012    2    1    2    0    0  0.18034788503E+02 -0.67033595247E+00 -0.39470500117E+02  0.47787270442E+02  0.19999997255E+02 0.  0.
        -12    1    1    2    0    0 -0.18034788503E+02  0.67033595247E+00  0.39470500117E+02  0.43400729558E+02  0.00000000000E+00 0.  1.
         11    1    3    3    0    0  0.18109692964E+02 -0.62856699416E+00 -0.35658200224E+02  0.39998291453E+02  0.51100000000E-03 0. -1.
        -11    1    3    3    0    0  0.18597054627E+01 -0.18174881396E+01  0.58677591863E+00  0.26657220008E+01  0.51100000000E-03 0.  1.
        -12    1    3    3    0    0 -0.19346099239E+01  0.17757191813E+01 -0.43990758119E+01  0.51232569882E+01  0.00000000000E+00 0.  1.
</event>
<event>
 7    1  0.4011333E-009  0.4778726E+02  0.7816164E-02  0.1312668E+00
        -11   -1    0    0    0    0  0.00000000000E+00  0.00000000000E+00  0.45593999997E+02  0.45594000000E+02  0.51100000000E-03 0. -1.
         11   -1    0    0    0    0 -0.00000000000E+00 -0.00000000000E+00 -0.45593999997E+02  0.45594000000E+02  0.51100000000E-03 0.  1.
    9900012    2    1    2    0    0  0.39961852741E+02 -0.16242170061E+02 -0.47818480584E+01  0.47787264596E+02  0.19999970598E+02 0.  0.
        -12    1    1    2    0    0 -0.39961852741E+02  0.16242170061E+02  0.47818480584E+01  0.43400735404E+02  0.00000000000E+00 0.  1.
         11    1    3    3    0    0  0.82591918201E+01 -0.59742006085E+01  0.17215198784E+00  0.10194849631E+02  0.51100000000E-03 0. -1.
        -11    1    3    3    0    0  0.23399754048E+02 -0.13744481455E+02  0.35875430765E+00  0.27140154106E+02  0.51100000000E-03 0.  1.
        -12    1    3    3    0    0  0.83029068728E+01  0.34765120026E+01 -0.53127543539E+01  0.10452260859E+02  0.00000000000E+00 0.  1.
</event>
<event>
 7    1  0.4011333E-009  0.4778727E+02  0.7816164E-02  0.1312668E+00
        -11   -1    0    0    0    0  0.00000000000E+00  0.00000000000E+00  0.45593999997E+02  0.45594000000E+02  0.51100000000E-03 0.  1.
         11   -1    0    0    0    0 -0.00000000000E+00 -0.00000000000E+00 -0.45593999997E+02  0.45594000000E+02  0.51100000000E-03 0. -1.
    9900012    2    1    2    0    0 -0.36426300644E+02  0.23419023904E+02 -0.28804710771E+01  0.47787272208E+02  0.20000005307E+02 0.  0.
        -12    1    1    2    0    0  0.36426300644E+02 -0.23419023904E+02  0.28804710771E+01  0.43400727792E+02  0.00000000000E+00 0.  1.
         11    1    3    3    0    0 -0.12043928268E+02  0.87618744434E+01 -0.50200843591E+01  0.15717121209E+02  0.51100000000E-03 0. -1.
        -11    1    3    3    0    0 -0.33449762801E+01 -0.28900201976E+00 -0.43166206416E+01  0.54686015129E+01  0.51100000000E-03 0.  1.
         12    1    3    3    0    0 -0.21037396096E+02  0.14946151480E+02  0.64562339236E+01  0.26601549486E+02  0.00000000000E+00 0. -1.
</event>
<event>
 7    1  0.4761207E-009  0.4778727E+02  0.7816164E-02  0.1312668E+00
        -11   -1    0    0    0    0  0.00000000000E+00  0.00000000000E+00  0.45593999997E+02  0.45594000000E+02  0.51100000000E-03 0. -1.
         11   -1    0    0    0    0 -0.00000000000E+00 -0.00000000000E+00 -0.45593999997E+02  0.45594000000E+02  0.51100000000E-03 0.  1.
    9900012    2    1    2    0    0 -0.30456880682E+02 -0.56119739724E+01  0.30405718973E+02  0.47787267529E+02  0.19999983972E+02 0.  0.
        -12    1    1    2    0    0  0.30456880682E+02  0.56119739724E+01 -0.30405718973E+02  0.43400732471E+02  0.00000000000E+00 0.  1.
         11    1    3    3    0    0 -0.22017954363E+02 -0.62693027150E+01  0.23076416938E+02  0.32505622434E+02  0.51100000000E-03 0.  1.
        -11    1    3    3    0    0 -0.31668811032E+01 -0.32958327359E+01  0.73929572373E+01  0.86918045491E+01  0.51100000000E-03 0. -1.
        -12    1    3    3    0    0 -0.52720452157E+01  0.39531614785E+01 -0.63655202634E-01  0.65898405456E+01  0.00000000000E+00 0.  1.
</event>
<event>
 7    1  0.4011333E-009  0.4778727E+02  0.7816164E-02  0.1312668E+00
        -11   -1    0    0    0    0  0.00000000000E+00  0.00000000000E+00  0.45593999997E+02  0.45594000000E+02  0.51100000000E-03 0.  1.
         11   -1    0    0    0    0 -0.00000000000E+00 -0.00000000000E+00 -0.45593999997E+02  0.45594000000E+02  0.51100000000E-03 0. -1.
    9900012    2    1    2    0    0  0.59803340812E+01  0.42881435708E+02  0.30069032454E+01  0.47787269692E+02  0.19999993835E+02 0.  0.
        -12    1    1    2    0    0 -0.59803340812E+01 -0.42881435708E+02 -0.30069032454E+01  0.43400730308E+02  0.00000000000E+00 0.  1.
         11    1    3    3    0    0  0.55268212755E+01  0.15256719557E+02 -0.55013773300E+01  0.17134129621E+02  0.51100000000E-03 0. -1.
        -11    1    3    3    0    0 -0.13791112769E+01  0.38574939204E+01 -0.20510053098E+01  0.45813568188E+01  0.51100000000E-03 0.  1.
        -12    1    3    3    0    0  0.18326240826E+01  0.23767222230E+02  0.10559285885E+02  0.26071783253E+02  0.00000000000E+00 0.  1.
</event>
<event>
 7    1  0.4011333E-009  0.4778727E+02  0.7816164E-02  0.1312668E+00
        -11   -1    0    0    0    0  0.00000000000E+00  0.00000000000E+00  0.45593999997E+02  0.45594000000E+02  0.51100000000E-03 0. -1.
         11   -1    0    0    0    0 -0.00000000000E+00 -0.00000000000E+00 -0.45593999997E+02  0.45594000000E+02  0.51100000000E-03 0.  1.
    9900012    2    1    2    0    0 -0.21210607634E+02  0.24210085754E+02 -0.29113653964E+02  0.47787274481E+02  0.20000015670E+02 0.  0.
        -12    1    1    2    0    0  0.21210607634E+02 -0.24210085754E+02  0.29113653964E+02  0.43400725519E+02  0.00000000000E+00 0.  1.
         11    1    3    3    0    0 -0.11192140246E+02  0.10907185004E+02 -0.62895798360E+01  0.16846053033E+02  0.51100000000E-03 0. -1.
        -11    1    3    3    0    0 -0.34205590476E+01 -0.16054298112E+01 -0.14227540877E+01  0.40375560098E+01  0.51100000000E-03 0.  1.
         12    1    3    3    0    0 -0.65979083407E+01  0.14908330561E+02 -0.21401320040E+02  0.26903665439E+02  0.00000000000E+00 0. -1.
</event>
<event>
 7    1  0.4011333E-009  0.4778727E+02  0.7816164E-02  0.1312668E+00
        -11   -1    0    0    0    0  0.00000000000E+00  0.00000000000E+00  0.45593999997E+02  0.45594000000E+02  0.51100000000E-03 0.  1.
         11   -1    0    0    0    0 -0.00000000000E+00 -0.00000000000E+00 -0.45593999997E+02  0.45594000000E+02  0.51100000000E-03 0. -1.
    9900012    2    1    2    0    0  0.18391982783E+02  0.15866819304E+02 -0.35966686013E+02  0.47787268575E+02  0.19999988739E+02 0.  0.
        -12    1    1    2    0    0 -0.18391982783E+02 -0.15866819304E+02  0.35966686013E+02  0.43400731425E+02  0.00000000000E+00 0.  1.
         11    1    3    3    0    0  0.37930538179E+01  0.69526084123E+01 -0.10401151283E+01  0.79879822697E+01  0.51100000000E-03 0. -1.
        -11    1    3    3    0    0 -0.75426301366E+00 -0.53919297064E+00 -0.29196605251E+01  0.30633412471E+01  0.51100000000E-03 0.  1.
        -12    1    3    3    0    0  0.15353191979E+02  0.94534038624E+01 -0.32006910359E+02  0.36735945058E+02  0.00000000000E+00 0.  1.
</event>
<event>
 7    1  0.4011333E-009  0.4778727E+02  0.7816164E-02  0.1312668E+00
        -11   -1    0    0    0    0  0.00000000000E+00  0.00000000000E+00  0.45593999997E+02  0.45594000000E+02  0.51100000000E-03 0.  1.
         11   -1    0    0    0    0 -0.00000000000E+00 -0.00000000000E+00 -0.45593999997E+02  0.45594000000E+02  0.51100000000E-03 0. -1.
    9900012    2    1    2    0    0 -0.90232066202E+01  0.26915202784E+02 -0.32829512289E+02  0.47787271023E+02  0.19999999902E+02 0.  0.
        -12    1    1    2    0    0  0.90232066202E+01 -0.26915202784E+02  0.32829512289E+02  0.43400728977E+02  0.00000000000E+00 0.  1.
         11    1    3    3    0    0 -0.12536129483E+00  0.10274406606E+02 -0.13870169711E+02  0.17261539753E+02  0.51100000000E-03 0. -1.
        -11    1    3    3    0    0 -0.88164014692E+01  0.19023501683E+02 -0.18757660386E+02  0.28133118820E+02  0.51100000000E-03 0.  1.
        -12    1    3    3    0    0 -0.81443856094E-01 -0.23827055057E+01 -0.20168219267E+00  0.23926124499E+01  0.00000000000E+00 0.  1.
</event>
<event>
 7    1  0.4011333E-009  0.4778727E+02  0.7816164E-02  0.1312668E+00
        -11   -1    0    0    0    0  0.00000000000E+00  0.00000000000E+00  0.45593999997E+02  0.45594000000E+02  0.51100000000E-03 0. -1.
         11   -1    0    0    0    0 -0.00000000000E+00 -0.00000000000E+00 -0.45593999997E+02  0.45594000000E+02  0.51100000000E-03 0.  1.
    9900012    2    1    2    0    0 -0.37030187334E+02 -0.20699114698E+02  0.91616253795E+01  0.47787268406E+02  0.19999987972E+02 0.  0.
        -12    1    1    2    0    0  0.37030187334E+02  0.20699114698E+02 -0.91616253795E+01  0.43400731594E+02  0.00000000000E+00 0.  1.
         11    1    3    3    0    0 -0.34161321485E+01  0.47798346496E+00  0.34590032159E+01  0.48849903334E+01  0.51100000000E-03 0. -1.
        -11    1    3    3    0    0 -0.18959774179E+00 -0.30057102416E+01  0.37471491162E+01  0.48074284312E+01  0.51100000000E-03 0.  1.
         12    1    3    3    0    0 -0.33424457443E+02 -0.18171387922E+02  0.19554730474E+01  0.38094849642E+02  0.00000000000E+00 0. -1.
</event>
<event>
 7    1  0.4011333E-009  0.4778727E+02  0.7816164E-02  0.1312668E+00
        -11   -1    0    0    0    0  0.00000000000E+00  0.00000000000E+00  0.45593999997E+02  0.45594000000E+02  0.51100000000E-03 0.  1.
         11   -1    0    0    0    0 -0.00000000000E+00 -0.00000000000E+00 -0.45593999997E+02  0.45594000000E+02  0.51100000000E-03 0. -1.
    9900012    2    1    2    0    0  0.24968124260E+02 -0.11277031278E+02 -0.33660730388E+02  0.47787269202E+02  0.19999991600E+02 0.  0.
        -12    1    1    2    0    0 -0.24968124260E+02  0.11277031278E+02  0.33660730388E+02  0.43400730798E+02  0.00000000000E+00 0.  1.
         11    1    3    3    0    0  0.15211030228E+02 -0.56194221403E+01 -0.23047494662E+02  0.28180496025E+02  0.51100000000E-03 0. -1.
        -11    1    3    3    0    0  0.18063585171E+00  0.14471253751E+01 -0.69954800923E+01  0.71458759537E+01  0.51100000000E-03 0.  1.
        -12    1    3    3    0    0  0.95764581801E+01 -0.71047345132E+01 -0.36177556344E+01  0.12460897223E+02  0.00000000000E+00 0.  1.
</event>
<event>
 7    1  0.4011333E-009  0.4778727E+02  0.7816164E-02  0.1312668E+00
        -11   -1    0    0    0    0  0.00000000000E+00  0.00000000000E+00  0.45593999997E+02  0.45594000000E+02  0.51100000000E-03 0. -1.
         11   -1    0    0    0    0 -0.00000000000E+00 -0.00000000000E+00 -0.45593999997E+02  0.45594000000E+02  0.51100000000E-03 0.  1.
    9900012    2    1    2    0    0  0.40672619383E+02  0.40912573993E+01  0.14581594046E+02  0.47787271440E+02  0.20000001804E+02 0.  0.
        -12    1    1    2    0    0 -0.40672619383E+02 -0.40912573993E+01 -0.14581594046E+02  0.43400728560E+02  0.00000000000E+00 0.  1.
         11    1    3    3    0    0  0.41847239126E+01  0.64374910428E+01  0.17278299009E+01  0.78701081046E+01  0.51100000000E-03 0. -1.
        -11    1    3    3    0    0  0.51490034687E+01 -0.25933448770E+01  0.49434035804E+01  0.75944001469E+01  0.51100000000E-03 0.  1.
        -12    1    3    3    0    0  0.31338892002E+02  0.24711123354E+00  0.79103605647E+01  0.32322763189E+02  0.00000000000E+00 0.  1.
</event>
<event>
 7    1  0.4011333E-009  0.4778727E+02  0.7816164E-02  0.1312668E+00
        -11   -1    0    0    0    0  0.00000000000E+00  0.00000000000E+00  0.45593999997E+02  0.45594000000E+02  0.51100000000E-03 0.  1.
         11   -1    0    0    0    0 -0.00000000000E+00 -0.00000000000E+00 -0.45593999997E+02  0.45594000000E+02  0.51100000000E-03 0. -1.
    9900012    2    1    2    0    0 -0.29089868906E+01  0.38364320417E+02 -0.20083334819E+02  0.47787267020E+02  0.19999981650E+02 0.  0.
        -12    1    1    2    0    0  0.29089868906E+01 -0.38364320417E+02  0.20083334819E+02  0.43400732980E+02  0.00000000000E+00 0.  1.
         11    1    3    3    0    0 -0.33843297346E+00  0.70071843090E+01 -0.66946711224E+01  0.96971021711E+01  0.51100000000E-03 0.  1.
        -11    1    3    3    0    0 -0.79767213038E+01  0.67047306573E+01 -0.37767546529E+01  0.11083563142E+02  0.51100000000E-03 0. -1.
         12    1    3    3    0    0  0.54061673867E+01  0.24652405450E+02 -0.96119090434E+01  0.27006601707E+02  0.00000000000E+00 0. -1.
</event>
<event>
 7    1  0.4011333E-009  0.4778727E+02  0.7816164E-02  0.1312668E+00
        -11   -1    0    0    0    0  0.00000000000E+00  0.00000000000E+00  0.45593999997E+02  0.45594000000E+02  0.51100000000E-03 0. -1.
         11   -1    0    0    0    0 -0.00000000000E+00 -0.00000000000E+00 -0.45593999997E+02  0.45594000000E+02  0.51100000000E-03 0.  1.
    9900012    2    1    2    0    0  0.23346930448E+02  0.32896822831E+02 -0.16010717423E+02  0.47787272056E+02  0.20000004611E+02 0.  0.
        -12    1    1    2    0    0 -0.23346930448E+02 -0.32896822831E+02  0.16010717423E+02  0.43400727944E+02  0.00000000000E+00 0.  1.
         11    1    3    3    0    0  0.41405730562E+01  0.62832839560E+01 -0.52684222329E+01  0.91858736977E+01  0.51100000000E-03 0. -1.
        -11    1    3    3    0    0  0.26154902366E+00 -0.79863356192E+00 -0.46525533534E+01  0.47278405668E+01  0.51100000000E-03 0.  1.
         12    1    3    3    0    0  0.18944808368E+02  0.27412172437E+02 -0.60897418366E+01  0.33873557791E+02  0.00000000000E+00 0. -1.
</event>
<event>
 7    1  0.4011333E-009  0.4778728E+02  0.7816164E-02  0.1312668E+00
        -11   -1    0    0    0    0  0.00000000000E+00  0.00000000000E+00  0.45593999997E+02  0.45594000000E+02  0.51100000000E-03 0.  1.
         11   -1    0    0    0    0 -0.00000000000E+00 -0.00000000000E+00 -0.45593999997E+02  0.45594000000E+02  0.51100000000E-03 0. -1.
    9900012    2    1    2    0    0  0.14732282741E+02 -0.23723732304E+02 -0.33222993133E+02  0.47787275329E+02  0.20000019535E+02 0.  0.
        -12    1    1    2    0    0 -0.14732282741E+02  0.23723732304E+02  0.33222993133E+02  0.43400724671E+02  0.00000000000E+00 0.  1.
         11    1    3    3    0    0  0.13586627110E+02 -0.16455700244E+02 -0.21529551804E+02  0.30313497124E+02  0.51100000000E-03 0. -1.
        -11    1    3    3    0    0  0.47250750616E+01  0.12162724949E+00 -0.35687632768E+01  0.59226007051E+01  0.51100000000E-03 0.  1.
        -12    1    3    3    0    0 -0.35794194304E+01 -0.73896593100E+01 -0.81246780528E+01  0.11551177500E+02  0.00000000000E+00 0.  1.
</event>
<event>
 7    1  0.4011333E-009  0.4778727E+02  0.7816164E-02  0.1312668E+00
        -11   -1    0    0    0    0  0.00000000000E+00  0.00000000000E+00  0.45593999997E+02  0.45594000000E+02  0.51100000000E-03 0. -1.
         11   -1    0    0    0    0 -0.00000000000E+00 -0.00000000000E+00 -0.45593999997E+02  0.45594000000E+02  0.51100000000E-03 0.  1.
    9900012    2    1    2    0    0 -0.36520298546E+02 -0.75759362335E+01  0.22192258419E+02  0.47787270174E+02  0.19999996032E+02 0.  0.
        -12    1    1    2    0    0  0.36520298546E+02  0.75759362335E+01 -0.22192258419E+02  0.43400729826E+02  0.00000000000E+00 0.  1.
         11    1    3    3    0    0 -0.14999794994E+02 -0.51934555556E+01  0.16878155940E+02  0.23169764320E+02  0.51100000000E-03 0. -1.
        -11    1    3    3    0    0 -0.15391269285E+02  0.65631626682E+00  0.78890524927E+01  0.17307774864E+02  0.51100000000E-03 0.  1.
        -12    1    3    3    0    0 -0.61292342671E+01 -0.30387969447E+01 -0.25749500139E+01  0.73097309900E+01  0.00000000000E+00 0.  1.
</event>
<event>
 7    1  0.4011333E-009  0.4778727E+02  0.7816164E-02  0.1312668E+00
        -11   -1    0    0    0    0  0.00000000000E+00  0.00000000000E+00  0.45593999997E+02  0.45594000000E+02  0.51100000000E-03 0.  1.
         11   -1    0    0    0    0 -0.00000000000E+00 -0.00000000000E+00 -0.45593999997E+02  0.45594000000E+02  0.51100000000E-03 0. -1.
    9900012    2    1    2    0    0 -0.11827239730E+02 -0.24015493172E+02 -0.34161320624E+02  0.47787270297E+02  0.19999996593E+02 0.  0.
        -12    1    1    2    0    0  0.11827239730E+02  0.24015493172E+02  0.34161320624E+02  0.43400729703E+02  0.00000000000E+00 0.  1.
         11    1    3    3    0    0 -0.39988503537E+01 -0.63137190385E+01 -0.17244756670E+01  0.76699197411E+01  0.51100000000E-03 0. -1.
        -11    1    3    3    0    0 -0.73012895766E+01 -0.17057741863E+02 -0.18658103704E+02  0.26313498837E+02  0.51100000000E-03 0.  1.
        -12    1    3    3    0    0 -0.52709979982E+00 -0.64403227092E+00 -0.13778741253E+02  0.13803851719E+02  0.00000000000E+00 0.  1.
</event>
<event>
 7    1  0.4011333E-009  0.4778727E+02  0.7816164E-02  0.1312668E+00
        -11   -1    0    0    0    0  0.00000000000E+00  0.00000000000E+00  0.45593999997E+02  0.45594000000E+02  0.51100000000E-03 0.  1.
         11   -1    0    0    0    0 -0.00000000000E+00 -0.00000000000E+00 -0.45593999997E+02  0.45594000000E+02  0.51100000000E-03 0. -1.
    9900012    2    1    2    0    0  0.84053660818E+01  0.17727419144E+02 -0.38713196162E+02  0.47787272753E+02  0.20000007789E+02 0.  0.
        -12    1    1    2    0    0 -0.84053660818E+01 -0.17727419144E+02  0.38713196162E+02  0.43400727247E+02  0.00000000000E+00 0.  1.
         11    1    3    3    0    0 -0.23227146494E+01  0.94445230604E+00 -0.25288981108E+01  0.35612244267E+01  0.51100000000E-03 0. -1.
        -11    1    3    3    0    0  0.60874062717E+01  0.47927404699E+01 -0.24517434453E+01  0.81263720387E+01  0.51100000000E-03 0.  1.
         12    1    3    3    0    0  0.46406744595E+01  0.11990226368E+02 -0.33732554606E+02  0.36099676287E+02  0.00000000000E+00 0. -1.
</event>
<event>
 7    1  0.4011333E-009  0.4778727E+02  0.7816164E-02  0.1312668E+00
        -11   -1    0    0    0    0  0.00000000000E+00  0.00000000000E+00  0.45593999997E+02  0.45594000000E+02  0.51100000000E-03 0.  1.
         11   -1    0    0    0    0 -0.00000000000E+00 -0.00000000000E+00 -0.45593999997E+02  0.45594000000E+02  0.51100000000E-03 0. -1.
    9900012    2    1    2    0    0 -0.18774906430E+02  0.27613475033E+02 -0.27724034288E+02  0.47787271987E+02  0.20000004297E+02 0.  0.
        -12    1    1    2    0    0  0.18774906430E+02 -0.27613475033E+02  0.27724034288E+02  0.43400728013E+02  0.00000000000E+00 0.  1.
         11    1    3    3    0    0 -0.38496184878E+01 -0.16971817238E+00  0.63822613462E+00  0.39058545313E+01  0.51100000000E-03 0. -1.
        -11    1    3    3    0    0  0.42946756107E+00  0.19009411125E+00 -0.39233971070E+01  0.39514077590E+01  0.51100000000E-03 0.  1.
         12    1    3    3    0    0 -0.15354755503E+02  0.27593099094E+02 -0.24438863316E+02  0.39930009696E+02  0.00000000000E+00 0. -1.
</event>
<event>
 7    1  0.4011333E-009  0.4778727E+02  0.7816164E-02  0.1312668E+00
        -11   -1    0    0    0    0  0.00000000000E+00  0.00000000000E+00  0.45593999997E+02  0.45594000000E+02  0.51100000000E-03 0.  1.
         11   -1    0    0    0    0 -0.00000000000E+00 -0.00000000000E+00 -0.45593999997E+02  0.45594000000E+02  0.51100000000E-03 0. -1.
    9900012    2    1    2    0    0 -0.18561317894E+02 -0.20474861434E+02 -0.33464620429E+02  0.47787270823E+02  0.19999998990E+02 0.  0.
        -12    1    1    2    0    0  0.18561317894E+02  0.20474861434E+02  0.33464620429E+02  0.43400729177E+02  0.00000000000E+00 0.  1.
         11    1    3    3    0    0 -0.96526552240E+01 -0.10987838699E+02 -0.76680086607E+01  0.16513773319E+02  0.51100000000E-03 0.  1.
        -11    1    3    3    0    0 -0.93363878650E+01 -0.26851086065E+01 -0.94052263994E+01  0.13521694808E+02  0.51100000000E-03 0. -1.
         12    1    3    3    0    0  0.42772519550E+00 -0.68019141278E+01 -0.16391385369E+02  0.17751802696E+02  0.00000000000E+00 0. -1.
</event>
<event>
 7    1  0.4011333E-009  0.4778727E+02  0.7816164E-02  0.1312668E+00
        -11   -1    0    0    0    0  0.00000000000E+00  0.00000000000E+00  0.45593999997E+02  0.45594000000E+02  0.51100000000E-03 0.  1.
         11   -1    0    0    0    0 -0.00000000000E+00 -0.00000000000E+00 -0.45593999997E+02  0.45594000000E+02  0.51100000000E-03 0. -1.
    9900012    2    1    2    0    0 -0.16907349685E+02  0.20275816395E+02 -0.34447882227E+02  0.47787265054E+02  0.19999972688E+02 0.  0.
        -12    1    1    2    0    0  0.16907349685E+02 -0.20275816395E+02  0.34447882227E+02  0.43400734946E+02  0.00000000000E+00 0.  1.
         11    1    3    3    0    0 -0.90844274675E+01  0.51862993341E+01 -0.18964544694E+02  0.21658219662E+02  0.51100000000E-03 0. -1.
        -11    1    3    3    0    0 -0.15673354361E+01  0.16672591079E+01  0.21241599425E+01  0.31222346203E+01  0.51100000000E-03 0.  1.
         12    1    3    3    0    0 -0.62555867814E+01  0.13422257953E+02 -0.17607497476E+02  0.23006810772E+02  0.00000000000E+00 0. -1.
</event>
<event>
 7    1  0.4011333E-009  0.4778727E+02  0.7816164E-02  0.1312668E+00
        -11   -1    0    0    0    0  0.00000000000E+00  0.00000000000E+00  0.45593999997E+02  0.45594000000E+02  0.51100000000E-03 0.  1.
         11   -1    0    0    0    0 -0.00000000000E+00 -0.00000000000E+00 -0.45593999997E+02  0.45594000000E+02  0.51100000000E-03 0. -1.
    9900012    2    1    2    0    0  0.10171329498E+02 -0.59036477177E+01 -0.41776958574E+02  0.47787271114E+02  0.20000000318E+02 0.  0.
        -12    1    1    2    0    0 -0.10171329498E+02  0.59036477177E+01  0.41776958574E+02  0.43400728886E+02  0.00000000000E+00 0.  1.
         11    1    3    3    0    0 -0.58259488478E+00 -0.10577463623E+02 -0.21009156593E+02  0.23528850684E+02  0.51100000000E-03 0. -1.
        -11    1    3    3    0    0  0.50366037646E+01  0.17929178642E+01 -0.53459773020E+01  0.75605162207E+01  0.51100000000E-03 0.  1.
         12    1    3    3    0    0  0.57173206180E+01  0.28808980409E+01 -0.15421824679E+02  0.16697904210E+02  0.00000000000E+00 0. -1.
</event>
<event>
 7    1  0.4011333E-009  0.4778723E+02  0.7816164E-02  0.1312668E+00
        -11   -1    0    0    0    0  0.00000000000E+00  0.00000000000E+00  0.45593999997E+02  0.45594000000E+02  0.51100000000E-03 0.  1.
         11   -1    0    0    0    0 -0.00000000000E+00 -0.00000000000E+00 -0.45593999997E+02  0.45594000000E+02  0.51100000000E-03 0. -1.
    9900012    2    1    2    0    0  0.13437111207E+02  0.30116149849E+02 -0.28215041827E+02  0.47787227833E+02  0.19999802982E+02 0.  0.
        -12    1    1    2    0    0 -0.13437111207E+02 -0.30116149849E+02  0.28215041827E+02  0.43400772167E+02  0.00000000000E+00 0.  1.
         11    1    3    3    0    0  0.11756409603E+02  0.19917424499E+02 -0.16526584993E+02  0.28426131942E+02  0.51100000000E-03 0. -1.
        -11    1    3    3    0    0 -0.78284608047E-01  0.11043411337E+02 -0.45218155409E+01  0.11933561014E+02  0.51100000000E-03 0.  1.
        -12    1    3    3    0    0  0.17589862121E+01 -0.84468598605E+00 -0.71666412938E+01  0.74275348766E+01  0.00000000000E+00 0.  1.
</event>
<event>
 7    1  0.4011333E-009  0.4778727E+02  0.7816164E-02  0.1312668E+00
        -11   -1    0    0    0    0  0.00000000000E+00  0.00000000000E+00  0.45593999997E+02  0.45594000000E+02  0.51100000000E-03 0.  1.
         11   -1    0    0    0    0 -0.00000000000E+00 -0.00000000000E+00 -0.45593999997E+02  0.45594000000E+02  0.51100000000E-03 0. -1.
    9900012    2    1    2    0    0 -0.10282213464E+02  0.38756055110E+02  0.16609264232E+02  0.47787269825E+02  0.19999994440E+02 0.  0.
        -12    1    1    2    0    0  0.10282213464E+02 -0.38756055110E+02 -0.16609264232E+02  0.43400730175E+02  0.00000000000E+00 0.  1.
         11    1    3    3    0    0 -0.12046335742E+01  0.24707210171E+02  0.77367316719E+01  0.25918225127E+02  0.51100000000E-03 0. -1.
        -11    1    3    3    0    0 -0.28534155279E+01  0.12839082553E+02  0.36362058798E+01  0.13645732462E+02  0.51100000000E-03 0.  1.
        -12    1    3    3    0    0 -0.62241643616E+01  0.12097623861E+01  0.52363266799E+01  0.82233122360E+01  0.00000000000E+00 0.  1.
</event>
<event>
 7    1  0.4011333E-009  0.4778726E+02  0.7816164E-02  0.1312668E+00
        -11   -1    0    0    0    0  0.00000000000E+00  0.00000000000E+00  0.45593999997E+02  0.45594000000E+02  0.51100000000E-03 0.  1.
         11   -1    0    0    0    0 -0.00000000000E+00 -0.00000000000E+00 -0.45593999997E+02  0.45594000000E+02  0.51100000000E-03 0. -1.
    9900012    2    1    2    0    0  0.34716113803E+02  0.40538220981E+00 -0.26043251064E+02  0.47787264772E+02  0.19999971403E+02 0.  0.
        -12    1    1    2    0    0 -0.34716113803E+02 -0.40538220981E+00  0.26043251064E+02  0.43400735228E+02  0.00000000000E+00 0.  1.
         11    1    3    3    0    0 -0.39061973802E+00  0.63080087137E+00 -0.49233223006E+00  0.89044079249E+00  0.51100000000E-03 0. -1.
        -11    1    3    3    0    0  0.62756666259E+01  0.51722446686E+01 -0.21118751105E+00  0.81351525454E+01  0.51100000000E-03 0.  1.
         12    1    3    3    0    0  0.28831066915E+02 -0.53976633301E+01 -0.25339731323E+02  0.38761671435E+02  0.00000000000E+00 0. -1.
</event>
<event>
 7    1  0.4011333E-009  0.4778727E+02  0.7816164E-02  0.1312668E+00
        -11   -1    0    0    0    0  0.00000000000E+00  0.00000000000E+00  0.45593999997E+02  0.45594000000E+02  0.51100000000E-03 0.  1.
         11   -1    0    0    0    0 -0.00000000000E+00 -0.00000000000E+00 -0.45593999997E+02  0.45594000000E+02  0.51100000000E-03 0. -1.
    9900012    2    1    2    0    0 -0.33226387980E+02  0.27904327688E+02  0.98966201056E+00  0.47787265066E+02  0.19999972740E+02 0.  0.
        -12    1    1    2    0    0  0.33226387980E+02 -0.27904327688E+02 -0.98966201056E+00  0.43400734934E+02  0.00000000000E+00 0.  1.
         11    1    3    3    0    0 -0.99287256358E+01  0.10043810413E+02 -0.71761807418E+00  0.14141170260E+02  0.51100000000E-03 0. -1.
        -11    1    3    3    0    0  0.37656136373E+00  0.44800865882E+01 -0.38159958156E+01  0.58970160780E+01  0.51100000000E-03 0.  1.
         12    1    3    3    0    0 -0.23674223708E+02  0.13380430688E+02  0.55232759003E+01  0.27749078728E+02  0.00000000000E+00 0. -1.
</event>
<event>
 7    1  0.4011333E-009  0.4778728E+02  0.7816164E-02  0.1312668E+00
        -11   -1    0    0    0    0  0.00000000000E+00  0.00000000000E+00  0.45593999997E+02  0.45594000000E+02  0.51100000000E-03 0.  1.
         11   -1    0    0    0    0 -0.00000000000E+00 -0.00000000000E+00 -0.45593999997E+02  0.45594000000E+02  0.51100000000E-03 0. -1.
    9900012    2    1    2    0    0 -0.41359935674E+02 -0.11790189528E+02  0.58283822563E+01  0.47787275492E+02  0.20000020278E+02 0.  0.
        -12    1    1    2    0    0  0.41359935674E+02  0.11790189528E+02 -0.58283822563E+01  0.43400724508E+02  0.00000000000E+00 0.  1.
         11    1    3    3    0    0 -0.10649163506E+02  0.39024355717E+01  0.55186877024E+01  0.12613072623E+02  0.51100000000E-03 0. -1.
        -11    1    3    3    0    0 -0.24575075422E+01 -0.37847987899E+01  0.17979436083E-01  0.45126897435E+01  0.51100000000E-03 0.  1.
         12    1    3    3    0    0 -0.28253264626E+02 -0.11907826309E+02  0.29171511784E+00  0.30661513126E+02  0.00000000000E+00 0. -1.
</event>
<event>
 7    1  0.4011333E-009  0.4778725E+02  0.7816164E-02  0.1312668E+00
        -11   -1    0    0    0    0  0.00000000000E+00  0.00000000000E+00  0.45593999997E+02  0.45594000000E+02  0.51100000000E-03 0.  1.
         11   -1    0    0    0    0 -0.00000000000E+00 -0.00000000000E+00 -0.45593999997E+02  0.45594000000E+02  0.51100000000E-03 0. -1.
    9900012    2    1    2    0    0  0.42525973459E+02  0.67665847774E+00 -0.86434067275E+01  0.47787253863E+02  0.19999921664E+02 0.  0.
        -12    1    1    2    0    0 -0.42525973459E+02 -0.67665847774E+00  0.86434067275E+01  0.43400746137E+02  0.00000000000E+00 0.  1.
         11    1    3    3    0    0  0.18447852709E+01 -0.32693682613E+01  0.27397004294E+00  0.37639156964E+01  0.51100000000E-03 0.  1.
        -11    1    3    3    0    0  0.20975155103E+02 -0.41090411778E+01 -0.76328286730E+01  0.22695845981E+02  0.51100000000E-03 0. -1.
        -12    1    3    3    0    0  0.19706033086E+02  0.80550679169E+01 -0.12845480975E+01  0.21327492186E+02  0.00000000000E+00 0.  1.
</event>
<event>
 7    1  0.4011333E-009  0.4778727E+02  0.7816164E-02  0.1312668E+00
        -11   -1    0    0    0    0  0.00000000000E+00  0.00000000000E+00  0.45593999997E+02  0.45594000000E+02  0.51100000000E-03 0.  1.
         11   -1    0    0    0    0 -0.00000000000E+00 -0.00000000000E+00 -0.45593999997E+02  0.45594000000E+02  0.51100000000E-03 0. -1.
    9900012    2    1    2    0    0  0.59876233770E+01  0.28423306425E+02 -0.32247283563E+02  0.47787270985E+02  0.19999999729E+02 0.  0.
        -12    1    1    2    0    0 -0.59876233770E+01 -0.28423306425E+02  0.32247283563E+02  0.43400729015E+02  0.00000000000E+00 0.  1.
         11    1    3    3    0    0  0.23422317795E+01  0.33260812973E+01 -0.62053280788E+00  0.41150853857E+01  0.51100000000E-03 0. -1.
        -11    1    3    3    0    0  0.97682163623E+01  0.12964619347E+02 -0.20218718824E+02  0.25928671329E+02  0.51100000000E-03 0.  1.
         12    1    3    3    0    0 -0.61228247648E+01  0.12132605781E+02 -0.11408031931E+02  0.17743514270E+02  0.00000000000E+00 0. -1.
</event>
<event>
 7    1  0.4011333E-009  0.4778726E+02  0.7816164E-02  0.1312668E+00
        -11   -1    0    0    0    0  0.00000000000E+00  0.00000000000E+00  0.45593999997E+02  0.45594000000E+02  0.51100000000E-03 0. -1.
         11   -1    0    0    0    0 -0.00000000000E+00 -0.00000000000E+00 -0.45593999997E+02  0.45594000000E+02  0.51100000000E-03 0.  1.
    9900012    2    1    2    0    0  0.28082253708E+02  0.14306277706E+02  0.29838588790E+02  0.47787263415E+02  0.19999965216E+02 0.  0.
        -12    1    1    2    0    0 -0.28082253708E+02 -0.14306277706E+02 -0.29838588790E+02  0.43400736585E+02  0.00000000000E+00 0.  1.
         11    1    3    3    0    0  0.97981247310E+01 -0.21443772265E+01  0.82277417598E+01  0.12972946337E+02  0.51100000000E-03 0. -1.
        -11    1    3    3    0    0  0.21798421573E+01  0.17704964543E+01  0.94523133263E+01  0.98606590554E+01  0.51100000000E-03 0.  1.
        -12    1    3    3    0    0  0.16104286820E+02  0.14680158478E+02  0.12158533703E+02  0.24953658023E+02  0.00000000000E+00 0.  1.
</event>
<event>
 7    1  0.4011333E-009  0.4778726E+02  0.7816164E-02  0.1312668E+00
        -11   -1    0    0    0    0  0.00000000000E+00  0.00000000000E+00  0.45593999997E+02  0.45594000000E+02  0.51100000000E-03 0.  1.
         11   -1    0    0    0    0 -0.00000000000E+00 -0.00000000000E+00 -0.45593999997E+02  0.45594000000E+02  0.51100000000E-03 0. -1.
    9900012    2    1    2    0    0 -0.34468789281E+02 -0.25547251121E+02 -0.65470998925E+01  0.47787262779E+02  0.19999962312E+02 0.  0.
        -12    1    1    2    0    0  0.34468789281E+02  0.25547251121E+02  0.65470998925E+01  0.43400737221E+02  0.00000000000E+00 0.  1.
         11    1    3    3    0    0 -0.52920275700E+01 -0.55226368467E+01 -0.53493684731E+01  0.93338532700E+01  0.51100000000E-03 0. -1.
        -11    1    3    3    0    0 -0.25628632456E+02 -0.12126978687E+02 -0.53465347495E+01  0.28852657551E+02  0.51100000000E-03 0.  1.
        -12    1    3    3    0    0 -0.35481292551E+01 -0.78976355874E+01  0.41488033301E+01  0.96007519578E+01  0.00000000000E+00 0.  1.
</event>
<event>
 7    1  0.4011333E-009  0.4778727E+02  0.7816164E-02  0.1312668E+00
        -11   -1    0    0    0    0  0.00000000000E+00  0.00000000000E+00  0.45593999997E+02  0.45594000000E+02  0.51100000000E-03 0.  1.
         11   -1    0    0    0    0 -0.00000000000E+00 -0.00000000000E+00 -0.45593999997E+02  0.45594000000E+02  0.51100000000E-03 0. -1.
    9900012    2    1    2    0    0 -0.15279782217E+02  0.32988086378E+02 -0.23705218919E+02  0.47787274298E+02  0.20000014832E+02 0.  0.
        -12    1    1    2    0    0  0.15279782217E+02 -0.32988086378E+02  0.23705218919E+02  0.43400725702E+02  0.00000000000E+00 0.  1.
         11    1    3    3    0    0 -0.61144291324E+01  0.22579045719E-01 -0.61292711052E+01  0.86576392839E+01  0.51100000000E-03 0. -1.
        -11    1    3    3    0    0 -0.14737692875E+00  0.43142186578E+01  0.22733624285E-01  0.43167950687E+01  0.51100000000E-03 0.  1.
         12    1    3    3    0    0 -0.90179761555E+01  0.28651288675E+02 -0.17598681438E+02  0.34812839945E+02  0.00000000000E+00 0. -1.
</event>
<event>
 7    1  0.4011333E-009  0.4778727E+02  0.7816164E-02  0.1312668E+00
        -11   -1    0    0    0    0  0.00000000000E+00  0.00000000000E+00  0.45593999997E+02  0.45594000000E+02  0.51100000000E-03 0.  1.
         11   -1    0    0    0    0 -0.00000000000E+00 -0.00000000000E+00 -0.45593999997E+02  0.45594000000E+02  0.51100000000E-03 0. -1.
    9900012    2    1    2    0    0 -0.11517626158E+02  0.19867233984E+02 -0.36827446961E+02  0.47787267884E+02  0.19999985592E+02 0.  0.
        -12    1    1    2    0    0  0.11517626158E+02 -0.19867233984E+02  0.36827446961E+02  0.43400732116E+02  0.00000000000E+00 0.  1.
         11    1    3    3    0    0  0.28036492810E+01  0.11279007277E+02 -0.23178877527E+02  0.25929458500E+02  0.51100000000E-03 0. -1.
        -11    1    3    3    0    0  0.12648097481E+00 -0.77620540508E-01 -0.39530041846E+00  0.42223816413E+00  0.51100000000E-03 0.  1.
         12    1    3    3    0    0 -0.14447756414E+02  0.86658472481E+01 -0.13253269015E+02  0.21435571220E+02  0.00000000000E+00 0. -1.
</event>
<event>
 7    1  0.4011333E-009  0.4778727E+02  0.7816164E-02  0.1312668E+00
        -11   -1    0    0    0    0  0.00000000000E+00  0.00000000000E+00  0.45593999997E+02  0.45594000000E+02  0.51100000000E-03 0. -1.
         11   -1    0    0    0    0 -0.00000000000E+00 -0.00000000000E+00 -0.45593999997E+02  0.45594000000E+02  0.51100000000E-03 0.  1.
    9900012    2    1    2    0    0  0.52076352869E+01  0.43070714325E+02 -0.11904641812E+01  0.47787273016E+02  0.20000008990E+02 0.  0.
        -12    1    1    2    0    0 -0.52076352869E+01 -0.43070714325E+02  0.11904641812E+01  0.43400726984E+02  0.00000000000E+00 0.  1.
         11    1    3    3    0    0 -0.27505789735E+01  0.25201950737E+01  0.70930983673E+00  0.37973923427E+01  0.51100000000E-03 0. -1.
        -11    1    3    3    0    0 -0.27715254061E+01  0.12256070136E+02  0.39444938891E+01  0.13170104045E+02  0.51100000000E-03 0.  1.
        -12    1    3    3    0    0  0.10729739667E+02  0.28294449115E+02 -0.58442679070E+01  0.30819776628E+02  0.00000000000E+00 0.  1.
</event>
<event>
 7    1  0.4011333E-009  0.4778728E+02  0.7816164E-02  0.1312668E+00
        -11   -1    0    0    0    0  0.00000000000E+00  0.00000000000E+00  0.45593999997E+02  0.45594000000E+02  0.51100000000E-03 0.  1.
         11   -1    0    0    0    0 -0.00000000000E+00 -0.00000000000E+00 -0.45593999997E+02  0.45594000000E+02  0.51100000000E-03 0. -1.
    9900012    2    1    2    0    0 -0.35390506424E+02  0.23713756444E+02  0.82941335169E+01  0.47787276038E+02  0.20000022769E+02 0.  0.
        -12    1    1    2    0    0  0.35390506424E+02 -0.23713756444E+02 -0.82941335169E+01  0.43400723962E+02  0.00000000000E+00 0.  1.
         11    1    3    3    0    0 -0.31384005831E+02  0.25546937521E+02  0.90236810472E+01  0.41461170492E+02  0.51100000000E-03 0. -1.
        -11    1    3    3    0    0 -0.11539852601E+01  0.81292792831E+00  0.13163870418E+01  0.19301318354E+01  0.51100000000E-03 0.  1.
         12    1    3    3    0    0 -0.28525153330E+01 -0.26461090054E+01 -0.20459345720E+01  0.43959737108E+01  0.00000000000E+00 0. -1.
</event>
<event>
 7    1  0.4011333E-009  0.4778727E+02  0.7816164E-02  0.1312668E+00
        -11   -1    0    0    0    0  0.00000000000E+00  0.00000000000E+00  0.45593999997E+02  0.45594000000E+02  0.51100000000E-03 0.  1.
         11   -1    0    0    0    0 -0.00000000000E+00 -0.00000000000E+00 -0.45593999997E+02  0.45594000000E+02  0.51100000000E-03 0. -1.
    9900012    2    1    2    0    0 -0.28453020598E+01  0.10387384609E+02 -0.42043192951E+02  0.47787267560E+02  0.19999984115E+02 0.  0.
        -12    1    1    2    0    0  0.28453020598E+01 -0.10387384609E+02  0.42043192951E+02  0.43400732440E+02  0.00000000000E+00 0.  1.
         11    1    3    3    0    0  0.25494074766E+01  0.86789908446E+01 -0.17978552907E+02  0.20125921729E+02  0.51100000000E-03 0. -1.
        -11    1    3    3    0    0  0.37029157162E+01 -0.12736432556E+01 -0.89574552862E+01  0.97759785909E+01  0.51100000000E-03 0.  1.
         12    1    3    3    0    0 -0.90976252526E+01  0.29820370199E+01 -0.15107184757E+02  0.17885367240E+02  0.00000000000E+00 0. -1.
</event>
<event>
 7    1  0.4011333E-009  0.4778728E+02  0.7816164E-02  0.1312668E+00
        -11   -1    0    0    0    0  0.00000000000E+00  0.00000000000E+00  0.45593999997E+02  0.45594000000E+02  0.51100000000E-03 0.  1.
         11   -1    0    0    0    0 -0.00000000000E+00 -0.00000000000E+00 -0.45593999997E+02  0.45594000000E+02  0.51100000000E-03 0. -1.
    9900012    2    1    2    0    0  0.27638256556E+02  0.22106564124E+02 -0.25120694239E+02  0.47787277865E+02  0.20000031097E+02 0.  0.
        -12    1    1    2    0    0 -0.27638256556E+02 -0.22106564124E+02  0.25120694239E+02  0.43400722135E+02  0.00000000000E+00 0.  1.
         11    1    3    3    0    0  0.12475855849E+02  0.56125970418E+01 -0.66665039140E+01  0.15218097759E+02  0.51100000000E-03 0.  1.
        -11    1    3    3    0    0  0.12926325930E+02  0.57844680620E+01 -0.15980744380E+02  0.21352614922E+02  0.51100000000E-03 0. -1.
        -12    1    3    3    0    0  0.22360747769E+01  0.10709499020E+02 -0.24734459452E+01  0.11216565184E+02  0.00000000000E+00 0.  1.
</event>
<event>
 7    1  0.4011333E-009  0.4778727E+02  0.7816164E-02  0.1312668E+00
        -11   -1    0    0    0    0  0.00000000000E+00  0.00000000000E+00  0.45593999997E+02  0.45594000000E+02  0.51100000000E-03 0. -1.
         11   -1    0    0    0    0 -0.00000000000E+00 -0.00000000000E+00 -0.45593999997E+02  0.45594000000E+02  0.51100000000E-03 0.  1.
    9900012    2    1    2    0    0  0.64890935382E+01 -0.41086396562E+02  0.12386394018E+02  0.47787273345E+02  0.20000010488E+02 0.  0.
        -12    1    1    2    0    0 -0.64890935382E+01  0.41086396562E+02 -0.12386394018E+02  0.43400726655E+02  0.00000000000E+00 0.  1.
         11    1    3    3    0    0  0.52523010249E+01 -0.10573852357E+02  0.71431975665E-01  0.11806698205E+02  0.51100000000E-03 0. -1.
        -11    1    3    3    0    0  0.65662367490E+01 -0.24448271209E+02  0.11688858390E+02  0.27883020656E+02  0.51100000000E-03 0.  1.
        -12    1    3    3    0    0 -0.53294442357E+01 -0.60642729959E+01  0.62610365205E+00  0.80975544835E+01  0.00000000000E+00 0.  1.
</event>
<event>
 7    1  0.4619346E-009  0.4778729E+02  0.7816164E-02  0.1312668E+00
        -11   -1    0    0    0    0  0.00000000000E+00  0.00000000000E+00  0.45593999997E+02  0.45594000000E+02  0.51100000000E-03 0. -1.
         11   -1    0    0    0    0 -0.00000000000E+00 -0.00000000000E+00 -0.45593999997E+02  0.45594000000E+02  0.51100000000E-03 0.  1.
    9900012    2    1    2    0    0 -0.35278960537E+02 -0.25183059157E+02 -0.21978448161E+01  0.47787285180E+02  0.20000064449E+02 0.  0.
        -12    1    1    2    0    0  0.35278960537E+02  0.25183059157E+02  0.21978448161E+01  0.43400714820E+02  0.00000000000E+00 0.  1.
         11    1    3    3    0    0 -0.17465676268E+02 -0.11625881422E+02 -0.35002843975E+01  0.21271176683E+02  0.51100000000E-03 0. -1.
        -11    1    3    3    0    0 -0.12332031367E+02 -0.12793576979E+02 -0.46709055231E+01  0.18373131693E+02  0.51100000000E-03 0.  1.
        -12    1    3    3    0    0 -0.54812529016E+01 -0.76360075551E+00  0.59733451046E+01  0.81429768036E+01  0.00000000000E+00 0.  1.
</event>
<event>
 7    1  0.4011333E-009  0.4778726E+02  0.7816164E-02  0.1312668E+00
        -11   -1    0    0    0    0  0.00000000000E+00  0.00000000000E+00  0.45593999997E+02  0.45594000000E+02  0.51100000000E-03 0. -1.
         11   -1    0    0    0    0 -0.00000000000E+00 -0.00000000000E+00 -0.45593999997E+02  0.45594000000E+02  0.51100000000E-03 0.  1.
    9900012    2    1    2    0    0 -0.23608318038E+02 -0.47944623213E+01  0.36101037199E+02  0.47787257652E+02  0.19999938937E+02 0.  0.
        -12    1    1    2    0    0  0.23608318038E+02  0.47944623213E+01 -0.36101037199E+02  0.43400742348E+02  0.00000000000E+00 0.  1.
         11    1    3    3    0    0 -0.17794132238E+01 -0.16265003485E+01  0.63810477682E+01  0.68212598313E+01  0.51100000000E-03 0. -1.
        -11    1    3    3    0    0 -0.16990389697E+02  0.45962472467E+01  0.25262231755E+02  0.30789270604E+02  0.51100000000E-03 0.  1.
         12    1    3    3    0    0 -0.48385151180E+01 -0.77642092194E+01  0.44577576756E+01  0.10176727217E+02  0.00000000000E+00 0. -1.
</event>
<event>
 7    1  0.4011333E-009  0.4778727E+02  0.7816164E-02  0.1312668E+00
        -11   -1    0    0    0    0  0.00000000000E+00  0.00000000000E+00  0.45593999997E+02  0.45594000000E+02  0.51100000000E-03 0.  1.
         11   -1    0    0    0    0 -0.00000000000E+00 -0.00000000000E+00 -0.45593999997E+02  0.45594000000E+02  0.51100000000E-03 0. -1.
    9900012    2    1    2    0    0  0.17830309572E+02 -0.26965076612E+02 -0.28958384732E+02  0.47787270255E+02  0.19999996401E+02 0.  0.
        -12    1    1    2    0    0 -0.17830309572E+02  0.26965076612E+02  0.28958384732E+02  0.43400729745E+02  0.00000000000E+00 0.  1.
         11    1    3    3    0    0 -0.39752329674E+00 -0.33350828198E+01 -0.23223297128E+01  0.40833831246E+01  0.51100000000E-03 0. -1.
        -11    1    3    3    0    0  0.68345750779E+01 -0.22007232353E+02 -0.16201863269E+02  0.28169665706E+02  0.51100000000E-03 0.  1.
         12    1    3    3    0    0  0.11393257791E+02 -0.16227614385E+01 -0.10434191751E+02  0.15534221424E+02  0.00000000000E+00 0. -1.
</event>
<event>
 7    1  0.4011333E-009  0.4778727E+02  0.7816164E-02  0.1312668E+00
        -11   -1    0    0    0    0  0.00000000000E+00  0.00000000000E+00  0.45593999997E+02  0.45594000000E+02  0.51100000000E-03 0.  1.
         11   -1    0    0    0    0 -0.00000000000E+00 -0.00000000000E+00 -0.45593999997E+02  0.45594000000E+02  0.51100000000E-03 0. -1.
    9900012    2    1    2    0    0  0.10534534733E+02  0.42088450635E+02  0.10996388222E+01  0.47787270692E+02  0.19999998395E+02 0.  0.
        -12    1    1    2    0    0 -0.10534534733E+02 -0.42088450635E+02 -0.10996388222E+01  0.43400729308E+02  0.00000000000E+00 0.  1.
         11    1    3    3    0    0  0.54981431758E+01  0.28374682885E+02  0.83131418067E+01  0.30074250351E+02  0.51100000000E-03 0. -1.
        -11    1    3    3    0    0  0.25396605651E+01  0.13323215548E+01  0.50304614716E+00  0.29117026288E+01  0.51100000000E-03 0.  1.
        -12    1    3    3    0    0  0.24967309921E+01  0.12381446195E+02 -0.77165491316E+01  0.14801317713E+02  0.00000000000E+00 0.  1.
</event>
<event>
 7    1  0.4758006E-009  0.4778727E+02  0.7816164E-02  0.1312668E+00
        -11   -1    0    0    0    0  0.00000000000E+00  0.00000000000E+00  0.45593999997E+02  0.45594000000E+02  0.51100000000E-03 0.  1.
         11   -1    0    0    0    0 -0.00000000000E+00 -0.00000000000E+00 -0.45593999997E+02  0.45594000000E+02  0.51100000000E-03 0. -1.
    9900012    2    1    2    0    0 -0.19144440967E+02 -0.38456639403E+02 -0.61806340221E+01  0.47787274533E+02  0.20000015908E+02 0.  0.
        -12    1    1    2    0    0  0.19144440967E+02  0.38456639403E+02  0.61806340221E+01  0.43400725467E+02  0.00000000000E+00 0.  1.
         11    1    3    3    0    0 -0.73943988776E+00 -0.85111942715E+01 -0.36051332819E+01  0.92727657965E+01  0.51100000000E-03 0. -1.
        -11    1    3    3    0    0 -0.19095636254E+02 -0.30576500832E+02 -0.45442619588E+01  0.36334777337E+02  0.51100000000E-03 0.  1.
        -12    1    3    3    0    0  0.69063517473E+00  0.63105570080E+00  0.19687612186E+01  0.21797314004E+01  0.00000000000E+00 0.  1.
</event>
<event>
 7    1  0.4011333E-009  0.4778727E+02  0.7816164E-02  0.1312668E+00
        -11   -1    0    0    0    0  0.00000000000E+00  0.00000000000E+00  0.45593999997E+02  0.45594000000E+02  0.51100000000E-03 0. -1.
         11   -1    0    0    0    0 -0.00000000000E+00 -0.00000000000E+00 -0.45593999997E+02  0.45594000000E+02  0.51100000000E-03 0.  1.
    9900012    2    1    2    0    0  0.22212241540E+02 -0.36559462674E+02  0.73243061443E+01  0.47787269064E+02  0.19999990971E+02 0.  0.
        -12    1    1    2    0    0 -0.22212241540E+02  0.36559462674E+02 -0.73243061443E+01  0.43400730936E+02  0.00000000000E+00 0.  1.
         11    1    3    3    0    0 -0.18235952490E+01 -0.23462354969E+01  0.13797963389E+01  0.32763026168E+01  0.51100000000E-03 0. -1.
        -11    1    3    3    0    0  0.27916286981E+00 -0.92418388311E+01 -0.11636234281E+01  0.93189879617E+01  0.51100000000E-03 0.  1.
         12    1    3    3    0    0  0.23756673919E+02 -0.24971388346E+02  0.71081332335E+01  0.35191978485E+02  0.00000000000E+00 0. -1.
</event>
<event>
 7    1  0.4011333E-009  0.4778727E+02  0.7816164E-02  0.1312668E+00
        -11   -1    0    0    0    0  0.00000000000E+00  0.00000000000E+00  0.45593999997E+02  0.45594000000E+02  0.51100000000E-03 0.  1.
         11   -1    0    0    0    0 -0.00000000000E+00 -0.00000000000E+00 -0.45593999997E+02  0.45594000000E+02  0.51100000000E-03 0. -1.
    9900012    2    1    2    0    0  0.22968062308E+01 -0.21346009060E+02 -0.37718638431E+02  0.47787272970E+02  0.20000008780E+02 0.  0.
        -12    1    1    2    0    0 -0.22968062308E+01  0.21346009060E+02  0.37718638431E+02  0.43400727030E+02  0.00000000000E+00 0.  1.
         11    1    3    3    0    0  0.15895226866E+01 -0.11795043929E+02 -0.23254694453E+02  0.26123369959E+02  0.51100000000E-03 0. -1.
        -11    1    3    3    0    0 -0.13429799593E+01 -0.12478023605E+02 -0.11045007944E+02  0.16718159857E+02  0.51100000000E-03 0.  1.
        -12    1    3    3    0    0  0.20502635036E+01  0.29270584738E+01 -0.34189360333E+01  0.49457431537E+01  0.00000000000E+00 0.  1.
</event>
<event>
 7    1  0.4011333E-009  0.4778727E+02  0.7816164E-02  0.1312668E+00
        -11   -1    0    0    0    0  0.00000000000E+00  0.00000000000E+00  0.45593999997E+02  0.45594000000E+02  0.51100000000E-03 0.  1.
         11   -1    0    0    0    0 -0.00000000000E+00 -0.00000000000E+00 -0.45593999997E+02  0.45594000000E+02  0.51100000000E-03 0. -1.
    9900012    2    1    2    0    0  0.38854834138E+01  0.15153498490E+02 -0.40483302339E+02  0.47787271134E+02  0.20000000410E+02 0.  0.
        -12    1    1    2    0    0 -0.38854834138E+01 -0.15153498490E+02  0.40483302339E+02  0.43400728866E+02  0.00000000000E+00 0.  1.
         11    1    3    3    0    0  0.98341767846E+00  0.61007365136E+00  0.15683696193E+01  0.19491238325E+01  0.51100000000E-03 0. -1.
        -11    1    3    3    0    0 -0.20293201507E+01  0.49153592023E+01 -0.52234306998E+01  0.74540676746E+01  0.51100000000E-03 0.  1.
         12    1    3    3    0    0  0.49313858861E+01  0.96280656359E+01 -0.36828241258E+02  0.38384079627E+02  0.00000000000E+00 0. -1.
</event>
<event>
 7    1  0.4011333E-009  0.4778727E+02  0.7816164E-02  0.1312668E+00
        -11   -1    0    0    0    0  0.00000000000E+00  0.00000000000E+00  0.45593999997E+02  0.45594000000E+02  0.51100000000E-03 0.  1.
         11   -1    0    0    0    0 -0.00000000000E+00 -0.00000000000E+00 -0.45593999997E+02  0.45594000000E+02  0.51100000000E-03 0. -1.
    9900012    2    1    2    0    0  0.23157538588E+02  0.34624197257E+02 -0.12186759569E+02  0.47787265698E+02  0.19999975623E+02 0.  0.
        -12    1    1    2    0    0 -0.23157538588E+02 -0.34624197257E+02  0.12186759569E+02  0.43400734302E+02  0.00000000000E+00 0.  1.
         11    1    3    3    0    0  0.18377437406E+01  0.38724949369E+01  0.21658572478E+01  0.48025469254E+01  0.51100000000E-03 0. -1.
        -11    1    3    3    0    0  0.11537072541E+02  0.12655417133E+02  0.12429881632E+01  0.17169992587E+02  0.51100000000E-03 0.  1.
         12    1    3    3    0    0  0.97827223071E+01  0.18096285187E+02 -0.15595604980E+02  0.25814726185E+02  0.00000000000E+00 0. -1.
</event>
<event>
 7    1  0.4011333E-009  0.4778727E+02  0.7816164E-02  0.1312668E+00
        -11   -1    0    0    0    0  0.00000000000E+00  0.00000000000E+00  0.45593999997E+02  0.45594000000E+02  0.51100000000E-03 0.  1.
         11   -1    0    0    0    0 -0.00000000000E+00 -0.00000000000E+00 -0.45593999997E+02  0.45594000000E+02  0.51100000000E-03 0. -1.
    9900012    2    1    2    0    0 -0.18543398962E+00  0.62012254789E+01 -0.42955022376E+02  0.47787268088E+02  0.19999986519E+02 0.  0.
        -12    1    1    2    0    0  0.18543398962E+00 -0.62012254789E+01  0.42955022376E+02  0.43400731912E+02  0.00000000000E+00 0.  1.
         11    1    3    3    0    0  0.64214297794E+01  0.33545472272E+01 -0.16217999867E+02  0.17762636838E+02  0.51100000000E-03 0. -1.
        -11    1    3    3    0    0  0.17564515662E+01  0.43060921036E+01 -0.13692846455E+02  0.14461037155E+02  0.51100000000E-03 0.  1.
        -12    1    3    3    0    0 -0.83633153352E+01 -0.14594138518E+01 -0.13044176055E+02  0.15563594094E+02  0.00000000000E+00 0.  1.
</event>
<event>
 7    1  0.4011333E-009  0.4778728E+02  0.7816164E-02  0.1312668E+00
        -11   -1    0    0    0    0  0.00000000000E+00  0.00000000000E+00  0.45593999997E+02  0.45594000000E+02  0.51100000000E-03 0.  1.
         11   -1    0    0    0    0 -0.00000000000E+00 -0.00000000000E+00 -0.45593999997E+02  0.45594000000E+02  0.51100000000E-03 0. -1.
    9900012    2    1    2    0    0  0.40928442178E+02 -0.14402567184E+02  0.10252698416E+01  0.47787279973E+02  0.20000040710E+02 0.  0.
        -12    1    1    2    0    0 -0.40928442178E+02  0.14402567184E+02 -0.10252698416E+01  0.43400720027E+02  0.00000000000E+00 0.  1.
         11    1    3    3    0    0  0.17392417871E+02 -0.84964654997E+01 -0.68469777443E+01  0.20532102422E+02  0.51100000000E-03 0. -1.
        -11    1    3    3    0    0  0.10147418118E+02 -0.33653340329E+01 -0.13857175845E+01  0.10780342346E+02  0.51100000000E-03 0.  1.
        -12    1    3    3    0    0  0.13388606189E+02 -0.25407676515E+01  0.92579651703E+01  0.16474835205E+02  0.00000000000E+00 0.  1.
</event>
<event>
 7    1  0.4011333E-009  0.4778727E+02  0.7816164E-02  0.1312668E+00
        -11   -1    0    0    0    0  0.00000000000E+00  0.00000000000E+00  0.45593999997E+02  0.45594000000E+02  0.51100000000E-03 0. -1.
         11   -1    0    0    0    0 -0.00000000000E+00 -0.00000000000E+00 -0.45593999997E+02  0.45594000000E+02  0.51100000000E-03 0.  1.
    9900012    2    1    2    0    0  0.40922702105E-01  0.17368160103E+02  0.39773970296E+02  0.47787269901E+02  0.19999994787E+02 0.  0.
        -12    1    1    2    0    0 -0.40922702105E-01 -0.17368160103E+02 -0.39773970296E+02  0.43400730099E+02  0.00000000000E+00 0.  1.
         11    1    3    3    0    0  0.53850456152E+01  0.73673787291E+01  0.18676901998E+02  0.20787103071E+02  0.51100000000E-03 0. -1.
        -11    1    3    3    0    0 -0.23303357189E+01  0.95500826688E+01  0.21763690624E+02  0.23880803449E+02  0.51100000000E-03 0.  1.
        -12    1    3    3    0    0 -0.30137871941E+01  0.45069870488E+00 -0.66662232569E+00  0.31193633804E+01  0.00000000000E+00 0.  1.
</event>
<event>
 7    1  0.4011333E-009  0.4778727E+02  0.7816164E-02  0.1312668E+00
        -11   -1    0    0    0    0  0.00000000000E+00  0.00000000000E+00  0.45593999997E+02  0.45594000000E+02  0.51100000000E-03 0. -1.
         11   -1    0    0    0    0 -0.00000000000E+00 -0.00000000000E+00 -0.45593999997E+02  0.45594000000E+02  0.51100000000E-03 0.  1.
    9900012    2    1    2    0    0 -0.34342769882E+02  0.23763037499E+02  0.11811652595E+02  0.47787274990E+02  0.20000017989E+02 0.  0.
        -12    1    1    2    0    0  0.34342769882E+02 -0.23763037499E+02 -0.11811652595E+02  0.43400725010E+02  0.00000000000E+00 0.  1.
         11    1    3    3    0    0 -0.20410943638E+01 -0.54635983964E+00  0.14002681686E+01  0.25348227712E+01  0.51100000000E-03 0. -1.
        -11    1    3    3    0    0 -0.14058984313E+02  0.30817632799E+01 -0.21876410703E+01  0.14558093231E+02  0.51100000000E-03 0.  1.
         12    1    3    3    0    0 -0.18242691206E+02  0.21227634059E+02  0.12599025497E+02  0.30694358987E+02  0.00000000000E+00 0. -1.
</event>
<event>
 7    1  0.4011333E-009  0.4778728E+02  0.7816164E-02  0.1312668E+00
        -11   -1    0    0    0    0  0.00000000000E+00  0.00000000000E+00  0.45593999997E+02  0.45594000000E+02  0.51100000000E-03 0.  1.
         11   -1    0    0    0    0 -0.00000000000E+00 -0.00000000000E+00 -0.45593999997E+02  0.45594000000E+02  0.51100000000E-03 0. -1.
    9900012    2    1    2    0    0 -0.40430336031E+02 -0.14687235343E+02  0.57702291999E+01  0.47787279976E+02  0.20000040721E+02 0.  0.
        -12    1    1    2    0    0  0.40430336031E+02  0.14687235343E+02 -0.57702291999E+01  0.43400720024E+02  0.00000000000E+00 0.  1.
         11    1    3    3    0    0 -0.11316854864E+02  0.18954705358E+01  0.65559843369E+01  0.13215329865E+02  0.51100000000E-03 0. -1.
        -11    1    3    3    0    0 -0.20401068132E+01  0.33242880127E+00 -0.16380797164E+01  0.26373945734E+01  0.51100000000E-03 0.  1.
        -12    1    3    3    0    0 -0.27073374354E+02 -0.16915134680E+02  0.85232457936E+00  0.31934555537E+02  0.00000000000E+00 0.  1.
</event>
<event>
 7    1  0.4011333E-009  0.4778727E+02  0.7816164E-02  0.1312668E+00
        -11   -1    0    0    0    0  0.00000000000E+00  0.00000000000E+00  0.45593999997E+02  0.45594000000E+02  0.51100000000E-03 0.  1.
         11   -1    0    0    0    0 -0.00000000000E+00 -0.00000000000E+00 -0.45593999997E+02  0.45594000000E+02  0.51100000000E-03 0. -1.
    9900012    2    1    2    0    0  0.62464214312E+01 -0.79193501090E+01 -0.42212434600E+02  0.47787268189E+02  0.19999986983E+02 0.  0.
        -12    1    1    2    0    0 -0.62464214312E+01  0.79193501090E+01  0.42212434600E+02  0.43400731811E+02  0.00000000000E+00 0.  1.
         11    1    3    3    0    0 -0.19065260707E+00  0.13631687622E+01 -0.59167764161E+01  0.60747692063E+01  0.51100000000E-03 0. -1.
        -11    1    3    3    0    0  0.39212087111E+01 -0.99250654274E+01 -0.80999090542E+01  0.13397437383E+02  0.51100000000E-03 0.  1.
        -12    1    3    3    0    0  0.25158653272E+01  0.64254655611E+00 -0.28195749130E+02  0.28315061600E+02  0.00000000000E+00 0.  1.
</event>
<event>
 7    1  0.4011333E-009  0.4778727E+02  0.7816164E-02  0.1312668E+00
        -11   -1    0    0    0    0  0.00000000000E+00  0.00000000000E+00  0.45593999997E+02  0.45594000000E+02  0.51100000000E-03 0.  1.
         11   -1    0    0    0    0 -0.00000000000E+00 -0.00000000000E+00 -0.45593999997E+02  0.45594000000E+02  0.51100000000E-03 0. -1.
    9900012    2    1    2    0    0 -0.17217136491E+02 -0.10629287356E+02 -0.38395463583E+02  0.47787272329E+02  0.20000005855E+02 0.  0.
        -12    1    1    2    0    0  0.17217136491E+02  0.10629287356E+02  0.38395463583E+02  0.43400727671E+02  0.00000000000E+00 0.  1.
         11    1    3    3    0    0 -0.41555477814E+01 -0.58130841963E+01 -0.18825605944E+02  0.20136135793E+02  0.51100000000E-03 0. -1.
        -11    1    3    3    0    0 -0.10034945269E+02 -0.89302332869E+01 -0.17682143168E+02  0.22206021264E+02  0.51100000000E-03 0.  1.
        -12    1    3    3    0    0 -0.30266434398E+01  0.41140301269E+01 -0.18877144710E+01  0.54451152716E+01  0.00000000000E+00 0.  1.
</event>
<event>
 7    1  0.4011333E-009  0.4778727E+02  0.7816164E-02  0.1312668E+00
        -11   -1    0    0    0    0  0.00000000000E+00  0.00000000000E+00  0.45593999997E+02  0.45594000000E+02  0.51100000000E-03 0. -1.
         11   -1    0    0    0    0 -0.00000000000E+00 -0.00000000000E+00 -0.45593999997E+02  0.45594000000E+02  0.51100000000E-03 0.  1.
    9900012    2    1    2    0    0 -0.17463562632E+00  0.31976019590E+02  0.29344959488E+02  0.47787274502E+02  0.20000015763E+02 0.  0.
        -12    1    1    2    0    0  0.17463562632E+00 -0.31976019590E+02 -0.29344959488E+02  0.43400725498E+02  0.00000000000E+00 0.  1.
         11    1    3    3    0    0  0.23423486339E+01  0.22359735775E+02  0.28806500951E+02  0.36541194266E+02  0.51100000000E-03 0. -1.
        -11    1    3    3    0    0 -0.42509583917E+00 -0.55084050707E+00  0.51551042501E+00  0.86595784893E+00  0.51100000000E-03 0.  1.
        -12    1    3    3    0    0 -0.20918884210E+01  0.10167124323E+02  0.22948111481E-01  0.10380122387E+02  0.00000000000E+00 0.  1.
</event>
<event>
 7    1  0.4011333E-009  0.4778727E+02  0.7816164E-02  0.1312668E+00
        -11   -1    0    0    0    0  0.00000000000E+00  0.00000000000E+00  0.45593999997E+02  0.45594000000E+02  0.51100000000E-03 0.  1.
         11   -1    0    0    0    0 -0.00000000000E+00 -0.00000000000E+00 -0.45593999997E+02  0.45594000000E+02  0.51100000000E-03 0. -1.
    9900012    2    1    2    0    0  0.35758385137E+02 -0.52553441670E+01 -0.24027952095E+02  0.47787271529E+02  0.20000002208E+02 0.  0.
        -12    1    1    2    0    0 -0.35758385137E+02  0.52553441670E+01  0.24027952095E+02  0.43400728471E+02  0.00000000000E+00 0.  1.
         11    1    3    3    0    0  0.14870811761E+02  0.29886407773E+01 -0.90809651806E+01  0.17678714462E+02  0.51100000000E-03 0. -1.
        -11    1    3    3    0    0  0.22841849230E+02 -0.77354438301E+01 -0.13723107736E+02  0.27747267499E+02  0.51100000000E-03 0.  1.
        -12    1    3    3    0    0 -0.19542758540E+01 -0.50854111418E+00 -0.12238791786E+01  0.23612895677E+01  0.00000000000E+00 0.  1.
</event>
<event>
 7    1  0.4011333E-009  0.4778727E+02  0.7816164E-02  0.1312668E+00
        -11   -1    0    0    0    0  0.00000000000E+00  0.00000000000E+00  0.45593999997E+02  0.45594000000E+02  0.51100000000E-03 0.  1.
         11   -1    0    0    0    0 -0.00000000000E+00 -0.00000000000E+00 -0.45593999997E+02  0.45594000000E+02  0.51100000000E-03 0. -1.
    9900012    2    1    2    0    0 -0.33269868789E+02  0.14347616223E+02 -0.23893195636E+02  0.47787273529E+02  0.20000011328E+02 0.  0.
        -12    1    1    2    0    0  0.33269868789E+02 -0.14347616223E+02  0.23893195636E+02  0.43400726471E+02  0.00000000000E+00 0.  1.
         11    1    3    3    0    0 -0.18642159954E+02  0.53568103265E+01 -0.10352339177E+02  0.21986279160E+02  0.51100000000E-03 0. -1.
        -11    1    3    3    0    0 -0.49290095696E+01 -0.33290595454E+01 -0.58279092823E+01  0.83272023908E+01  0.51100000000E-03 0.  1.
         12    1    3    3    0    0 -0.96986992656E+01  0.12319865441E+02 -0.77129471769E+01  0.17473791978E+02  0.00000000000E+00 0. -1.
</event>
<event>
 7    1  0.4011333E-009  0.4778727E+02  0.7816164E-02  0.1312668E+00
        -11   -1    0    0    0    0  0.00000000000E+00  0.00000000000E+00  0.45593999997E+02  0.45594000000E+02  0.51100000000E-03 0. -1.
         11   -1    0    0    0    0 -0.00000000000E+00 -0.00000000000E+00 -0.45593999997E+02  0.45594000000E+02  0.51100000000E-03 0.  1.
    9900012    2    1    2    0    0 -0.36376432671E+02 -0.20971458520E+02 -0.10980726023E+02  0.47787271086E+02  0.20000000188E+02 0.  0.
        -12    1    1    2    0    0  0.36376432671E+02  0.20971458520E+02  0.10980726023E+02  0.43400728914E+02  0.00000000000E+00 0.  1.
         11    1    3    3    0    0 -0.91048220895E+01 -0.40394888557E+01 -0.88556552932E+01  0.13328086375E+02  0.51100000000E-03 0. -1.
        -11    1    3    3    0    0 -0.77770046035E+00  0.17120192035E+01  0.53152924733E+00  0.19540602245E+01  0.51100000000E-03 0.  1.
         12    1    3    3    0    0 -0.26493910121E+02 -0.18643988868E+02 -0.26565999771E+01  0.32505124486E+02  0.00000000000E+00 0. -1.
</event>
<event>
 7    1  0.4011333E-009  0.4778727E+02  0.7816164E-02  0.1312668E+00
        -11   -1    0    0    0    0  0.00000000000E+00  0.00000000000E+00  0.45593999997E+02  0.45594000000E+02  0.51100000000E-03 0.  1.
         11   -1    0    0    0    0 -0.00000000000E+00 -0.00000000000E+00 -0.45593999997E+02  0.45594000000E+02  0.51100000000E-03 0. -1.
    9900012    2    1    2    0    0  0.27555019089E+02  0.22460282538E+02 -0.24897388064E+02  0.47787270731E+02  0.19999998573E+02 0.  0.
        -12    1    1    2    0    0 -0.27555019089E+02 -0.22460282538E+02  0.24897388064E+02  0.43400729269E+02  0.00000000000E+00 0.  1.
         11    1    3    3    0    0  0.16281095304E+02  0.10425398211E+02 -0.59908088958E+01  0.20239881019E+02  0.51100000000E-03 0. -1.
        -11    1    3    3    0    0  0.81060906218E+01  0.81838784424E+01 -0.46117231426E+01  0.12407762173E+02  0.51100000000E-03 0.  1.
        -12    1    3    3    0    0  0.31678331627E+01  0.38510058840E+01 -0.14294856025E+02  0.15139627540E+02  0.00000000000E+00 0.  1.
</event>
<event>
 7    1  0.5722082E-009  0.4778727E+02  0.7816164E-02  0.1312668E+00
        -11   -1    0    0    0    0  0.00000000000E+00  0.00000000000E+00  0.45593999997E+02  0.45594000000E+02  0.51100000000E-03 0.  1.
         11   -1    0    0    0    0 -0.00000000000E+00 -0.00000000000E+00 -0.45593999997E+02  0.45594000000E+02  0.51100000000E-03 0. -1.
    9900012    2    1    2    0    0 -0.32953473830E+02 -0.13422733068E+02  0.24849992027E+02  0.47787270695E+02  0.19999998406E+02 0.  0.
        -12    1    1    2    0    0  0.32953473830E+02  0.13422733068E+02 -0.24849992027E+02  0.43400729305E+02  0.00000000000E+00 0.  1.
         11    1    3    3    0    0 -0.14929017539E+02 -0.81262768500E+01  0.15353430704E+02  0.22905016367E+02  0.51100000000E-03 0. -1.
        -11    1    3    3    0    0 -0.15128480553E+02 -0.93429422879E+01  0.88587748666E+01  0.19865532634E+02  0.51100000000E-03 0.  1.
        -12    1    3    3    0    0 -0.28959757378E+01  0.40464860701E+01  0.63778645639E+00  0.50167216938E+01  0.00000000000E+00 0.  1.
</event>
<event>
 7    1  0.4011333E-009  0.4778728E+02  0.7816164E-02  0.1312668E+00
        -11   -1    0    0    0    0  0.00000000000E+00  0.00000000000E+00  0.45593999997E+02  0.45594000000E+02  0.51100000000E-03 0. -1.
         11   -1    0    0    0    0 -0.00000000000E+00 -0.00000000000E+00 -0.45593999997E+02  0.45594000000E+02  0.51100000000E-03 0.  1.
    9900012    2    1    2    0    0 -0.26924894372E+02 -0.13016543073E+01  0.34014380634E+02  0.47787281909E+02  0.20000049538E+02 0.  0.
        -12    1    1    2    0    0  0.26924894372E+02  0.13016543073E+01 -0.34014380634E+02  0.43400718091E+02  0.00000000000E+00 0.  1.
         11    1    3    3    0    0 -0.22992706051E+01 -0.22695658848E+00 -0.13392197656E+00  0.23143227876E+01  0.51100000000E-03 0. -1.
        -11    1    3    3    0    0 -0.35033727206E+01  0.66106178266E+01  0.72277907640E+01  0.10402636592E+02  0.51100000000E-03 0.  1.
         12    1    3    3    0    0 -0.21122251046E+02 -0.76853155454E+01  0.26920511846E+02  0.35070322530E+02  0.00000000000E+00 0. -1.
</event>
<event>
 7    1  0.4011333E-009  0.4778728E+02  0.7816164E-02  0.1312668E+00
        -11   -1    0    0    0    0  0.00000000000E+00  0.00000000000E+00  0.45593999997E+02  0.45594000000E+02  0.51100000000E-03 0.  1.
         11   -1    0    0    0    0 -0.00000000000E+00 -0.00000000000E+00 -0.45593999997E+02  0.45594000000E+02  0.51100000000E-03 0. -1.
    9900012    2    1    2    0    0 -0.94847351598E+01  0.89535915850E+01 -0.41394394039E+02  0.47787275799E+02  0.20000021678E+02 0.  0.
        -12    1    1    2    0    0  0.94847351598E+01 -0.89535915850E+01  0.41394394039E+02  0.43400724201E+02  0.00000000000E+00 0.  1.
         11    1    3    3    0    0 -0.58268012278E+01  0.18376961218E+01 -0.26179967729E+02  0.26883441933E+02  0.51100000000E-03 0.  1.
        -11    1    3    3    0    0 -0.34424555934E+01 -0.40527096821E+00 -0.12391978639E+02  0.12867629149E+02  0.51100000000E-03 0. -1.
        -12    1    3    3    0    0 -0.21547833856E+00  0.75211664314E+01 -0.28224476711E+01  0.80362047174E+01  0.00000000000E+00 0.  1.
</event>
<event>
 7    1  0.4011333E-009  0.4778727E+02  0.7816164E-02  0.1312668E+00
        -11   -1    0    0    0    0  0.00000000000E+00  0.00000000000E+00  0.45593999997E+02  0.45594000000E+02  0.51100000000E-03 0. -1.
         11   -1    0    0    0    0 -0.00000000000E+00 -0.00000000000E+00 -0.45593999997E+02  0.45594000000E+02  0.51100000000E-03 0.  1.
    9900012    2    1    2    0    0  0.41545248756E+02  0.10366674327E+02  0.70815069840E+01  0.47787269914E+02  0.19999994847E+02 0.  0.
        -12    1    1    2    0    0 -0.41545248756E+02 -0.10366674327E+02 -0.70815069840E+01  0.43400730086E+02  0.00000000000E+00 0.  1.
         11    1    3    3    0    0  0.73173201370E+01  0.49726509477E+01  0.23619264752E+00  0.88502100914E+01  0.51100000000E-03 0. -1.
        -11    1    3    3    0    0  0.35478332303E+02  0.42962761158E+01  0.83429465748E+01  0.36698430611E+02  0.51100000000E-03 0.  1.
        -12    1    3    3    0    0 -0.12504036841E+01  0.10977472632E+01 -0.14976322384E+01  0.22386292120E+01  0.00000000000E+00 0.  1.
</event>
<event>
 7    1  0.4011333E-009  0.4778727E+02  0.7816164E-02  0.1312668E+00
        -11   -1    0    0    0    0  0.00000000000E+00  0.00000000000E+00  0.45593999997E+02  0.45594000000E+02  0.51100000000E-03 0.  1.
         11   -1    0    0    0    0 -0.00000000000E+00 -0.00000000000E+00 -0.45593999997E+02  0.45594000000E+02  0.51100000000E-03 0. -1.
    9900012    2    1    2    0    0 -0.33395092371E+02 -0.24604317788E+02  0.12767894602E+02  0.47787265204E+02  0.19999973369E+02 0.  0.
        -12    1    1    2    0    0  0.33395092371E+02  0.24604317788E+02 -0.12767894602E+02  0.43400734796E+02  0.00000000000E+00 0.  1.
         11    1    3    3    0    0 -0.35537524504E+01 -0.24831603281E+01 -0.32557873946E+01  0.54217518861E+01  0.51100000000E-03 0. -1.
        -11    1    3    3    0    0  0.11074419952E+01 -0.14637424834E+01 -0.41499334006E-01  0.18359445216E+01  0.51100000000E-03 0.  1.
         12    1    3    3    0    0 -0.30948781916E+02 -0.20657414977E+02  0.16065181330E+02  0.40529568796E+02  0.00000000000E+00 0. -1.
</event>
<event>
 7    1  0.4011333E-009  0.4778727E+02  0.7816164E-02  0.1312668E+00
        -11   -1    0    0    0    0  0.00000000000E+00  0.00000000000E+00  0.45593999997E+02  0.45594000000E+02  0.51100000000E-03 0.  1.
         11   -1    0    0    0    0 -0.00000000000E+00 -0.00000000000E+00 -0.45593999997E+02  0.45594000000E+02  0.51100000000E-03 0. -1.
    9900012    2    1    2    0    0  0.36761577625E+02  0.15671068671E+02  0.16930063689E+02  0.47787273747E+02  0.20000012323E+02 0.  0.
        -12    1    1    2    0    0 -0.36761577625E+02 -0.15671068671E+02 -0.16930063689E+02  0.43400726253E+02  0.00000000000E+00 0.  1.
         11    1    3    3    0    0  0.64649762471E+01  0.75569654288E+01  0.86636540588E+00  0.99826967121E+01  0.51100000000E-03 0. -1.
        -11    1    3    3    0    0  0.33517918852E+01  0.35898926251E+00  0.79195318401E+01  0.86071114179E+01  0.51100000000E-03 0.  1.
         12    1    3    3    0    0  0.26944809493E+02  0.77551139795E+01  0.81441664427E+01  0.29197465617E+02  0.00000000000E+00 0. -1.
</event>
<event>
 7    1  0.4011333E-009  0.4778727E+02  0.7816164E-02  0.1312668E+00
        -11   -1    0    0    0    0  0.00000000000E+00  0.00000000000E+00  0.45593999997E+02  0.45594000000E+02  0.51100000000E-03 0.  1.
         11   -1    0    0    0    0 -0.00000000000E+00 -0.00000000000E+00 -0.45593999997E+02  0.45594000000E+02  0.51100000000E-03 0. -1.
    9900012    2    1    2    0    0 -0.41546271784E+02 -0.10179721129E+02 -0.73419035275E+01  0.47787274558E+02  0.20000016021E+02 0.  0.
        -12    1    1    2    0    0  0.41546271784E+02  0.10179721129E+02  0.73419035275E+01  0.43400725442E+02  0.00000000000E+00 0.  1.
         11    1    3    3    0    0 -0.96862679611E+01 -0.31514536226E+00 -0.91978303665E+00  0.97349424605E+01  0.51100000000E-03 0. -1.
        -11    1    3    3    0    0 -0.24784085451E+02 -0.34615569832E+01  0.22919553509E+01  0.25129391715E+02  0.51100000000E-03 0.  1.
         12    1    3    3    0    0 -0.70759183727E+01 -0.64030187837E+01 -0.87140758418E+01  0.12922940383E+02  0.00000000000E+00 0. -1.
</event>
<event>
 7    1  0.4011333E-009  0.4778727E+02  0.7816164E-02  0.1312668E+00
        -11   -1    0    0    0    0  0.00000000000E+00  0.00000000000E+00  0.45593999997E+02  0.45594000000E+02  0.51100000000E-03 0. -1.
         11   -1    0    0    0    0 -0.00000000000E+00 -0.00000000000E+00 -0.45593999997E+02  0.45594000000E+02  0.51100000000E-03 0.  1.
    9900012    2    1    2    0    0 -0.18882815376E+02  0.12832202711E+02  0.36910663702E+02  0.47787271459E+02  0.20000001890E+02 0.  0.
        -12    1    1    2    0    0  0.18882815376E+02 -0.12832202711E+02 -0.36910663702E+02  0.43400728541E+02  0.00000000000E+00 0.  1.
         11    1    3    3    0    0 -0.13107516700E+01 -0.31553101829E+01  0.33692760074E+01  0.47985490897E+01  0.51100000000E-03 0. -1.
        -11    1    3    3    0    0 -0.79371349506E+00  0.22180822581E+01 -0.69111654848E+00  0.24550992568E+01  0.51100000000E-03 0.  1.
         12    1    3    3    0    0 -0.16778350211E+02  0.13769430636E+02  0.34232504243E+02  0.40533623112E+02  0.00000000000E+00 0. -1.
</event>
<event>
 7    1  0.4011333E-009  0.4778727E+02  0.7816164E-02  0.1312668E+00
        -11   -1    0    0    0    0  0.00000000000E+00  0.00000000000E+00  0.45593999997E+02  0.45594000000E+02  0.51100000000E-03 0.  1.
         11   -1    0    0    0    0 -0.00000000000E+00 -0.00000000000E+00 -0.45593999997E+02  0.45594000000E+02  0.51100000000E-03 0. -1.
    9900012    2    1    2    0    0  0.59317734350E+01 -0.41704523069E+02 -0.10448444719E+02  0.47787272155E+02  0.20000005061E+02 0.  0.
        -12    1    1    2    0    0 -0.59317734350E+01  0.41704523069E+02  0.10448444719E+02  0.43400727845E+02  0.00000000000E+00 0.  1.
         11    1    3    3    0    0  0.21217052229E+01 -0.24066923401E+02 -0.44262872160E+01  0.24562378831E+02  0.51100000000E-03 0. -1.
        -11    1    3    3    0    0 -0.20248147427E+01 -0.15134777138E+02 -0.13245734611E+01  0.15326964763E+02  0.51100000000E-03 0.  1.
        -12    1    3    3    0    0  0.58348829548E+01 -0.25028225299E+01 -0.46975840417E+01  0.78979285602E+01  0.00000000000E+00 0.  1.
</event>
<event>
 7    1  0.4011333E-009  0.4778729E+02  0.7816164E-02  0.1312668E+00
        -11   -1    0    0    0    0  0.00000000000E+00  0.00000000000E+00  0.45593999997E+02  0.45594000000E+02  0.51100000000E-03 0.  1.
         11   -1    0    0    0    0 -0.00000000000E+00 -0.00000000000E+00 -0.45593999997E+02  0.45594000000E+02  0.51100000000E-03 0. -1.
    9900012    2    1    2    0    0  0.15429781382E+01  0.19983583226E+02 -0.38495420093E+02  0.47787288621E+02  0.20000080139E+02 0.  0.
        -12    1    1    2    0    0 -0.15429781382E+01 -0.19983583226E+02  0.38495420093E+02  0.43400711379E+02  0.00000000000E+00 0.  1.
         11    1    3    3    0    0 -0.45494187474E+01  0.43082466211E+01 -0.95969474765E+01  0.11461221620E+02  0.51100000000E-03 0. -1.
        -11    1    3    3    0    0  0.33234032806E+01  0.31849085777E+00 -0.15198795434E+02  0.15561164118E+02  0.51100000000E-03 0.  1.
        -12    1    3    3    0    0  0.27689936051E+01  0.15356845747E+02 -0.13699677182E+02  0.20764902884E+02  0.00000000000E+00 0.  1.
</event>
<event>
 7    1  0.4011333E-009  0.4778727E+02  0.7816164E-02  0.1312668E+00
        -11   -1    0    0    0    0  0.00000000000E+00  0.00000000000E+00  0.45593999997E+02  0.45594000000E+02  0.51100000000E-03 0.  1.
         11   -1    0    0    0    0 -0.00000000000E+00 -0.00000000000E+00 -0.45593999997E+02  0.45594000000E+02  0.51100000000E-03 0. -1.
    9900012    2    1    2    0    0  0.29456853407E+02  0.48034201809E+01 -0.31509437472E+02  0.47787266044E+02  0.19999977203E+02 0.  0.
        -12    1    1    2    0    0 -0.29456853407E+02 -0.48034201809E+01  0.31509437472E+02  0.43400733956E+02  0.00000000000E+00 0.  1.
         11    1    3    3    0    0  0.37095899070E+01 -0.30342613296E+01 -0.88531607600E+01  0.10067087702E+02  0.51100000000E-03 0. -1.
        -11    1    3    3    0    0  0.77777929258E+01  0.60610577240E+01 -0.15342921946E+02  0.18238304132E+02  0.51100000000E-03 0.  1.
         12    1    3    3    0    0  0.17969470574E+02  0.17766237864E+01 -0.73133547664E+01  0.19481874210E+02  0.00000000000E+00 0. -1.
</event>
<event>
 7    1  0.5412916E-009  0.4778727E+02  0.7816164E-02  0.1312668E+00
        -11   -1    0    0    0    0  0.00000000000E+00  0.00000000000E+00  0.45593999997E+02  0.45594000000E+02  0.51100000000E-03 0. -1.
         11   -1    0    0    0    0 -0.00000000000E+00 -0.00000000000E+00 -0.45593999997E+02  0.45594000000E+02  0.51100000000E-03 0.  1.
    9900012    2    1    2    0    0  0.41139120341E+02 -0.10266485024E+02  0.92625601337E+01  0.47787274690E+02  0.20000016623E+02 0.  0.
        -12    1    1    2    0    0 -0.41139120341E+02  0.10266485024E+02 -0.92625601337E+01  0.43400725310E+02  0.00000000000E+00 0.  1.
         11    1    3    3    0    0  0.19892690847E+02 -0.35517906825E+01  0.99456404639E+01  0.22522214160E+02  0.51100000000E-03 0. -1.
        -11    1    3    3    0    0  0.16516084409E+02 -0.55455668203E+00  0.27862093097E+01  0.16758625835E+02  0.51100000000E-03 0.  1.
        -12    1    3    3    0    0  0.47303450856E+01 -0.61601376595E+01 -0.34692896399E+01  0.85064346949E+01  0.00000000000E+00 0.  1.
</event>
<event>
 7    1  0.4011333E-009  0.4778727E+02  0.7816164E-02  0.1312668E+00
        -11   -1    0    0    0    0  0.00000000000E+00  0.00000000000E+00  0.45593999997E+02  0.45594000000E+02  0.51100000000E-03 0. -1.
         11   -1    0    0    0    0 -0.00000000000E+00 -0.00000000000E+00 -0.45593999997E+02  0.45594000000E+02  0.51100000000E-03 0.  1.
    9900012    2    1    2    0    0 -0.53665086750E+01 -0.40133593888E+02  0.15624281201E+02  0.47787274928E+02  0.20000017707E+02 0.  0.
        -12    1    1    2    0    0  0.53665086750E+01  0.40133593888E+02 -0.15624281201E+02  0.43400725072E+02  0.00000000000E+00 0.  1.
         11    1    3    3    0    0 -0.39477623686E+01 -0.30416376180E+01  0.36684671318E+01  0.61882177140E+01  0.51100000000E-03 0. -1.
        -11    1    3    3    0    0 -0.59235679741E+01 -0.19028479904E+02  0.90542895767E+00  0.19949724481E+02  0.51100000000E-03 0.  1.
         12    1    3    3    0    0  0.45048216677E+01 -0.18063476366E+02  0.11050385111E+02  0.21649332733E+02  0.00000000000E+00 0. -1.
</event>
<event>
 7    1  0.4011333E-009  0.4778727E+02  0.7816164E-02  0.1312668E+00
        -11   -1    0    0    0    0  0.00000000000E+00  0.00000000000E+00  0.45593999997E+02  0.45594000000E+02  0.51100000000E-03 0.  1.
         11   -1    0    0    0    0 -0.00000000000E+00 -0.00000000000E+00 -0.45593999997E+02  0.45594000000E+02  0.51100000000E-03 0. -1.
    9900012    2    1    2    0    0 -0.41389899463E+02 -0.12655777490E+02 -0.32141197454E+01  0.47787273656E+02  0.20000011908E+02 0.  0.
        -12    1    1    2    0    0  0.41389899463E+02  0.12655777490E+02  0.32141197454E+01  0.43400726344E+02  0.00000000000E+00 0.  1.
         11    1    3    3    0    0 -0.29375275653E+02 -0.81292473723E+01  0.52419842340E+01  0.30926847261E+02  0.51100000000E-03 0. -1.
        -11    1    3    3    0    0 -0.40613466439E+01 -0.21153950555E+00  0.53811916924E+00  0.41022991146E+01  0.51100000000E-03 0.  1.
        -12    1    3    3    0    0 -0.79532771658E+01 -0.43149906121E+01 -0.89942231486E+01  0.12758127281E+02  0.00000000000E+00 0.  1.
</event>
<event>
 7    1  0.4011333E-009  0.4778727E+02  0.7816164E-02  0.1312668E+00
        -11   -1    0    0    0    0  0.00000000000E+00  0.00000000000E+00  0.45593999997E+02  0.45594000000E+02  0.51100000000E-03 0.  1.
         11   -1    0    0    0    0 -0.00000000000E+00 -0.00000000000E+00 -0.45593999997E+02  0.45594000000E+02  0.51100000000E-03 0. -1.
    9900012    2    1    2    0    0 -0.22822277539E+02 -0.96914443974E+01 -0.35620820766E+02  0.47787270529E+02  0.19999997649E+02 0.  0.
        -12    1    1    2    0    0  0.22822277539E+02  0.96914443974E+01  0.35620820766E+02  0.43400729471E+02  0.00000000000E+00 0.  1.
         11    1    3    3    0    0 -0.94742842890E+01 -0.40150776328E+01 -0.16371909061E+02  0.19337071075E+02  0.51100000000E-03 0. -1.
        -11    1    3    3    0    0 -0.88843874200E+01 -0.92006982951E+01 -0.18809456356E+02  0.22746007070E+02  0.51100000000E-03 0.  1.
        -12    1    3    3    0    0 -0.44636058305E+01  0.35243315304E+01 -0.43945534821E+00  0.57041923836E+01  0.00000000000E+00 0.  1.
</event>
<event>
 7    1  0.4011333E-009  0.4778727E+02  0.7816164E-02  0.1312668E+00
        -11   -1    0    0    0    0  0.00000000000E+00  0.00000000000E+00  0.45593999997E+02  0.45594000000E+02  0.51100000000E-03 0.  1.
         11   -1    0    0    0    0 -0.00000000000E+00 -0.00000000000E+00 -0.45593999997E+02  0.45594000000E+02  0.51100000000E-03 0. -1.
    9900012    2    1    2    0    0 -0.42313206510E+02  0.73924105582E+01  0.62103294235E+01  0.47787269931E+02  0.19999994922E+02 0.  0.
        -12    1    1    2    0    0  0.42313206510E+02 -0.73924105582E+01 -0.62103294235E+01  0.43400730069E+02  0.00000000000E+00 0.  1.
         11    1    3    3    0    0 -0.15754083067E+02  0.43355146231E+01 -0.52666928956E+00  0.16348247647E+02  0.51100000000E-03 0. -1.
        -11    1    3    3    0    0 -0.15583560625E+02  0.72835978820E+01 -0.12105783741E+01  0.17244235562E+02  0.51100000000E-03 0.  1.
        -12    1    3    3    0    0 -0.10975562817E+02 -0.42267019469E+01  0.79475770871E+01  0.14194786721E+02  0.00000000000E+00 0.  1.
</event>
<event>
 7    1  0.4156254E-009  0.4778728E+02  0.7816164E-02  0.1312668E+00
        -11   -1    0    0    0    0  0.00000000000E+00  0.00000000000E+00  0.45593999997E+02  0.45594000000E+02  0.51100000000E-03 0. -1.
         11   -1    0    0    0    0 -0.00000000000E+00 -0.00000000000E+00 -0.45593999997E+02  0.45594000000E+02  0.51100000000E-03 0.  1.
    9900012    2    1    2    0    0 -0.19281453366E+02  0.60409144427E+01  0.38410354890E+02  0.47787280490E+02  0.20000043066E+02 0.  0.
        -12    1    1    2    0    0  0.19281453366E+02 -0.60409144427E+01 -0.38410354890E+02  0.43400719510E+02  0.00000000000E+00 0.  1.
         11    1    3    3    0    0 -0.30764215298E-01  0.39513784408E+00  0.70877605304E+01  0.70988329992E+01  0.51100000000E-03 0. -1.
        -11    1    3    3    0    0 -0.48810373873E+00  0.37295538286E+01 -0.40020294141E+00  0.37825890176E+01  0.51100000000E-03 0.  1.
         12    1    3    3    0    0 -0.18762585412E+02  0.19162227699E+01  0.31722797301E+02  0.36905858473E+02  0.00000000000E+00 0. -1.
</event>
<event>
 7    1  0.4011333E-009  0.4778726E+02  0.7816164E-02  0.1312668E+00
        -11   -1    0    0    0    0  0.00000000000E+00  0.00000000000E+00  0.45593999997E+02  0.45594000000E+02  0.51100000000E-03 0. -1.
         11   -1    0    0    0    0 -0.00000000000E+00 -0.00000000000E+00 -0.45593999997E+02  0.45594000000E+02  0.51100000000E-03 0.  1.
    9900012    2    1    2    0    0 -0.14904295822E+02  0.32825010063E+02  0.24166185227E+02  0.47787264660E+02  0.19999970892E+02 0.  0.
        -12    1    1    2    0    0  0.14904295822E+02 -0.32825010063E+02 -0.24166185227E+02  0.43400735340E+02  0.00000000000E+00 0.  1.
         11    1    3    3    0    0 -0.36857021209E+01 -0.18332590276E+00  0.23880465467E+01  0.43955403628E+01  0.51100000000E-03 0. -1.
        -11    1    3    3    0    0  0.16017530786E+01  0.99421684769E+00 -0.92884457637E+00  0.21016261735E+01  0.51100000000E-03 0.  1.
         12    1    3    3    0    0 -0.12820346779E+02  0.32014119118E+02  0.22706983257E+02  0.41290098124E+02  0.00000000000E+00 0. -1.
</event>
<event>
 7    1  0.4011333E-009  0.4778728E+02  0.7816164E-02  0.1312668E+00
        -11   -1    0    0    0    0  0.00000000000E+00  0.00000000000E+00  0.45593999997E+02  0.45594000000E+02  0.51100000000E-03 0.  1.
         11   -1    0    0    0    0 -0.00000000000E+00 -0.00000000000E+00 -0.45593999997E+02  0.45594000000E+02  0.51100000000E-03 0. -1.
    9900012    2    1    2    0    0 -0.35604704852E+02  0.15175435035E+02 -0.19637564113E+02  0.47787276961E+02  0.20000026975E+02 0.  0.
        -12    1    1    2    0    0  0.35604704852E+02 -0.15175435035E+02  0.19637564113E+02  0.43400723039E+02  0.00000000000E+00 0.  1.
         11    1    3    3    0    0 -0.16108531846E+02  0.11028512247E+02 -0.68779028335E+01  0.20698271142E+02  0.51100000000E-03 0. -1.
        -11    1    3    3    0    0 -0.21746804159E+00  0.45729418242E+01 -0.18883893335E+01  0.49522826870E+01  0.51100000000E-03 0.  1.
        -12    1    3    3    0    0 -0.19278704964E+02 -0.42601903640E+00 -0.10871271946E+02  0.22136723132E+02  0.00000000000E+00 0.  1.
</event>
<event>
 7    1  0.4011333E-009  0.4778723E+02  0.7816164E-02  0.1312668E+00
        -11   -1    0    0    0    0  0.00000000000E+00  0.00000000000E+00  0.45593999997E+02  0.45594000000E+02  0.51100000000E-03 0.  1.
         11   -1    0    0    0    0 -0.00000000000E+00 -0.00000000000E+00 -0.45593999997E+02  0.45594000000E+02  0.51100000000E-03 0. -1.
    9900012    2    1    2    0    0  0.38701240806E+02  0.15203679321E+02  0.12437386258E+02  0.47787234088E+02  0.19999831500E+02 0.  0.
        -12    1    1    2    0    0 -0.38701240806E+02 -0.15203679321E+02 -0.12437386258E+02  0.43400765912E+02  0.00000000000E+00 0.  1.
         11    1    3    3    0    0  0.87090156291E+01  0.39841233891E+01 -0.29599624525E+01  0.10024049600E+02  0.51100000000E-03 0. -1.
        -11    1    3    3    0    0  0.40850321194E+01 -0.28609585397E+01  0.19435559903E+01  0.53525677325E+01  0.51100000000E-03 0.  1.
         12    1    3    3    0    0  0.25907193058E+02  0.14080514471E+02  0.13453792720E+02  0.32410616755E+02  0.00000000000E+00 0. -1.
</event>
<event>
 7    1  0.4011333E-009  0.4778727E+02  0.7816164E-02  0.1312668E+00
        -11   -1    0    0    0    0  0.00000000000E+00  0.00000000000E+00  0.45593999997E+02  0.45594000000E+02  0.51100000000E-03 0.  1.
         11   -1    0    0    0    0 -0.00000000000E+00 -0.00000000000E+00 -0.45593999997E+02  0.45594000000E+02  0.51100000000E-03 0. -1.
    9900012    2    1    2    0    0 -0.92419842553E+01 -0.86098631865E+01 -0.41522039633E+02  0.47787265071E+02  0.19999972765E+02 0.  0.
        -12    1    1    2    0    0  0.92419842553E+01  0.86098631865E+01  0.41522039633E+02  0.43400734929E+02  0.00000000000E+00 0.  1.
         11    1    3    3    0    0  0.25379025285E+01 -0.42903901653E+01 -0.90575960960E+01  0.10338686779E+02  0.51100000000E-03 0.  1.
        -11    1    3    3    0    0 -0.18484558094E+01  0.25679543268E+01 -0.19379373455E+02  0.19635969395E+02  0.51100000000E-03 0. -1.
        -12    1    3    3    0    0 -0.99314309744E+01 -0.68874273479E+01 -0.13085070082E+02  0.17812608897E+02  0.00000000000E+00 0.  1.
</event>
<event>
 7    1  0.4011333E-009  0.4778727E+02  0.7816164E-02  0.1312668E+00
        -11   -1    0    0    0    0  0.00000000000E+00  0.00000000000E+00  0.45593999997E+02  0.45594000000E+02  0.51100000000E-03 0.  1.
         11   -1    0    0    0    0 -0.00000000000E+00 -0.00000000000E+00 -0.45593999997E+02  0.45594000000E+02  0.51100000000E-03 0. -1.
    9900012    2    1    2    0    0 -0.20401446283E+02  0.17858209602E+02 -0.33889357148E+02  0.47787272028E+02  0.20000004483E+02 0.  0.
        -12    1    1    2    0    0  0.20401446283E+02 -0.17858209602E+02  0.33889357148E+02  0.43400727972E+02  0.00000000000E+00 0.  1.
         11    1    3    3    0    0 -0.14413742688E+02  0.40875800772E+01 -0.24959618774E+02  0.29110940534E+02  0.51100000000E-03 0. -1.
        -11    1    3    3    0    0 -0.12037520399E+00  0.10046622069E-01  0.81445423990E+00  0.82336328213E+00  0.51100000000E-03 0.  1.
         12    1    3    3    0    0 -0.58673283907E+01  0.13760582902E+02 -0.97441926142E+01  0.17852968211E+02  0.00000000000E+00 0. -1.
</event>
<event>
 7    1  0.4331726E-009  0.4778727E+02  0.7816164E-02  0.1312668E+00
        -11   -1    0    0    0    0  0.00000000000E+00  0.00000000000E+00  0.45593999997E+02  0.45594000000E+02  0.51100000000E-03 0. -1.
         11   -1    0    0    0    0 -0.00000000000E+00 -0.00000000000E+00 -0.45593999997E+02  0.45594000000E+02  0.51100000000E-03 0.  1.
    9900012    2    1    2    0    0  0.25728619118E+02  0.17569247825E+02  0.30215609320E+02  0.47787270082E+02  0.19999995610E+02 0.  0.
        -12    1    1    2    0    0 -0.25728619118E+02 -0.17569247825E+02 -0.30215609320E+02  0.43400729918E+02  0.00000000000E+00 0.  1.
         11    1    3    3    0    0  0.70613596247E+01  0.99658965636E+01  0.14640440001E+02  0.19066315264E+02  0.51100000000E-03 0. -1.
        -11    1    3    3    0    0  0.19600002562E+02  0.96213240355E+01  0.14750994945E+02  0.26349987262E+02  0.51100000000E-03 0.  1.
        -12    1    3    3    0    0 -0.93274306846E+00 -0.20179727736E+01  0.82417437417E+00  0.23709675548E+01  0.00000000000E+00 0.  1.
</event>
<event>
 7    1  0.4011333E-009  0.4778723E+02  0.7816164E-02  0.1312668E+00
        -11   -1    0    0    0    0  0.00000000000E+00  0.00000000000E+00  0.45593999997E+02  0.45594000000E+02  0.51100000000E-03 0.  1.
         11   -1    0    0    0    0 -0.00000000000E+00 -0.00000000000E+00 -0.45593999997E+02  0.45594000000E+02  0.51100000000E-03 0. -1.
    9900012    2    1    2    0    0 -0.26950586089E+02  0.29004283924E+02  0.17777641619E+02  0.47787226758E+02  0.19999798078E+02 0.  0.
        -12    1    1    2    0    0  0.26950586089E+02 -0.29004283924E+02 -0.17777641619E+02  0.43400773242E+02  0.00000000000E+00 0.  1.
         11    1    3    3    0    0 -0.12700032975E+02  0.17984297072E+02  0.79197707767E+01  0.23397618429E+02  0.51100000000E-03 0. -1.
        -11    1    3    3    0    0 -0.30705001053E+01  0.10573369176E+02  0.36829614204E+01  0.11609836852E+02  0.51100000000E-03 0.  1.
        -12    1    3    3    0    0 -0.11180053009E+02  0.44661767596E+00  0.61749094223E+01  0.12779771477E+02  0.00000000000E+00 0.  1.
</event>
<event>
 7    1  0.4011333E-009  0.4778727E+02  0.7816164E-02  0.1312668E+00
        -11   -1    0    0    0    0  0.00000000000E+00  0.00000000000E+00  0.45593999997E+02  0.45594000000E+02  0.51100000000E-03 0. -1.
         11   -1    0    0    0    0 -0.00000000000E+00 -0.00000000000E+00 -0.45593999997E+02  0.45594000000E+02  0.51100000000E-03 0.  1.
    9900012    2    1    2    0    0  0.20848157617E+02 -0.37580326890E+02  0.60577482138E+01  0.47787274676E+02  0.20000016560E+02 0.  0.
        -12    1    1    2    0    0 -0.20848157617E+02  0.37580326890E+02 -0.60577482138E+01  0.43400725324E+02  0.00000000000E+00 0.  1.
         11    1    3    3    0    0  0.13598000629E+02 -0.22661459922E+02  0.47373342298E+01  0.26849389616E+02  0.51100000000E-03 0. -1.
        -11    1    3    3    0    0  0.88491005459E+01 -0.44716554814E+01  0.27090372611E+01  0.10278188866E+02  0.51100000000E-03 0.  1.
        -12    1    3    3    0    0 -0.15989435582E+01 -0.10447211487E+02 -0.13886232770E+01  0.10659696195E+02  0.00000000000E+00 0.  1.
</event>
<event>
 7    1  0.4011333E-009  0.4778727E+02  0.7816164E-02  0.1312668E+00
        -11   -1    0    0    0    0  0.00000000000E+00  0.00000000000E+00  0.45593999997E+02  0.45594000000E+02  0.51100000000E-03 0. -1.
         11   -1    0    0    0    0 -0.00000000000E+00 -0.00000000000E+00 -0.45593999997E+02  0.45594000000E+02  0.51100000000E-03 0.  1.
    9900012    2    1    2    0    0 -0.25455009443E+01  0.14422768784E+02  0.40854955767E+02  0.47787271375E+02  0.20000001508E+02 0.  0.
        -12    1    1    2    0    0  0.25455009443E+01 -0.14422768784E+02 -0.40854955767E+02  0.43400728625E+02  0.00000000000E+00 0.  1.
         11    1    3    3    0    0 -0.44699932548E+01 -0.27138000574E+00  0.79075605283E+01  0.90875739653E+01  0.51100000000E-03 0. -1.
        -11    1    3    3    0    0  0.45761700028E+01  0.20566126408E+00  0.34681360018E+01  0.57455718635E+01  0.51100000000E-03 0.  1.
         12    1    3    3    0    0 -0.26516776923E+01  0.14488487526E+02  0.29479259237E+02  0.32954125546E+02  0.00000000000E+00 0. -1.
</event>
<event>
 7    1  0.4011333E-009  0.4778727E+02  0.7816164E-02  0.1312668E+00
        -11   -1    0    0    0    0  0.00000000000E+00  0.00000000000E+00  0.45593999997E+02  0.45594000000E+02  0.51100000000E-03 0.  1.
         11   -1    0    0    0    0 -0.00000000000E+00 -0.00000000000E+00 -0.45593999997E+02  0.45594000000E+02  0.51100000000E-03 0. -1.
    9900012    2    1    2    0    0 -0.24984267173E+02 -0.35444729710E+02 -0.17553028493E+01  0.47787267766E+02  0.19999985052E+02 0.  0.
        -12    1    1    2    0    0  0.24984267173E+02  0.35444729710E+02  0.17553028493E+01  0.43400732234E+02  0.00000000000E+00 0.  1.
         11    1    3    3    0    0 -0.88812622460E+01 -0.15463153024E+02 -0.89642977133E+00  0.17854677458E+02  0.51100000000E-03 0. -1.
        -11    1    3    3    0    0 -0.66288941296E+01 -0.19299340100E+02 -0.10355230064E+01  0.20432304663E+02  0.51100000000E-03 0.  1.
        -12    1    3    3    0    0 -0.94741107969E+01 -0.68223658616E+00  0.17664992843E+00  0.95002856456E+01  0.00000000000E+00 0.  1.
</event>
<event>
 7    1  0.4011333E-009  0.4778725E+02  0.7816164E-02  0.1312668E+00
        -11   -1    0    0    0    0  0.00000000000E+00  0.00000000000E+00  0.45593999997E+02  0.45594000000E+02  0.51100000000E-03 0. -1.
         11   -1    0    0    0    0 -0.00000000000E+00 -0.00000000000E+00 -0.45593999997E+02  0.45594000000E+02  0.51100000000E-03 0.  1.
    9900012    2    1    2    0    0  0.23810811872E+02  0.44348024223E+01  0.36013927267E+02  0.47787248949E+02  0.19999899260E+02 0.  0.
        -12    1    1    2    0    0 -0.23810811872E+02 -0.44348024223E+01 -0.36013927267E+02  0.43400751051E+02  0.00000000000E+00 0.  1.
         11    1    3    3    0    0  0.40852646490E+00 -0.18597436060E+01  0.53616066542E+01  0.56896718999E+01  0.51100000000E-03 0. -1.
        -11    1    3    3    0    0  0.99709596859E+01 -0.51375209220E+01  0.12087765979E+02  0.16490246963E+02  0.51100000000E-03 0.  1.
         12    1    3    3    0    0  0.13431325721E+02  0.11432066950E+02  0.18564554634E+02  0.25607330086E+02  0.00000000000E+00 0. -1.
</event>
<event>
 7    1  0.4011333E-009  0.4778727E+02  0.7816164E-02  0.1312668E+00
        -11   -1    0    0    0    0  0.00000000000E+00  0.00000000000E+00  0.45593999997E+02  0.45594000000E+02  0.51100000000E-03 0. -1.
         11   -1    0    0    0    0 -0.00000000000E+00 -0.00000000000E+00 -0.45593999997E+02  0.45594000000E+02  0.51100000000E-03 0.  1.
    9900012    2    1    2    0    0 -0.42319843016E+02 -0.78740546991E+01  0.55365767575E+01  0.47787268065E+02  0.19999986418E+02 0.  0.
        -12    1    1    2    0    0  0.42319843016E+02  0.78740546991E+01 -0.55365767575E+01  0.43400731935E+02  0.00000000000E+00 0.  1.
         11    1    3    3    0    0 -0.14232525339E+02 -0.57632117195E+01  0.57769644147E+01  0.16405874099E+02  0.51100000000E-03 0. -1.
        -11    1    3    3    0    0 -0.70249335381E+01  0.35148139234E+01  0.45258848806E+01  0.90657179718E+01  0.51100000000E-03 0.  1.
        -12    1    3    3    0    0 -0.21062384139E+02 -0.56256569030E+01 -0.47662725378E+01  0.22315675995E+02  0.00000000000E+00 0.  1.
</event>
<event>
 7    1  0.4011333E-009  0.4778728E+02  0.7816164E-02  0.1312668E+00
        -11   -1    0    0    0    0  0.00000000000E+00  0.00000000000E+00  0.45593999997E+02  0.45594000000E+02  0.51100000000E-03 0.  1.
         11   -1    0    0    0    0 -0.00000000000E+00 -0.00000000000E+00 -0.45593999997E+02  0.45594000000E+02  0.51100000000E-03 0. -1.
    9900012    2    1    2    0    0  0.40081419079E+02  0.13627309370E+02 -0.95602693852E+01  0.47787280343E+02  0.20000042395E+02 0.  0.
        -12    1    1    2    0    0 -0.40081419079E+02 -0.13627309370E+02  0.95602693852E+01  0.43400719657E+02  0.00000000000E+00 0.  1.
         11    1    3    3    0    0  0.16770299027E+02 -0.18435804309E+01 -0.23538349570E+01  0.17034736790E+02  0.51100000000E-03 0. -1.
        -11    1    3    3    0    0  0.76385393390E+01  0.32973359235E+01 -0.70527420312E+01  0.10906918806E+02  0.51100000000E-03 0.  1.
        -12    1    3    3    0    0  0.15672580713E+02  0.12173553877E+02 -0.15369239699E+00  0.19845624746E+02  0.00000000000E+00 0.  1.
</event>
<event>
 7    1  0.4011333E-009  0.4778727E+02  0.7816164E-02  0.1312668E+00
        -11   -1    0    0    0    0  0.00000000000E+00  0.00000000000E+00  0.45593999997E+02  0.45594000000E+02  0.51100000000E-03 0. -1.
         11   -1    0    0    0    0 -0.00000000000E+00 -0.00000000000E+00 -0.45593999997E+02  0.45594000000E+02  0.51100000000E-03 0.  1.
    9900012    2    1    2    0    0  0.28632936357E+02  0.28053451293E+02  0.16636784691E+02  0.47787265228E+02  0.19999973482E+02 0.  0.
        -12    1    1    2    0    0 -0.28632936357E+02 -0.28053451293E+02 -0.16636784691E+02  0.43400734772E+02  0.00000000000E+00 0.  1.
         11    1    3    3    0    0  0.40008167665E+01 -0.17298598316E+01  0.27064474622E+01  0.51306732466E+01  0.51100000000E-03 0. -1.
        -11    1    3    3    0    0  0.94925186135E+01  0.80758496658E+01 -0.57576263873E+00  0.12476327999E+02  0.51100000000E-03 0.  1.
         12    1    3    3    0    0  0.15139600977E+02  0.21707461459E+02  0.14506099868E+02  0.30180263983E+02  0.00000000000E+00 0. -1.
</event>
<event>
 7    1  0.4011333E-009  0.4778727E+02  0.7816164E-02  0.1312668E+00
        -11   -1    0    0    0    0  0.00000000000E+00  0.00000000000E+00  0.45593999997E+02  0.45594000000E+02  0.51100000000E-03 0.  1.
         11   -1    0    0    0    0 -0.00000000000E+00 -0.00000000000E+00 -0.45593999997E+02  0.45594000000E+02  0.51100000000E-03 0. -1.
    9900012    2    1    2    0    0  0.20944183767E+02 -0.23305852847E+01 -0.37941176351E+02  0.47787270463E+02  0.19999997349E+02 0.  0.
        -12    1    1    2    0    0 -0.20944183767E+02  0.23305852847E+01  0.37941176351E+02  0.43400729537E+02  0.00000000000E+00 0.  1.
         11    1    3    3    0    0  0.83705546636E+01 -0.36359296655E+01 -0.29721175654E+02  0.31090745447E+02  0.51100000000E-03 0. -1.
        -11    1    3    3    0    0  0.58176644539E+00  0.12913234032E+00 -0.38241623684E+01  0.38703159354E+01  0.51100000000E-03 0.  1.
        -12    1    3    3    0    0  0.11991862658E+02  0.11762120405E+01 -0.43958383284E+01  0.12826209081E+02  0.00000000000E+00 0.  1.
</event>
<event>
 7    1  0.4011333E-009  0.4778727E+02  0.7816164E-02  0.1312668E+00
        -11   -1    0    0    0    0  0.00000000000E+00  0.00000000000E+00  0.45593999997E+02  0.45594000000E+02  0.51100000000E-03 0.  1.
         11   -1    0    0    0    0 -0.00000000000E+00 -0.00000000000E+00 -0.45593999997E+02  0.45594000000E+02  0.51100000000E-03 0. -1.
    9900012    2    1    2    0    0  0.17357149731E+02 -0.34683241952E+02 -0.19478840009E+02  0.47787272734E+02  0.20000007704E+02 0.  0.
        -12    1    1    2    0    0 -0.17357149731E+02  0.34683241952E+02  0.19478840009E+02  0.43400727266E+02  0.00000000000E+00 0.  1.
         11    1    3    3    0    0  0.17483562304E+02 -0.19225196029E+02 -0.78190360257E+01  0.27137067598E+02  0.51100000000E-03 0. -1.
        -11    1    3    3    0    0  0.28387643881E+01 -0.51874922947E+01 -0.64758018099E+01  0.87695307116E+01  0.51100000000E-03 0.  1.
        -12    1    3    3    0    0 -0.29651769612E+01 -0.10270553629E+02 -0.51840021736E+01  0.11880674425E+02  0.00000000000E+00 0.  1.
</event>
<event>
 7    1  0.4011333E-009  0.4778728E+02  0.7816164E-02  0.1312668E+00
        -11   -1    0    0    0    0  0.00000000000E+00  0.00000000000E+00  0.45593999997E+02  0.45594000000E+02  0.51100000000E-03 0.  1.
         11   -1    0    0    0    0 -0.00000000000E+00 -0.00000000000E+00 -0.45593999997E+02  0.45594000000E+02  0.51100000000E-03 0. -1.
    9900012    2    1    2    0    0 -0.25527867966E+02 -0.27502577537E+01 -0.34991233854E+02  0.47787281029E+02  0.20000045523E+02 0.  0.
        -12    1    1    2    0    0  0.25527867966E+02  0.27502577537E+01  0.34991233854E+02  0.43400718971E+02  0.00000000000E+00 0.  1.
         11    1    3    3    0    0 -0.87510592021E+01 -0.27026357324E+01 -0.13854414687E+02  0.16608133057E+02  0.51100000000E-03 0. -1.
        -11    1    3    3    0    0 -0.18581509879E+02 -0.21952352744E+01 -0.13582768879E+02  0.23121054863E+02  0.51100000000E-03 0.  1.
         12    1    3    3    0    0  0.18047011147E+01  0.21476132532E+01 -0.75540502882E+01  0.80580931092E+01  0.00000000000E+00 0. -1.
</event>
<event>
 7    1  0.4011333E-009  0.4778727E+02  0.7816164E-02  0.1312668E+00
        -11   -1    0    0    0    0  0.00000000000E+00  0.00000000000E+00  0.45593999997E+02  0.45594000000E+02  0.51100000000E-03 0.  1.
         11   -1    0    0    0    0 -0.00000000000E+00 -0.00000000000E+00 -0.45593999997E+02  0.45594000000E+02  0.51100000000E-03 0. -1.
    9900012    2    1    2    0    0 -0.41374930962E+02  0.13096666363E+02  0.46410554932E+00  0.47787274477E+02  0.20000015652E+02 0.  0.
        -12    1    1    2    0    0  0.41374930962E+02 -0.13096666363E+02 -0.46410554932E+00  0.43400725523E+02  0.00000000000E+00 0.  1.
         11    1    3    3    0    0 -0.77841094642E+01  0.55929177291E+00 -0.20263416193E+01  0.80629540527E+01  0.51100000000E-03 0. -1.
        -11    1    3    3    0    0 -0.44692268749E+01  0.62093875068E+01  0.59925241940E+01  0.97180671198E+01  0.51100000000E-03 0.  1.
         12    1    3    3    0    0 -0.29121594623E+02  0.63279870831E+01 -0.35020770255E+01  0.30006253305E+02  0.00000000000E+00 0. -1.
</event>
<event>
 7    1  0.4011333E-009  0.4778728E+02  0.7816164E-02  0.1312668E+00
        -11   -1    0    0    0    0  0.00000000000E+00  0.00000000000E+00  0.45593999997E+02  0.45594000000E+02  0.51100000000E-03 0.  1.
         11   -1    0    0    0    0 -0.00000000000E+00 -0.00000000000E+00 -0.45593999997E+02  0.45594000000E+02  0.51100000000E-03 0. -1.
    9900012    2    1    2    0    0 -0.34361577684E+02  0.40626131248E+01 -0.26199237881E+02  0.47787275215E+02  0.20000019016E+02 0.  0.
        -12    1    1    2    0    0  0.34361577684E+02 -0.40626131248E+01  0.26199237881E+02  0.43400724785E+02  0.00000000000E+00 0.  1.
         11    1    3    3    0    0 -0.24719679793E+02  0.52574708134E+00 -0.16652352327E+02  0.29810062351E+02  0.51100000000E-03 0. -1.
        -11    1    3    3    0    0 -0.12098663823E+02  0.22019982884E+01 -0.67754668727E+01  0.14040420733E+02  0.51100000000E-03 0.  1.
        -12    1    3    3    0    0  0.24567659330E+01  0.13348677550E+01 -0.27714186818E+01  0.39367921310E+01  0.00000000000E+00 0.  1.
</event>
<event>
 7    1  0.4011333E-009  0.4778727E+02  0.7816164E-02  0.1312668E+00
        -11   -1    0    0    0    0  0.00000000000E+00  0.00000000000E+00  0.45593999997E+02  0.45594000000E+02  0.51100000000E-03 0.  1.
         11   -1    0    0    0    0 -0.00000000000E+00 -0.00000000000E+00 -0.45593999997E+02  0.45594000000E+02  0.51100000000E-03 0. -1.
    9900012    2    1    2    0    0 -0.36613484606E+02  0.22690994824E+02  0.53098535515E+01  0.47787273671E+02  0.20000011977E+02 0.  0.
        -12    1    1    2    0    0  0.36613484606E+02 -0.22690994824E+02 -0.53098535515E+01  0.43400726329E+02  0.00000000000E+00 0.  1.
         11    1    3    3    0    0 -0.80716799860E+01  0.30649623838E+01 -0.50616328106E+01  0.10008303512E+02  0.51100000000E-03 0. -1.
        -11    1    3    3    0    0 -0.14270551106E+02  0.36004219029E+01  0.25384685006E+01  0.14935042328E+02  0.51100000000E-03 0.  1.
        -12    1    3    3    0    0 -0.14271253514E+02  0.16025610538E+02  0.78330178615E+01  0.22843927832E+02  0.00000000000E+00 0.  1.
</event>
<event>
 7    1  0.4011333E-009  0.4778727E+02  0.7816164E-02  0.1312668E+00
        -11   -1    0    0    0    0  0.00000000000E+00  0.00000000000E+00  0.45593999997E+02  0.45594000000E+02  0.51100000000E-03 0.  1.
         11   -1    0    0    0    0 -0.00000000000E+00 -0.00000000000E+00 -0.45593999997E+02  0.45594000000E+02  0.51100000000E-03 0. -1.
    9900012    2    1    2    0    0  0.58343072195E+01 -0.27782939100E+02 -0.32828230391E+02  0.47787267790E+02  0.19999985162E+02 0.  0.
        -12    1    1    2    0    0 -0.58343072195E+01  0.27782939100E+02  0.32828230391E+02  0.43400732210E+02  0.00000000000E+00 0.  1.
         11    1    3    3    0    0 -0.50579723134E+00 -0.10810953542E+02 -0.11821756301E+02  0.16027678236E+02  0.51100000000E-03 0. -1.
        -11    1    3    3    0    0  0.61288917778E+01 -0.19232206641E+02 -0.14458283782E+02  0.24829076843E+02  0.51100000000E-03 0.  1.
        -12    1    3    3    0    0  0.21121267301E+00  0.22602210825E+01 -0.65481903075E+01  0.69305127111E+01  0.00000000000E+00 0.  1.
</event>
<event>
 7    1  0.4011333E-009  0.4778727E+02  0.7816164E-02  0.1312668E+00
        -11   -1    0    0    0    0  0.00000000000E+00  0.00000000000E+00  0.45593999997E+02  0.45594000000E+02  0.51100000000E-03 0. -1.
         11   -1    0    0    0    0 -0.00000000000E+00 -0.00000000000E+00 -0.45593999997E+02  0.45594000000E+02  0.51100000000E-03 0.  1.
    9900012    2    1    2    0    0  0.26309975988E+02  0.32206146035E+02  0.12416627281E+02  0.47787270606E+02  0.19999998001E+02 0.  0.
        -12    1    1    2    0    0 -0.26309975988E+02 -0.32206146035E+02 -0.12416627281E+02  0.43400729394E+02  0.00000000000E+00 0.  1.
         11    1    3    3    0    0  0.35542511256E+01 -0.19042119890E+01  0.81430513376E-01  0.40330330463E+01  0.51100000000E-03 0. -1.
        -11    1    3    3    0    0  0.64950507472E+01  0.10242301433E+02 -0.52559737718E+00  0.12139467686E+02  0.51100000000E-03 0.  1.
         12    1    3    3    0    0  0.16260674115E+02  0.23868056591E+02  0.12860794145E+02  0.31614769873E+02  0.00000000000E+00 0. -1.
</event>
<event>
 7    1  0.4011333E-009  0.4778727E+02  0.7816164E-02  0.1312668E+00
        -11   -1    0    0    0    0  0.00000000000E+00  0.00000000000E+00  0.45593999997E+02  0.45594000000E+02  0.51100000000E-03 0.  1.
         11   -1    0    0    0    0 -0.00000000000E+00 -0.00000000000E+00 -0.45593999997E+02  0.45594000000E+02  0.51100000000E-03 0. -1.
    9900012    2    1    2    0    0  0.65701002563E+01  0.38005042811E+02  0.19901600972E+02  0.47787271692E+02  0.20000002951E+02 0.  0.
        -12    1    1    2    0    0 -0.65701002563E+01 -0.38005042811E+02 -0.19901600972E+02  0.43400728308E+02  0.00000000000E+00 0.  1.
         11    1    3    3    0    0  0.42182805087E+01  0.14854595907E+02  0.13740415884E+02  0.20670073510E+02  0.51100000000E-03 0.  1.
        -11    1    3    3    0    0  0.97478847474E+00  0.21161421444E+02  0.93158252675E+01  0.23141749519E+02  0.51100000000E-03 0. -1.
         12    1    3    3    0    0  0.13770312729E+01  0.19890254601E+01 -0.31546401793E+01  0.39754486625E+01  0.00000000000E+00 0. -1.
</event>
<event>
 7    1  0.4011333E-009  0.4778728E+02  0.7816164E-02  0.1312668E+00
        -11   -1    0    0    0    0  0.00000000000E+00  0.00000000000E+00  0.45593999997E+02  0.45594000000E+02  0.51100000000E-03 0. -1.
         11   -1    0    0    0    0 -0.00000000000E+00 -0.00000000000E+00 -0.45593999997E+02  0.45594000000E+02  0.51100000000E-03 0.  1.
    9900012    2    1    2    0    0 -0.35127055787E+02 -0.24276977195E+02  0.77679378676E+01  0.47787279630E+02  0.20000039143E+02 0.  0.
        -12    1    1    2    0    0  0.35127055787E+02  0.24276977195E+02 -0.77679378676E+01  0.43400720370E+02  0.00000000000E+00 0.  1.
         11    1    3    3    0    0 -0.81464807283E+01  0.12209071967E+01  0.45760064127E+01  0.94231415987E+01  0.51100000000E-03 0. -1.
        -11    1    3    3    0    0 -0.11587551454E+02 -0.98850340762E+01 -0.31227409069E+01  0.15547885979E+02  0.51100000000E-03 0.  1.
        -12    1    3    3    0    0 -0.15393023605E+02 -0.15612850315E+02  0.63146723617E+01  0.22816252052E+02  0.00000000000E+00 0.  1.
</event>
<event>
 7    1  0.4011333E-009  0.4778727E+02  0.7816164E-02  0.1312668E+00
        -11   -1    0    0    0    0  0.00000000000E+00  0.00000000000E+00  0.45593999997E+02  0.45594000000E+02  0.51100000000E-03 0. -1.
         11   -1    0    0    0    0 -0.00000000000E+00 -0.00000000000E+00 -0.45593999997E+02  0.45594000000E+02  0.51100000000E-03 0.  1.
    9900012    2    1    2    0    0 -0.99178372447E+00  0.42490575703E+02  0.87858260389E+01  0.47787269618E+02  0.19999993494E+02 0.  0.
        -12    1    1    2    0    0  0.99178372447E+00 -0.42490575703E+02 -0.87858260389E+01  0.43400730382E+02  0.00000000000E+00 0.  1.
         11    1    3    3    0    0  0.35220521905E+01  0.14131421666E+01 -0.76461048536E+00  0.38712338951E+01  0.51100000000E-03 0. -1.
        -11    1    3    3    0    0 -0.45463280486E+01  0.14777431388E+02 -0.11916379572E+01  0.15506823609E+02  0.51100000000E-03 0.  1.
         12    1    3    3    0    0  0.32492133682E-01  0.26300002148E+02  0.10742074481E+02  0.28409212113E+02  0.00000000000E+00 0. -1.
</event>
<event>
 7    1  0.4011333E-009  0.4778727E+02  0.7816164E-02  0.1312668E+00
        -11   -1    0    0    0    0  0.00000000000E+00  0.00000000000E+00  0.45593999997E+02  0.45594000000E+02  0.51100000000E-03 0.  1.
         11   -1    0    0    0    0 -0.00000000000E+00 -0.00000000000E+00 -0.45593999997E+02  0.45594000000E+02  0.51100000000E-03 0. -1.
    9900012    2    1    2    0    0  0.21585209192E+02 -0.37343518214E+02  0.48128566344E+01  0.47787271925E+02  0.20000004014E+02 0.  0.
        -12    1    1    2    0    0 -0.21585209192E+02  0.37343518214E+02 -0.48128566344E+01  0.43400728075E+02  0.00000000000E+00 0.  1.
         11    1    3    3    0    0  0.10596021011E+02 -0.15738673329E+02 -0.30847347640E+01  0.19222307048E+02  0.51100000000E-03 0. -1.
        -11    1    3    3    0    0  0.16569272982E+01  0.47443216572E+00  0.38993811635E+01  0.42632930547E+01  0.51100000000E-03 0.  1.
         12    1    3    3    0    0  0.93322608827E+01 -0.22079277050E+02  0.39982102349E+01  0.24301671822E+02  0.00000000000E+00 0. -1.
</event>
<event>
 7    1  0.4011333E-009  0.4778726E+02  0.7816164E-02  0.1312668E+00
        -11   -1    0    0    0    0  0.00000000000E+00  0.00000000000E+00  0.45593999997E+02  0.45594000000E+02  0.51100000000E-03 0.  1.
         11   -1    0    0    0    0 -0.00000000000E+00 -0.00000000000E+00 -0.45593999997E+02  0.45594000000E+02  0.51100000000E-03 0. -1.
    9900012    2    1    2    0    0  0.37947779743E+02 -0.41282177991E+01 -0.20653033744E+02  0.47787262997E+02  0.19999963307E+02 0.  0.
        -12    1    1    2    0    0 -0.37947779743E+02  0.41282177991E+01  0.20653033744E+02  0.43400737003E+02  0.00000000000E+00 0.  1.
         11    1    3    3    0    0  0.76390776282E+01 -0.32819747466E+01  0.33102046795E+01  0.89489843294E+01  0.51100000000E-03 0.  1.
        -11    1    3    3    0    0  0.72126290409E+01  0.21911179248E-01 -0.78684688391E+01  0.10674047963E+02  0.51100000000E-03 0. -1.
        -12    1    3    3    0    0  0.23096073074E+02 -0.86815423177E+00 -0.16094769584E+02  0.28164230704E+02  0.00000000000E+00 0.  1.
</event>
<event>
 7    1  0.4011333E-009  0.4778726E+02  0.7816164E-02  0.1312668E+00
        -11   -1    0    0    0    0  0.00000000000E+00  0.00000000000E+00  0.45593999997E+02  0.45594000000E+02  0.51100000000E-03 0.  1.
         11   -1    0    0    0    0 -0.00000000000E+00 -0.00000000000E+00 -0.45593999997E+02  0.45594000000E+02  0.51100000000E-03 0. -1.
    9900012    2    1    2    0    0 -0.25950451760E+02 -0.32668228210E+02  0.11957624120E+02  0.47787264343E+02  0.19999969446E+02 0.  0.
        -12    1    1    2    0    0  0.25950451760E+02  0.32668228210E+02 -0.11957624120E+02  0.43400735657E+02  0.00000000000E+00 0.  1.
         11    1    3    3    0    0 -0.24806375513E+02 -0.23261582266E+02  0.14448961097E+02  0.36949018291E+02  0.51100000000E-03 0. -1.
        -11    1    3    3    0    0 -0.21929924109E+01 -0.83682968013E+01 -0.94783226685E+00  0.87026428938E+01  0.51100000000E-03 0.  1.
        -12    1    3    3    0    0  0.10489161637E+01 -0.10383491427E+01 -0.15435047101E+01  0.21356031585E+01  0.00000000000E+00 0.  1.
</event>
<event>
 7    1  0.4011333E-009  0.4778727E+02  0.7816164E-02  0.1312668E+00
        -11   -1    0    0    0    0  0.00000000000E+00  0.00000000000E+00  0.45593999997E+02  0.45594000000E+02  0.51100000000E-03 0.  1.
         11   -1    0    0    0    0 -0.00000000000E+00 -0.00000000000E+00 -0.45593999997E+02  0.45594000000E+02  0.51100000000E-03 0. -1.
    9900012    2    1    2    0    0  0.36741119467E+02 -0.10960526362E+02 -0.20336665750E+02  0.47787274526E+02  0.20000015873E+02 0.  0.
        -12    1    1    2    0    0 -0.36741119467E+02  0.10960526362E+02  0.20336665750E+02  0.43400725474E+02  0.00000000000E+00 0.  1.
         11    1    3    3    0    0  0.11417496442E+02 -0.43828929410E+01 -0.31083075029E+01  0.12618658856E+02  0.51100000000E-03 0.  1.
        -11    1    3    3    0    0  0.63557773914E+01 -0.53344507787E+01  0.15584470901E+01  0.84428093046E+01  0.51100000000E-03 0. -1.
         12    1    3    3    0    0  0.18967845633E+02 -0.12431826427E+01 -0.18786805338E+02  0.26725806365E+02  0.00000000000E+00 0. -1.
</event>
<event>
 7    1  0.4011333E-009  0.4778727E+02  0.7816164E-02  0.1312668E+00
        -11   -1    0    0    0    0  0.00000000000E+00  0.00000000000E+00  0.45593999997E+02  0.45594000000E+02  0.51100000000E-03 0.  1.
         11   -1    0    0    0    0 -0.00000000000E+00 -0.00000000000E+00 -0.45593999997E+02  0.45594000000E+02  0.51100000000E-03 0. -1.
    9900012    2    1    2    0    0 -0.16972508745E+01 -0.40706981028E+02 -0.14956082223E+02  0.47787270048E+02  0.19999995456E+02 0.  0.
        -12    1    1    2    0    0  0.16972508745E+01  0.40706981028E+02  0.14956082223E+02  0.43400729952E+02  0.00000000000E+00 0.  1.
         11    1    3    3    0    0 -0.70060911980E+01 -0.11098059743E+02 -0.92172948974E+01  0.16037791912E+02  0.51100000000E-03 0.  1.
        -11    1    3    3    0    0  0.37660925503E+01 -0.46269728543E+01 -0.26572825824E+01  0.65309633191E+01  0.51100000000E-03 0. -1.
        -12    1    3    3    0    0  0.15427477732E+01 -0.24981948430E+02 -0.30815047438E+01  0.25218514817E+02  0.00000000000E+00 0.  1.
</event>
<event>
 7    1  0.4011333E-009  0.4778727E+02  0.7816164E-02  0.1312668E+00
        -11   -1    0    0    0    0  0.00000000000E+00  0.00000000000E+00  0.45593999997E+02  0.45594000000E+02  0.51100000000E-03 0. -1.
         11   -1    0    0    0    0 -0.00000000000E+00 -0.00000000000E+00 -0.45593999997E+02  0.45594000000E+02  0.51100000000E-03 0.  1.
    9900012    2    1    2    0    0  0.27290318854E+02  0.30784416374E+02 -0.13826830733E+02  0.47787273707E+02  0.20000012139E+02 0.  0.
        -12    1    1    2    0    0 -0.27290318854E+02 -0.30784416374E+02  0.13826830733E+02  0.43400726293E+02  0.00000000000E+00 0.  1.
         11    1    3    3    0    0  0.13221072882E+02  0.12687686042E+02  0.22511289370E+00  0.18325523766E+02  0.51100000000E-03 0. -1.
        -11    1    3    3    0    0  0.40233493368E+01  0.13975682002E+02 -0.51747002978E+01  0.15436468208E+02  0.51100000000E-03 0.  1.
        -12    1    3    3    0    0  0.10045896636E+02  0.41210483308E+01 -0.88772433292E+01  0.14025281733E+02  0.00000000000E+00 0.  1.
</event>
<event>
 7    1  0.4011333E-009  0.4778726E+02  0.7816164E-02  0.1312668E+00
        -11   -1    0    0    0    0  0.00000000000E+00  0.00000000000E+00  0.45593999997E+02  0.45594000000E+02  0.51100000000E-03 0.  1.
         11   -1    0    0    0    0 -0.00000000000E+00 -0.00000000000E+00 -0.45593999997E+02  0.45594000000E+02  0.51100000000E-03 0. -1.
    9900012    2    1    2    0    0  0.25354368101E+02  0.33635229473E+02 -0.10461893803E+02  0.47787264229E+02  0.19999968927E+02 0.  0.
        -12    1    1    2    0    0 -0.25354368101E+02 -0.33635229473E+02  0.10461893803E+02  0.43400735771E+02  0.00000000000E+00 0.  1.
         11    1    3    3    0    0  0.15780827712E+02  0.14380123181E+02  0.27318044595E+00  0.21351746856E+02  0.51100000000E-03 0. -1.
        -11    1    3    3    0    0  0.80461521120E+01  0.10225687226E+02 -0.96943607206E+00  0.13047798650E+02  0.51100000000E-03 0.  1.
        -12    1    3    3    0    0  0.15273882767E+01  0.90294190660E+01 -0.97656381765E+01  0.13387718723E+02  0.00000000000E+00 0.  1.
</event>
<event>
 7    1  0.4011333E-009  0.4778727E+02  0.7816164E-02  0.1312668E+00
        -11   -1    0    0    0    0  0.00000000000E+00  0.00000000000E+00  0.45593999997E+02  0.45594000000E+02  0.51100000000E-03 0.  1.
         11   -1    0    0    0    0 -0.00000000000E+00 -0.00000000000E+00 -0.45593999997E+02  0.45594000000E+02  0.51100000000E-03 0. -1.
    9900012    2    1    2    0    0 -0.65509441280E+01  0.32711527415E+02 -0.27760844837E+02  0.47787269582E+02  0.19999993330E+02 0.  0.
        -12    1    1    2    0    0  0.65509441280E+01 -0.32711527415E+02  0.27760844837E+02  0.43400730418E+02  0.00000000000E+00 0.  1.
         11    1    3    3    0    0 -0.52261410716E+01  0.23742959631E+02 -0.17442213905E+02  0.29921088027E+02  0.51100000000E-03 0. -1.
        -11    1    3    3    0    0  0.38927691852E+01  0.84029250239E+01 -0.56947223557E+01  0.10871644947E+02  0.51100000000E-03 0.  1.
        -12    1    3    3    0    0 -0.52175722416E+01  0.56564275977E+00 -0.46239085766E+01  0.69945366074E+01  0.00000000000E+00 0.  1.
</event>
<event>
 7    1  0.4011333E-009  0.4778727E+02  0.7816164E-02  0.1312668E+00
        -11   -1    0    0    0    0  0.00000000000E+00  0.00000000000E+00  0.45593999997E+02  0.45594000000E+02  0.51100000000E-03 0.  1.
         11   -1    0    0    0    0 -0.00000000000E+00 -0.00000000000E+00 -0.45593999997E+02  0.45594000000E+02  0.51100000000E-03 0. -1.
    9900012    2    1    2    0    0  0.10822419112E+02  0.47916867989E+01 -0.41755697816E+02  0.47787270537E+02  0.19999997686E+02 0.  0.
        -12    1    1    2    0    0 -0.10822419112E+02 -0.47916867989E+01  0.41755697816E+02  0.43400729463E+02  0.00000000000E+00 0.  1.
         11    1    3    3    0    0  0.14933601442E+01  0.22864754761E+01  0.79054972986E+00  0.28430729431E+01  0.51100000000E-03 0. -1.
        -11    1    3    3    0    0  0.20008006449E+01 -0.37662259012E+01 -0.78671794991E+01  0.89487526668E+01  0.51100000000E-03 0.  1.
         12    1    3    3    0    0  0.73282583229E+01  0.62714372239E+01 -0.34679068047E+02  0.35995444927E+02  0.00000000000E+00 0. -1.
</event>
<event>
 7    1  0.4011333E-009  0.4778727E+02  0.7816164E-02  0.1312668E+00
        -11   -1    0    0    0    0  0.00000000000E+00  0.00000000000E+00  0.45593999997E+02  0.45594000000E+02  0.51100000000E-03 0.  1.
         11   -1    0    0    0    0 -0.00000000000E+00 -0.00000000000E+00 -0.45593999997E+02  0.45594000000E+02  0.51100000000E-03 0. -1.
    9900012    2    1    2    0    0 -0.37975224959E+02 -0.15560165632E+02  0.14120439362E+02  0.47787271055E+02  0.20000000049E+02 0.  0.
        -12    1    1    2    0    0  0.37975224959E+02  0.15560165632E+02 -0.14120439362E+02  0.43400728945E+02  0.00000000000E+00 0.  1.
         11    1    3    3    0    0 -0.92279687399E+01 -0.29778282287E+01  0.10714377071E+02  0.14450631277E+02  0.51100000000E-03 0. -1.
        -11    1    3    3    0    0 -0.66991587425E+00 -0.31621580987E+01 -0.10261933906E+01  0.33913278013E+01  0.51100000000E-03 0.  1.
         12    1    3    3    0    0 -0.28077340345E+02 -0.94201793041E+01  0.44322556816E+01  0.29945311977E+02  0.00000000000E+00 0. -1.
</event>
<event>
 7    1  0.4011333E-009  0.4778726E+02  0.7816164E-02  0.1312668E+00
        -11   -1    0    0    0    0  0.00000000000E+00  0.00000000000E+00  0.45593999997E+02  0.45594000000E+02  0.51100000000E-03 0. -1.
         11   -1    0    0    0    0 -0.00000000000E+00 -0.00000000000E+00 -0.45593999997E+02  0.45594000000E+02  0.51100000000E-03 0.  1.
    9900012    2    1    2    0    0  0.13971281655E+02 -0.40808110909E+02 -0.48088667882E+01  0.47787264674E+02  0.19999970953E+02 0.  0.
        -12    1    1    2    0    0 -0.13971281655E+02  0.40808110909E+02  0.48088667882E+01  0.43400735326E+02  0.00000000000E+00 0.  1.
         11    1    3    3    0    0  0.26096224189E+01 -0.26798214596E+01  0.24139994418E+01  0.44518497044E+01  0.51100000000E-03 0. -1.
        -11    1    3    3    0    0 -0.11810257708E+01 -0.23863704777E+01  0.30889079298E+01  0.40781047544E+01  0.51100000000E-03 0.  1.
        -12    1    3    3    0    0  0.12542685007E+02 -0.35741918972E+02 -0.10311774160E+02  0.39257310215E+02  0.00000000000E+00 0.  1.
</event>
<event>
 7    1  0.4011333E-009  0.4778727E+02  0.7816164E-02  0.1312668E+00
        -11   -1    0    0    0    0  0.00000000000E+00  0.00000000000E+00  0.45593999997E+02  0.45594000000E+02  0.51100000000E-03 0.  1.
         11   -1    0    0    0    0 -0.00000000000E+00 -0.00000000000E+00 -0.45593999997E+02  0.45594000000E+02  0.51100000000E-03 0. -1.
    9900012    2    1    2    0    0 -0.34497538237E+02 -0.26289414552E+02 -0.15524355143E+01  0.47787268233E+02  0.19999987180E+02 0.  0.
        -12    1    1    2    0    0  0.34497538237E+02  0.26289414552E+02  0.15524355143E+01  0.43400731767E+02  0.00000000000E+00 0.  1.
         11    1    3    3    0    0 -0.27764850865E+02 -0.12947520430E+02 -0.35260016306E+01  0.30837605559E+02  0.51100000000E-03 0. -1.
        -11    1    3    3    0    0 -0.33421514345E+01 -0.31536208854E+01 -0.25987267846E+01  0.52790796605E+01  0.51100000000E-03 0.  1.
         12    1    3    3    0    0 -0.33905359373E+01 -0.10188273237E+02  0.45722929009E+01  0.11670583013E+02  0.00000000000E+00 0. -1.
</event>
<event>
 7    1  0.4011333E-009  0.4778728E+02  0.7816164E-02  0.1312668E+00
        -11   -1    0    0    0    0  0.00000000000E+00  0.00000000000E+00  0.45593999997E+02  0.45594000000E+02  0.51100000000E-03 0.  1.
         11   -1    0    0    0    0 -0.00000000000E+00 -0.00000000000E+00 -0.45593999997E+02  0.45594000000E+02  0.51100000000E-03 0. -1.
    9900012    2    1    2    0    0  0.40847587689E+02 -0.55176157828E+00 -0.14655795911E+02  0.47787283248E+02  0.20000055639E+02 0.  0.
        -12    1    1    2    0    0 -0.40847587689E+02  0.55176157828E+00  0.14655795911E+02  0.43400716752E+02  0.00000000000E+00 0.  1.
         11    1    3    3    0    0  0.46291344647E+01 -0.35114494225E+00 -0.46220420950E+01  0.65509893949E+01  0.51100000000E-03 0. -1.
        -11    1    3    3    0    0  0.78410149227E+01  0.66583334818E+01  0.23242795356E+00  0.10289263472E+02  0.51100000000E-03 0.  1.
        -12    1    3    3    0    0  0.28377438302E+02 -0.68589501179E+01 -0.10266181769E+02  0.30947030381E+02  0.00000000000E+00 0.  1.
</event>
<event>
 7    1  0.4011333E-009  0.4778727E+02  0.7816164E-02  0.1312668E+00
        -11   -1    0    0    0    0  0.00000000000E+00  0.00000000000E+00  0.45593999997E+02  0.45594000000E+02  0.51100000000E-03 0.  1.
         11   -1    0    0    0    0 -0.00000000000E+00 -0.00000000000E+00 -0.45593999997E+02  0.45594000000E+02  0.51100000000E-03 0. -1.
    9900012    2    1    2    0    0 -0.11306378583E+02  0.37119332695E+02 -0.19440793596E+02  0.47787268300E+02  0.19999987489E+02 0.  0.
        -12    1    1    2    0    0  0.11306378583E+02 -0.37119332695E+02  0.19440793596E+02  0.43400731700E+02  0.00000000000E+00 0.  1.
         11    1    3    3    0    0  0.17333325716E+01  0.12473246922E+02 -0.63597135890E+01  0.14107880344E+02  0.51100000000E-03 0. -1.
        -11    1    3    3    0    0 -0.42095730538E+01  0.20662903000E+02 -0.68961332805E+01  0.22186318311E+02  0.51100000000E-03 0.  1.
        -12    1    3    3    0    0 -0.88301381010E+01  0.39831827725E+01 -0.61849467267E+01  0.11493069646E+02  0.00000000000E+00 0.  1.
</event>
<event>
 7    1  0.4011333E-009  0.4778727E+02  0.7816164E-02  0.1312668E+00
        -11   -1    0    0    0    0  0.00000000000E+00  0.00000000000E+00  0.45593999997E+02  0.45594000000E+02  0.51100000000E-03 0.  1.
         11   -1    0    0    0    0 -0.00000000000E+00 -0.00000000000E+00 -0.45593999997E+02  0.45594000000E+02  0.51100000000E-03 0. -1.
    9900012    2    1    2    0    0  0.36671983127E+01  0.27539925429E+02 -0.33342578495E+02  0.47787269858E+02  0.19999994592E+02 0.  0.
        -12    1    1    2    0    0 -0.36671983127E+01 -0.27539925429E+02  0.33342578495E+02  0.43400730142E+02  0.00000000000E+00 0.  1.
         11    1    3    3    0    0 -0.11845985374E+01  0.23690317258E+01 -0.98054214830E+01  0.10156863479E+02  0.51100000000E-03 0. -1.
        -11    1    3    3    0    0  0.27591550296E+01  0.27172149947E+01  0.12981911137E+01  0.40842984996E+01  0.51100000000E-03 0.  1.
         12    1    3    3    0    0  0.20926418205E+01  0.22453678709E+02 -0.24835348126E+02  0.33546107880E+02  0.00000000000E+00 0. -1.
</event>
<event>
 7    1  0.4011333E-009  0.4778727E+02  0.7816164E-02  0.1312668E+00
        -11   -1    0    0    0    0  0.00000000000E+00  0.00000000000E+00  0.45593999997E+02  0.45594000000E+02  0.51100000000E-03 0. -1.
         11   -1    0    0    0    0 -0.00000000000E+00 -0.00000000000E+00 -0.45593999997E+02  0.45594000000E+02  0.51100000000E-03 0.  1.
    9900012    2    1    2    0    0 -0.41738312136E+02 -0.93366508705E+01 -0.73731655937E+01  0.47787270509E+02  0.19999997561E+02 0.  0.
        -12    1    1    2    0    0  0.41738312136E+02  0.93366508705E+01  0.73731655937E+01  0.43400729491E+02  0.00000000000E+00 0.  1.
         11    1    3    3    0    0 -0.17292615824E+02 -0.15198879637E+01 -0.31129632107E+00  0.17362071510E+02  0.51100000000E-03 0. -1.
        -11    1    3    3    0    0 -0.14155038758E+02  0.31338906622E+01 -0.24270912099E+01  0.14699563427E+02  0.51100000000E-03 0.  1.
        -12    1    3    3    0    0 -0.10290657554E+02 -0.10950653569E+02 -0.46347780627E+01  0.15725635573E+02  0.00000000000E+00 0.  1.
</event>
<event>
 7    1  0.4011333E-009  0.4778727E+02  0.7816164E-02  0.1312668E+00
        -11   -1    0    0    0    0  0.00000000000E+00  0.00000000000E+00  0.45593999997E+02  0.45594000000E+02  0.51100000000E-03 0.  1.
         11   -1    0    0    0    0 -0.00000000000E+00 -0.00000000000E+00 -0.45593999997E+02  0.45594000000E+02  0.51100000000E-03 0. -1.
    9900012    2    1    2    0    0  0.27543880294E+02 -0.21405654655E+02 -0.25821611778E+02  0.47787273881E+02  0.20000012934E+02 0.  0.
        -12    1    1    2    0    0 -0.27543880294E+02  0.21405654655E+02  0.25821611778E+02  0.43400726119E+02  0.00000000000E+00 0.  1.
         11    1    3    3    0    0  0.15167029049E+02 -0.17000077624E+02 -0.25105391605E+02  0.33901653312E+02  0.51100000000E-03 0. -1.
        -11    1    3    3    0    0  0.12396326109E+01  0.86230502402E+00 -0.39648331016E+00  0.15612361259E+01  0.51100000000E-03 0.  1.
         12    1    3    3    0    0  0.11137218634E+02 -0.52678820551E+01 -0.31973686267E+00  0.12324384443E+02  0.00000000000E+00 0. -1.
</event>
<event>
 7    1  0.4011333E-009  0.4778727E+02  0.7816164E-02  0.1312668E+00
        -11   -1    0    0    0    0  0.00000000000E+00  0.00000000000E+00  0.45593999997E+02  0.45594000000E+02  0.51100000000E-03 0. -1.
         11   -1    0    0    0    0 -0.00000000000E+00 -0.00000000000E+00 -0.45593999997E+02  0.45594000000E+02  0.51100000000E-03 0.  1.
    9900012    2    1    2    0    0  0.31274242360E+02 -0.23971469283E+02  0.18191042211E+02  0.47787267385E+02  0.19999983316E+02 0.  0.
        -12    1    1    2    0    0 -0.31274242360E+02  0.23971469283E+02 -0.18191042211E+02  0.43400732615E+02  0.00000000000E+00 0.  1.
         11    1    3    3    0    0  0.18285376204E+02 -0.93859860768E+01  0.57725691746E+01  0.21348870525E+02  0.51100000000E-03 0. -1.
        -11    1    3    3    0    0  0.34365013718E+01  0.16572916098E+01 -0.98465114796E-01  0.38165236535E+01  0.51100000000E-03 0.  1.
         12    1    3    3    0    0  0.95523647837E+01 -0.16242774816E+02  0.12516938151E+02  0.22621873207E+02  0.00000000000E+00 0. -1.
</event>
<event>
 7    1  0.4011333E-009  0.4778725E+02  0.7816164E-02  0.1312668E+00
        -11   -1    0    0    0    0  0.00000000000E+00  0.00000000000E+00  0.45593999997E+02  0.45594000000E+02  0.51100000000E-03 0.  1.
         11   -1    0    0    0    0 -0.00000000000E+00 -0.00000000000E+00 -0.45593999997E+02  0.45594000000E+02  0.51100000000E-03 0. -1.
    9900012    2    1    2    0    0 -0.26576870433E+02 -0.31045017817E+02 -0.14611691225E+02  0.47787254687E+02  0.19999925421E+02 0.  0.
        -12    1    1    2    0    0  0.26576870433E+02  0.31045017817E+02  0.14611691225E+02  0.43400745313E+02  0.00000000000E+00 0.  1.
         11    1    3    3    0    0 -0.10304141349E+01 -0.11916055186E+02 -0.45510166257E+01  0.12797104245E+02  0.51100000000E-03 0. -1.
        -11    1    3    3    0    0 -0.39082386340E+01 -0.19265195984E+01  0.20441692764E+01  0.48129445535E+01  0.51100000000E-03 0.  1.
        -12    1    3    3    0    0 -0.21638217664E+02 -0.17202443032E+02 -0.12104843875E+02  0.30177205888E+02  0.00000000000E+00 0.  1.
</event>
<event>
 7    1  0.4011333E-009  0.4778727E+02  0.7816164E-02  0.1312668E+00
        -11   -1    0    0    0    0  0.00000000000E+00  0.00000000000E+00  0.45593999997E+02  0.45594000000E+02  0.51100000000E-03 0.  1.
         11   -1    0    0    0    0 -0.00000000000E+00 -0.00000000000E+00 -0.45593999997E+02  0.45594000000E+02  0.51100000000E-03 0. -1.
    9900012    2    1    2    0    0  0.15911522052E+02  0.39486765712E+02  0.84405109080E+01  0.47787269306E+02  0.19999992072E+02 0.  0.
        -12    1    1    2    0    0 -0.15911522052E+02 -0.39486765712E+02 -0.84405109080E+01  0.43400730694E+02  0.00000000000E+00 0.  1.
         11    1    3    3    0    0  0.16280917340E+02  0.20513742024E+02 -0.65532564446E+00  0.26197544412E+02  0.51100000000E-03 0. -1.
        -11    1    3    3    0    0 -0.20892265809E+00  0.16059084646E+01  0.25672422446E+01  0.30353457262E+01  0.51100000000E-03 0.  1.
        -12    1    3    3    0    0 -0.16047262983E+00  0.17367115223E+02  0.65285943079E+01  0.18554379167E+02  0.00000000000E+00 0.  1.
</event>
<event>
 7    1  0.4011333E-009  0.4778727E+02  0.7816164E-02  0.1312668E+00
        -11   -1    0    0    0    0  0.00000000000E+00  0.00000000000E+00  0.45593999997E+02  0.45594000000E+02  0.51100000000E-03 0.  1.
         11   -1    0    0    0    0 -0.00000000000E+00 -0.00000000000E+00 -0.45593999997E+02  0.45594000000E+02  0.51100000000E-03 0. -1.
    9900012    2    1    2    0    0  0.78536386316E+01  0.27372743241E+02 -0.32751741158E+02  0.47787271191E+02  0.20000000668E+02 0.  0.
        -12    1    1    2    0    0 -0.78536386316E+01 -0.27372743241E+02  0.32751741158E+02  0.43400728809E+02  0.00000000000E+00 0.  1.
         11    1    3    3    0    0 -0.13543003040E+01 -0.31446294481E+00 -0.10246262341E+01  0.17271002975E+01  0.51100000000E-03 0. -1.
        -11    1    3    3    0    0  0.34408562243E+01  0.11403205058E+01 -0.11868174330E+02  0.12409407101E+02  0.51100000000E-03 0.  1.
         12    1    3    3    0    0  0.57670827113E+01  0.26546885680E+02 -0.19858940594E+02  0.33650763793E+02  0.00000000000E+00 0. -1.
</event>
<event>
 7    1  0.4011333E-009  0.4778727E+02  0.7816164E-02  0.1312668E+00
        -11   -1    0    0    0    0  0.00000000000E+00  0.00000000000E+00  0.45593999997E+02  0.45594000000E+02  0.51100000000E-03 0. -1.
         11   -1    0    0    0    0 -0.00000000000E+00 -0.00000000000E+00 -0.45593999997E+02  0.45594000000E+02  0.51100000000E-03 0.  1.
    9900012    2    1    2    0    0  0.35815829542E+02  0.53222185946E+00  0.24506454891E+02  0.47787271466E+02  0.20000001924E+02 0.  0.
        -12    1    1    2    0    0 -0.35815829542E+02 -0.53222185946E+00 -0.24506454891E+02  0.43400728534E+02  0.00000000000E+00 0.  1.
         11    1    3    3    0    0  0.12422196438E+02 -0.44462165572E+01  0.13882785011E+02  0.19152324296E+02  0.51100000000E-03 0. -1.
        -11    1    3    3    0    0  0.16830301983E+01 -0.26083861347E+01 -0.40265781924E+00  0.31302399999E+01  0.51100000000E-03 0.  1.
        -12    1    3    3    0    0  0.21710602906E+02  0.75868245514E+01  0.11026327699E+02  0.25504707171E+02  0.00000000000E+00 0.  1.
</event>
<event>
 7    1  0.4011333E-009  0.4778727E+02  0.7816164E-02  0.1312668E+00
        -11   -1    0    0    0    0  0.00000000000E+00  0.00000000000E+00  0.45593999997E+02  0.45594000000E+02  0.51100000000E-03 0.  1.
         11   -1    0    0    0    0 -0.00000000000E+00 -0.00000000000E+00 -0.45593999997E+02  0.45594000000E+02  0.51100000000E-03 0. -1.
    9900012    2    1    2    0    0  0.11213672472E+02 -0.36234790713E+01 -0.41770170501E+02  0.47787271958E+02  0.20000004166E+02 0.  0.
        -12    1    1    2    0    0 -0.11213672472E+02  0.36234790713E+01  0.41770170501E+02  0.43400728042E+02  0.00000000000E+00 0.  1.
         11    1    3    3    0    0  0.59644341661E+01 -0.57345445099E+01 -0.20754449821E+02  0.22342933185E+02  0.51100000000E-03 0. -1.
        -11    1    3    3    0    0  0.41677806359E+01  0.76440552375E+01 -0.12749782344E+02  0.15438877096E+02  0.51100000000E-03 0.  1.
         12    1    3    3    0    0  0.10814576698E+01 -0.55329897990E+01 -0.82659383361E+01  0.10005461678E+02  0.00000000000E+00 0. -1.
</event>
<event>
 7    1  0.4011333E-009  0.4778727E+02  0.7816164E-02  0.1312668E+00
        -11   -1    0    0    0    0  0.00000000000E+00  0.00000000000E+00  0.45593999997E+02  0.45594000000E+02  0.51100000000E-03 0.  1.
         11   -1    0    0    0    0 -0.00000000000E+00 -0.00000000000E+00 -0.45593999997E+02  0.45594000000E+02  0.51100000000E-03 0. -1.
    9900012    2    1    2    0    0 -0.18213384846E+02  0.34657729265E+01 -0.39241360537E+02  0.47787270210E+02  0.19999996194E+02 0.  0.
        -12    1    1    2    0    0  0.18213384846E+02 -0.34657729265E+01  0.39241360537E+02  0.43400729790E+02  0.00000000000E+00 0.  1.
         11    1    3    3    0    0 -0.23822667066E+01  0.59825636508E+01 -0.66635964064E+01  0.92665948345E+01  0.51100000000E-03 0. -1.
        -11    1    3    3    0    0  0.39433603574E+00  0.21109972587E+01 -0.39547833804E+00  0.21836239860E+01  0.51100000000E-03 0.  1.
         12    1    3    3    0    0 -0.16225454176E+02 -0.46277879830E+01 -0.32182285793E+02  0.36337051389E+02  0.00000000000E+00 0. -1.
</event>
<event>
 7    1  0.4011333E-009  0.4778727E+02  0.7816164E-02  0.1312668E+00
        -11   -1    0    0    0    0  0.00000000000E+00  0.00000000000E+00  0.45593999997E+02  0.45594000000E+02  0.51100000000E-03 0.  1.
         11   -1    0    0    0    0 -0.00000000000E+00 -0.00000000000E+00 -0.45593999997E+02  0.45594000000E+02  0.51100000000E-03 0. -1.
    9900012    2    1    2    0    0 -0.28525573633E+02  0.32704097735E+02 -0.59763320248E+00  0.47787268149E+02  0.19999986798E+02 0.  0.
        -12    1    1    2    0    0  0.28525573633E+02 -0.32704097735E+02  0.59763320248E+00  0.43400731851E+02  0.00000000000E+00 0.  1.
         11    1    3    3    0    0 -0.19893153176E+02  0.11069946847E+02  0.80130878885E+00  0.22779889432E+02  0.51100000000E-03 0. -1.
        -11    1    3    3    0    0 -0.97316578372E+01  0.15830025498E+02  0.10518693451E+01  0.18611859147E+02  0.51100000000E-03 0.  1.
        -12    1    3    3    0    0  0.10992373806E+01  0.58041253898E+01 -0.24508113364E+01  0.63955195697E+01  0.00000000000E+00 0.  1.
</event>
<event>
 7    1  0.4011333E-009  0.4778729E+02  0.7816164E-02  0.1312668E+00
        -11   -1    0    0    0    0  0.00000000000E+00  0.00000000000E+00  0.45593999997E+02  0.45594000000E+02  0.51100000000E-03 0.  1.
         11   -1    0    0    0    0 -0.00000000000E+00 -0.00000000000E+00 -0.45593999997E+02  0.45594000000E+02  0.51100000000E-03 0. -1.
    9900012    2    1    2    0    0 -0.31569728696E+02  0.17508026038E+02 -0.24092376160E+02  0.47787293384E+02  0.20000101857E+02 0.  0.
        -12    1    1    2    0    0  0.31569728696E+02 -0.17508026038E+02  0.24092376160E+02  0.43400706616E+02  0.00000000000E+00 0.  1.
         11    1    3    3    0    0 -0.37950975598E+01 -0.13869926440E+00  0.75091813775E+00  0.38711601988E+01  0.51100000000E-03 0.  1.
        -11    1    3    3    0    0 -0.16795159035E+02  0.11078017475E+02 -0.57369329268E+01  0.20921573503E+02  0.51100000000E-03 0. -1.
        -12    1    3    3    0    0 -0.10979472101E+02  0.65687078275E+01 -0.19106361371E+02  0.22994559682E+02  0.00000000000E+00 0.  1.
</event>
<event>
 7    1  0.4011333E-009  0.4778727E+02  0.7816164E-02  0.1312668E+00
        -11   -1    0    0    0    0  0.00000000000E+00  0.00000000000E+00  0.45593999997E+02  0.45594000000E+02  0.51100000000E-03 0. -1.
         11   -1    0    0    0    0 -0.00000000000E+00 -0.00000000000E+00 -0.45593999997E+02  0.45594000000E+02  0.51100000000E-03 0.  1.
    9900012    2    1    2    0    0 -0.62984028479E+01  0.18607685677E+02  0.38700226052E+02  0.47787270269E+02  0.19999996466E+02 0.  0.
        -12    1    1    2    0    0  0.62984028479E+01 -0.18607685677E+02 -0.38700226052E+02  0.43400729731E+02  0.00000000000E+00 0.  1.
         11    1    3    3    0    0 -0.10295672578E+01  0.18554551196E+01  0.75379928667E+01  0.78309679580E+01  0.51100000000E-03 0. -1.
        -11    1    3    3    0    0 -0.96066430944E+00  0.16852133414E+02  0.13042804410E+02  0.21331479641E+02  0.51100000000E-03 0.  1.
        -12    1    3    3    0    0 -0.43081712807E+01 -0.99902857001E-01  0.18119428775E+02  0.18624822670E+02  0.00000000000E+00 0.  1.
</event>
<event>
 7    1  0.4011333E-009  0.4778727E+02  0.7816164E-02  0.1312668E+00
        -11   -1    0    0    0    0  0.00000000000E+00  0.00000000000E+00  0.45593999997E+02  0.45594000000E+02  0.51100000000E-03 0.  1.
         11   -1    0    0    0    0 -0.00000000000E+00 -0.00000000000E+00 -0.45593999997E+02  0.45594000000E+02  0.51100000000E-03 0. -1.
    9900012    2    1    2    0    0 -0.11318419457E+02 -0.39622058439E+02  0.13623837425E+02  0.47787273276E+02  0.20000010176E+02 0.  0.
        -12    1    1    2    0    0  0.11318419457E+02  0.39622058439E+02 -0.13623837425E+02  0.43400726724E+02  0.00000000000E+00 0.  1.
         11    1    3    3    0    0 -0.66858760080E+01 -0.97799037000E+01  0.47294110518E+01  0.12755970505E+02  0.51100000000E-03 0. -1.
        -11    1    3    3    0    0 -0.81851257378E+01 -0.11269652078E+02 -0.45733912455E+00  0.13935942761E+02  0.51100000000E-03 0.  1.
        -12    1    3    3    0    0  0.35525822889E+01 -0.18572502661E+02  0.93517654974E+01  0.21095360010E+02  0.00000000000E+00 0.  1.
</event>
<event>
 7    1  0.4011333E-009  0.4778727E+02  0.7816164E-02  0.1312668E+00
        -11   -1    0    0    0    0  0.00000000000E+00  0.00000000000E+00  0.45593999997E+02  0.45594000000E+02  0.51100000000E-03 0.  1.
         11   -1    0    0    0    0 -0.00000000000E+00 -0.00000000000E+00 -0.45593999997E+02  0.45594000000E+02  0.51100000000E-03 0. -1.
    9900012    2    1    2    0    0  0.93640283550E+00  0.12651935979E+01 -0.43372177687E+02  0.47787270024E+02  0.19999995349E+02 0.  0.
        -12    1    1    2    0    0 -0.93640283550E+00 -0.12651935979E+01  0.43372177687E+02  0.43400729976E+02  0.00000000000E+00 0.  1.
         11    1    3    3    0    0 -0.58135169717E+01  0.46596611795E+01 -0.95980724774E+01  0.12150408118E+02  0.51100000000E-03 0. -1.
        -11    1    3    3    0    0 -0.14886905484E-01 -0.20249445048E+01 -0.12308338684E+01  0.23697202662E+01  0.51100000000E-03 0.  1.
        -12    1    3    3    0    0  0.67648067127E+01 -0.13695230769E+01 -0.32543271341E+02  0.33267141640E+02  0.00000000000E+00 0.  1.
</event>
<event>
 7    1  0.4011333E-009  0.4778727E+02  0.7816164E-02  0.1312668E+00
        -11   -1    0    0    0    0  0.00000000000E+00  0.00000000000E+00  0.45593999997E+02  0.45594000000E+02  0.51100000000E-03 0. -1.
         11   -1    0    0    0    0 -0.00000000000E+00 -0.00000000000E+00 -0.45593999997E+02  0.45594000000E+02  0.51100000000E-03 0.  1.
    9900012    2    1    2    0    0  0.20419758062E+02 -0.28467283227E+01  0.38191003913E+02  0.47787272341E+02  0.20000005911E+02 0.  0.
        -12    1    1    2    0    0 -0.20419758062E+02  0.28467283227E+01 -0.38191003913E+02  0.43400727659E+02  0.00000000000E+00 0.  1.
         11    1    3    3    0    0  0.91508599020E+01  0.44304888196E+01  0.95186136135E+01  0.13927364198E+02  0.51100000000E-03 0. -1.
        -11    1    3    3    0    0  0.39404906188E+01 -0.43325363648E+01  0.22357282392E+01  0.62687174677E+01  0.51100000000E-03 0.  1.
         12    1    3    3    0    0  0.73284075409E+01 -0.29446807774E+01  0.26436662060E+02  0.27591190675E+02  0.00000000000E+00 0. -1.
</event>
<event>
 7    1  0.4368429E-009  0.4778726E+02  0.7816164E-02  0.1312668E+00
        -11   -1    0    0    0    0  0.00000000000E+00  0.00000000000E+00  0.45593999997E+02  0.45594000000E+02  0.51100000000E-03 0.  1.
         11   -1    0    0    0    0 -0.00000000000E+00 -0.00000000000E+00 -0.45593999997E+02  0.45594000000E+02  0.51100000000E-03 0. -1.
    9900012    2    1    2    0    0 -0.29500512633E+02  0.43922704493E+01 -0.31528592288E+02  0.47787257876E+02  0.19999939958E+02 0.  0.
        -12    1    1    2    0    0  0.29500512633E+02 -0.43922704493E+01  0.31528592288E+02  0.43400742124E+02  0.00000000000E+00 0.  1.
         11    1    3    3    0    0 -0.16206686412E+02  0.32183274242E+01 -0.18943329365E+02  0.25136906006E+02  0.51100000000E-03 0. -1.
        -11    1    3    3    0    0 -0.12022328000E+02 -0.43984213061E+01 -0.10531617865E+02  0.16577015885E+02  0.51100000000E-03 0.  1.
        -12    1    3    3    0    0 -0.12714982212E+01  0.55723643312E+01 -0.20536450578E+01  0.60733359852E+01  0.00000000000E+00 0.  1.
</event>
<event>
 7    1  0.4011333E-009  0.4778727E+02  0.7816164E-02  0.1312668E+00
        -11   -1    0    0    0    0  0.00000000000E+00  0.00000000000E+00  0.45593999997E+02  0.45594000000E+02  0.51100000000E-03 0. -1.
         11   -1    0    0    0    0 -0.00000000000E+00 -0.00000000000E+00 -0.45593999997E+02  0.45594000000E+02  0.51100000000E-03 0.  1.
    9900012    2    1    2    0    0 -0.15058841366E+02  0.32761785251E+02  0.24156161818E+02  0.47787269247E+02  0.19999991805E+02 0.  0.
        -12    1    1    2    0    0  0.15058841366E+02 -0.32761785251E+02 -0.24156161818E+02  0.43400730753E+02  0.00000000000E+00 0.  1.
         11    1    3    3    0    0  0.17356915913E+01  0.62386311052E+00  0.20551449522E+01  0.27614220098E+01  0.51100000000E-03 0.  1.
        -11    1    3    3    0    0 -0.80086964690E+01  0.28611116270E+02  0.17722197811E+02  0.34594963346E+02  0.51100000000E-03 0. -1.
         12    1    3    3    0    0 -0.87858364885E+01  0.35268058704E+01  0.43788190541E+01  0.10430883891E+02  0.00000000000E+00 0. -1.
</event>
<event>
 7    1  0.4011333E-009  0.4778724E+02  0.7816164E-02  0.1312668E+00
        -11   -1    0    0    0    0  0.00000000000E+00  0.00000000000E+00  0.45593999997E+02  0.45594000000E+02  0.51100000000E-03 0.  1.
         11   -1    0    0    0    0 -0.00000000000E+00 -0.00000000000E+00 -0.45593999997E+02  0.45594000000E+02  0.51100000000E-03 0. -1.
    9900012    2    1    2    0    0 -0.36479694307E+02  0.22194484667E+02 -0.77628793404E+01  0.47787244914E+02  0.19999880862E+02 0.  0.
        -12    1    1    2    0    0  0.36479694307E+02 -0.22194484667E+02  0.77628793404E+01  0.43400755086E+02  0.00000000000E+00 0.  1.
         11    1    3    3    0    0 -0.57046771434E+01 -0.73176166101E+00 -0.67318869791E+00  0.57906821466E+01  0.51100000000E-03 0. -1.
        -11    1    3    3    0    0 -0.29379546252E+01  0.50413491790E+01  0.40292347433E+01  0.70909457622E+01  0.51100000000E-03 0.  1.
         12    1    3    3    0    0 -0.27837062538E+02  0.17884897149E+02 -0.11118925386E+02  0.34905617005E+02  0.00000000000E+00 0. -1.
</event>
<event>
 7    1  0.4011333E-009  0.4778727E+02  0.7816164E-02  0.1312668E+00
        -11   -1    0    0    0    0  0.00000000000E+00  0.00000000000E+00  0.45593999997E+02  0.45594000000E+02  0.51100000000E-03 0. -1.
         11   -1    0    0    0    0 -0.00000000000E+00 -0.00000000000E+00 -0.45593999997E+02  0.45594000000E+02  0.51100000000E-03 0.  1.
    9900012    2    1    2    0    0 -0.41378122067E+02  0.10883054878E+02 -0.72824044131E+01  0.47787270936E+02  0.19999999506E+02 0.  0.
        -12    1    1    2    0    0  0.41378122067E+02 -0.10883054878E+02  0.72824044131E+01  0.43400729064E+02  0.00000000000E+00 0.  1.
         11    1    3    3    0    0 -0.10233665730E+01  0.29985934514E+01 -0.14952385640E+01  0.35035097336E+01  0.51100000000E-03 0. -1.
        -11    1    3    3    0    0 -0.31552429068E+01  0.39901573966E+01 -0.46059137901E+01  0.68623141836E+01  0.51100000000E-03 0.  1.
        -12    1    3    3    0    0 -0.37199512587E+02  0.38943040300E+01 -0.11812520590E+01  0.37421447019E+02  0.00000000000E+00 0.  1.
</event>
<event>
 7    1  0.4011333E-009  0.4778727E+02  0.7816164E-02  0.1312668E+00
        -11   -1    0    0    0    0  0.00000000000E+00  0.00000000000E+00  0.45593999997E+02  0.45594000000E+02  0.51100000000E-03 0.  1.
         11   -1    0    0    0    0 -0.00000000000E+00 -0.00000000000E+00 -0.45593999997E+02  0.45594000000E+02  0.51100000000E-03 0. -1.
    9900012    2    1    2    0    0 -0.39172494912E+00  0.13857548364E+02 -0.41127096756E+02  0.47787272095E+02  0.20000004792E+02 0.  0.
        -12    1    1    2    0    0  0.39172494912E+00 -0.13857548364E+02  0.41127096756E+02  0.43400727905E+02  0.00000000000E+00 0.  1.
         11    1    3    3    0    0 -0.28903784137E+01  0.52699711838E+01 -0.12668980589E+02  0.14022480275E+02  0.51100000000E-03 0. -1.
        -11    1    3    3    0    0 -0.34974879836E+01  0.45921926883E+01 -0.16475988014E+01  0.60029357779E+01  0.51100000000E-03 0.  1.
         12    1    3    3    0    0  0.59961414482E+01  0.39953844917E+01 -0.26810517365E+02  0.27761856042E+02  0.00000000000E+00 0. -1.
</event>
<event>
 7    1  0.4011333E-009  0.4778727E+02  0.7816164E-02  0.1312668E+00
        -11   -1    0    0    0    0  0.00000000000E+00  0.00000000000E+00  0.45593999997E+02  0.45594000000E+02  0.51100000000E-03 0.  1.
         11   -1    0    0    0    0 -0.00000000000E+00 -0.00000000000E+00 -0.45593999997E+02  0.45594000000E+02  0.51100000000E-03 0. -1.
    9900012    2    1    2    0    0 -0.30615611591E+02 -0.29446600201E+02 -0.88997321184E+01  0.47787272261E+02  0.20000005546E+02 0.  0.
        -12    1    1    2    0    0  0.30615611591E+02  0.29446600201E+02  0.88997321184E+01  0.43400727739E+02  0.00000000000E+00 0.  1.
         11    1    3    3    0    0  0.90324169762E+00 -0.39423133400E+00 -0.67332518475E+00  0.11935790609E+01  0.51100000000E-03 0. -1.
        -11    1    3    3    0    0 -0.12602494004E+02 -0.23616515315E+01 -0.48386725650E+01  0.13704488518E+02  0.51100000000E-03 0.  1.
         12    1    3    3    0    0 -0.18916359285E+02 -0.26690717336E+02 -0.33877343686E+01  0.32889204682E+02  0.00000000000E+00 0. -1.
</event>
<event>
 7    1  0.4011333E-009  0.4778728E+02  0.7816164E-02  0.1312668E+00
        -11   -1    0    0    0    0  0.00000000000E+00  0.00000000000E+00  0.45593999997E+02  0.45594000000E+02  0.51100000000E-03 0.  1.
         11   -1    0    0    0    0 -0.00000000000E+00 -0.00000000000E+00 -0.45593999997E+02  0.45594000000E+02  0.51100000000E-03 0. -1.
    9900012    2    1    2    0    0  0.79929730284E+01 -0.40440878031E+02  0.13574629180E+02  0.47787276606E+02  0.20000025360E+02 0.  0.
        -12    1    1    2    0    0 -0.79929730284E+01  0.40440878031E+02 -0.13574629180E+02  0.43400723394E+02  0.00000000000E+00 0.  1.
         11    1    3    3    0    0  0.50819729637E+01 -0.44429021312E+01 -0.12182003952E+01  0.68592886669E+01  0.51100000000E-03 0. -1.
        -11    1    3    3    0    0  0.12183067152E+01  0.71117976509E+00  0.46314292241E+00  0.14847725544E+01  0.51100000000E-03 0.  1.
         12    1    3    3    0    0  0.16926933495E+01 -0.36709155664E+02  0.14329686652E+02  0.39443215385E+02  0.00000000000E+00 0. -1.
</event>
<event>
 7    1  0.4011333E-009  0.4778727E+02  0.7816164E-02  0.1312668E+00
        -11   -1    0    0    0    0  0.00000000000E+00  0.00000000000E+00  0.45593999997E+02  0.45594000000E+02  0.51100000000E-03 0.  1.
         11   -1    0    0    0    0 -0.00000000000E+00 -0.00000000000E+00 -0.45593999997E+02  0.45594000000E+02  0.51100000000E-03 0. -1.
    9900012    2    1    2    0    0 -0.11674263777E+02  0.73935466029E+01 -0.41142077408E+02  0.47787268444E+02  0.19999988146E+02 0.  0.
        -12    1    1    2    0    0  0.11674263777E+02 -0.73935466029E+01  0.41142077408E+02  0.43400731556E+02  0.00000000000E+00 0.  1.
         11    1    3    3    0    0  0.61058142341E+00  0.38899286870E+01 -0.90548055740E+01  0.98738978680E+01  0.51100000000E-03 0.  1.
        -11    1    3    3    0    0 -0.64347582154E+01 -0.17701069171E+01 -0.28477931732E+02  0.29249478419E+02  0.51100000000E-03 0. -1.
         12    1    3    3    0    0 -0.58500869850E+01  0.52737248329E+01 -0.36093401023E+01  0.86638921576E+01  0.00000000000E+00 0. -1.
</event>
<event>
 7    1  0.4011333E-009  0.4778727E+02  0.7816164E-02  0.1312668E+00
        -11   -1    0    0    0    0  0.00000000000E+00  0.00000000000E+00  0.45593999997E+02  0.45594000000E+02  0.51100000000E-03 0.  1.
         11   -1    0    0    0    0 -0.00000000000E+00 -0.00000000000E+00 -0.45593999997E+02  0.45594000000E+02  0.51100000000E-03 0. -1.
    9900012    2    1    2    0    0  0.13083121723E+02 -0.91874805330E+01 -0.40349046311E+02  0.47787269467E+02  0.19999992810E+02 0.  0.
        -12    1    1    2    0    0 -0.13083121723E+02  0.91874805330E+01  0.40349046311E+02  0.43400730533E+02  0.00000000000E+00 0.  1.
         11    1    3    3    0    0 -0.42696041130E+01  0.10118519657E+01 -0.98389784750E+01  0.10773061838E+02  0.51100000000E-03 0. -1.
        -11    1    3    3    0    0  0.47527214655E+01 -0.16955939166E+01 -0.12290224292E+02  0.13285820015E+02  0.51100000000E-03 0.  1.
         12    1    3    3    0    0  0.12600004370E+02 -0.85037385822E+01 -0.18219843544E+02  0.23728387614E+02  0.00000000000E+00 0. -1.
</event>
<event>
 7    1  0.4011333E-009  0.4778727E+02  0.7816164E-02  0.1312668E+00
        -11   -1    0    0    0    0  0.00000000000E+00  0.00000000000E+00  0.45593999997E+02  0.45594000000E+02  0.51100000000E-03 0. -1.
         11   -1    0    0    0    0 -0.00000000000E+00 -0.00000000000E+00 -0.45593999997E+02  0.45594000000E+02  0.51100000000E-03 0.  1.
    9900012    2    1    2    0    0 -0.41872443388E+01 -0.35759004186E+02  0.24236000168E+02  0.47787273051E+02  0.20000009151E+02 0.  0.
        -12    1    1    2    0    0  0.41872443388E+01  0.35759004186E+02 -0.24236000168E+02  0.43400726949E+02  0.00000000000E+00 0.  1.
         11    1    3    3    0    0  0.16105875708E+01 -0.11895778207E+02  0.58015014016E+01  0.13332702286E+02  0.51100000000E-03 0. -1.
        -11    1    3    3    0    0 -0.66432232398E+01 -0.21691969534E+02  0.84615498997E+01  0.24213049875E+02  0.51100000000E-03 0.  1.
         12    1    3    3    0    0  0.84539133017E+00 -0.21712564445E+01  0.99729488666E+01  0.10241520890E+02  0.00000000000E+00 0. -1.
</event>
<event>
 7    1  0.4011333E-009  0.4778726E+02  0.7816164E-02  0.1312668E+00
        -11   -1    0    0    0    0  0.00000000000E+00  0.00000000000E+00  0.45593999997E+02  0.45594000000E+02  0.51100000000E-03 0.  1.
         11   -1    0    0    0    0 -0.00000000000E+00 -0.00000000000E+00 -0.45593999997E+02  0.45594000000E+02  0.51100000000E-03 0. -1.
    9900012    2    1    2    0    0 -0.16366701667E+01  0.14779201695E+02 -0.40774017597E+02  0.47787262645E+02  0.19999961703E+02 0.  0.
        -12    1    1    2    0    0  0.16366701667E+01 -0.14779201695E+02  0.40774017597E+02  0.43400737355E+02  0.00000000000E+00 0.  1.
         11    1    3    3    0    0 -0.32055186917E+01  0.89734461592E+01 -0.23535778252E+02  0.25391552616E+02  0.51100000000E-03 0. -1.
        -11    1    3    3    0    0 -0.51863082839E+01  0.16869436152E+01 -0.33169319798E+01  0.63832288378E+01  0.51100000000E-03 0.  1.
         12    1    3    3    0    0  0.67551568089E+01  0.41188119201E+01 -0.13921307365E+02  0.16012481191E+02  0.00000000000E+00 0. -1.
</event>
<event>
 7    1  0.5973853E-009  0.4778727E+02  0.7816164E-02  0.1312668E+00
        -11   -1    0    0    0    0  0.00000000000E+00  0.00000000000E+00  0.45593999997E+02  0.45594000000E+02  0.51100000000E-03 0. -1.
         11   -1    0    0    0    0 -0.00000000000E+00 -0.00000000000E+00 -0.45593999997E+02  0.45594000000E+02  0.51100000000E-03 0.  1.
    9900012    2    1    2    0    0 -0.31166202080E+01 -0.38951501798E+02  0.18886253547E+02  0.47787269743E+02  0.19999994064E+02 0.  0.
        -12    1    1    2    0    0  0.31166202080E+01  0.38951501798E+02 -0.18886253547E+02  0.43400730257E+02  0.00000000000E+00 0.  1.
         11    1    3    3    0    0  0.50629850065E+00 -0.27130204003E+02  0.14995568540E+02  0.31002764127E+02  0.51100000000E-03 0. -1.
        -11    1    3    3    0    0  0.42483647643E+00 -0.12230703150E+02  0.25503154785E+01  0.12500987756E+02  0.51100000000E-03 0.  1.
        -12    1    3    3    0    0 -0.40477551850E+01  0.40940535477E+00  0.13403695289E+01  0.42835178599E+01  0.00000000000E+00 0.  1.
</event>
<event>
 7    1  0.4011333E-009  0.4778728E+02  0.7816164E-02  0.1312668E+00
        -11   -1    0    0    0    0  0.00000000000E+00  0.00000000000E+00  0.45593999997E+02  0.45594000000E+02  0.51100000000E-03 0.  1.
         11   -1    0    0    0    0 -0.00000000000E+00 -0.00000000000E+00 -0.45593999997E+02  0.45594000000E+02  0.51100000000E-03 0. -1.
    9900012    2    1    2    0    0  0.57802089039E+00 -0.14579748461E+02 -0.40874438002E+02  0.47787275866E+02  0.20000021984E+02 0.  0.
        -12    1    1    2    0    0 -0.57802089039E+00  0.14579748461E+02  0.40874438002E+02  0.43400724134E+02  0.00000000000E+00 0.  1.
         11    1    3    3    0    0 -0.51416583643E+01 -0.95058771756E+01 -0.28719864305E+02  0.30685973304E+02  0.51100000000E-03 0. -1.
        -11    1    3    3    0    0  0.36562242609E+01 -0.62742378286E+01 -0.12721025537E+02  0.14647816464E+02  0.51100000000E-03 0.  1.
        -12    1    3    3    0    0  0.20634549938E+01  0.12003665437E+01  0.56645184002E+00  0.24534860990E+01  0.00000000000E+00 0.  1.
</event>
<event>
 7    1  0.4411190E-009  0.4778727E+02  0.7816164E-02  0.1312668E+00
        -11   -1    0    0    0    0  0.00000000000E+00  0.00000000000E+00  0.45593999997E+02  0.45594000000E+02  0.51100000000E-03 0. -1.
         11   -1    0    0    0    0 -0.00000000000E+00 -0.00000000000E+00 -0.45593999997E+02  0.45594000000E+02  0.51100000000E-03 0.  1.
    9900012    2    1    2    0    0 -0.31697134271E+02 -0.13434610442E+02  0.26427760728E+02  0.47787267106E+02  0.19999982041E+02 0.  0.
        -12    1    1    2    0    0  0.31697134271E+02  0.13434610442E+02 -0.26427760728E+02  0.43400732894E+02  0.00000000000E+00 0.  1.
         11    1    3    3    0    0 -0.17301536733E+02 -0.87483216389E+01  0.16610949564E+02  0.25530373097E+02  0.51100000000E-03 0. -1.
        -11    1    3    3    0    0 -0.30423383514E+01 -0.72564418155E+01  0.63499325707E+01  0.10111054069E+02  0.51100000000E-03 0.  1.
        -12    1    3    3    0    0 -0.11353259187E+02  0.25701530125E+01  0.34668785934E+01  0.12145839940E+02  0.00000000000E+00 0.  1.
</event>
<event>
 7    1  0.4281235E-009  0.4778727E+02  0.7816164E-02  0.1312668E+00
        -11   -1    0    0    0    0  0.00000000000E+00  0.00000000000E+00  0.45593999997E+02  0.45594000000E+02  0.51100000000E-03 0.  1.
         11   -1    0    0    0    0 -0.00000000000E+00 -0.00000000000E+00 -0.45593999997E+02  0.45594000000E+02  0.51100000000E-03 0. -1.
    9900012    2    1    2    0    0  0.15582654929E+01  0.41805106481E+02 -0.11555441099E+02  0.47787270303E+02  0.19999996620E+02 0.  0.
        -12    1    1    2    0    0 -0.15582654929E+01 -0.41805106481E+02  0.11555441099E+02  0.43400729697E+02  0.00000000000E+00 0.  1.
         11    1    3    3    0    0  0.25399329670E+01  0.23730062748E+02 -0.40831533472E+01  0.24212378632E+02  0.51100000000E-03 0.  1.
        -11    1    3    3    0    0 -0.22812894495E+01  0.12265636226E+02  0.17500327531E+01  0.12598124007E+02  0.51100000000E-03 0. -1.
        -12    1    3    3    0    0  0.12996219754E+01  0.58094075067E+01 -0.92223205054E+01  0.10976767665E+02  0.00000000000E+00 0.  1.
</event>
<event>
 7    1  0.4011333E-009  0.4778727E+02  0.7816164E-02  0.1312668E+00
        -11   -1    0    0    0    0  0.00000000000E+00  0.00000000000E+00  0.45593999997E+02  0.45594000000E+02  0.51100000000E-03 0.  1.
         11   -1    0    0    0    0 -0.00000000000E+00 -0.00000000000E+00 -0.45593999997E+02  0.45594000000E+02  0.51100000000E-03 0. -1.
    9900012    2    1    2    0    0  0.18069388281E+02  0.36827817112E+02 -0.14171548729E+02  0.47787266142E+02  0.19999977647E+02 0.  0.
        -12    1    1    2    0    0 -0.18069388281E+02 -0.36827817112E+02  0.14171548729E+02  0.43400733858E+02  0.00000000000E+00 0.  1.
         11    1    3    3    0    0 -0.13854915964E+01  0.49547381433E+01 -0.88055325981E+00  0.52196160143E+01  0.51100000000E-03 0. -1.
        -11    1    3    3    0    0  0.95648955657E+01  0.35787879832E+01 -0.54968955529E+01  0.11597879616E+02  0.51100000000E-03 0.  1.
         12    1    3    3    0    0  0.98899843114E+01  0.28294290985E+02 -0.77940999165E+01  0.30969770511E+02  0.00000000000E+00 0. -1.
</event>
<event>
 7    1  0.4011333E-009  0.4778726E+02  0.7816164E-02  0.1312668E+00
        -11   -1    0    0    0    0  0.00000000000E+00  0.00000000000E+00  0.45593999997E+02  0.45594000000E+02  0.51100000000E-03 0.  1.
         11   -1    0    0    0    0 -0.00000000000E+00 -0.00000000000E+00 -0.45593999997E+02  0.45594000000E+02  0.51100000000E-03 0. -1.
    9900012    2    1    2    0    0  0.60529238788E+01  0.33545556811E+02 -0.26864141241E+02  0.47787258602E+02  0.19999943272E+02 0.  0.
        -12    1    1    2    0    0 -0.60529238788E+01 -0.33545556811E+02  0.26864141241E+02  0.43400741398E+02  0.00000000000E+00 0.  1.
         11    1    3    3    0    0 -0.31199749989E+01  0.11027007461E+02 -0.10267740694E+02  0.15386865723E+02  0.51100000000E-03 0. -1.
        -11    1    3    3    0    0 -0.70528015694E+00 -0.96778867134E+00 -0.36083319055E+01  0.38018540757E+01  0.51100000000E-03 0.  1.
        -12    1    3    3    0    0  0.98781790347E+01  0.23486338021E+02 -0.12988068641E+02  0.28598538804E+02  0.00000000000E+00 0.  1.
</event>
<event>
 7    1  0.4011333E-009  0.4778727E+02  0.7816164E-02  0.1312668E+00
        -11   -1    0    0    0    0  0.00000000000E+00  0.00000000000E+00  0.45593999997E+02  0.45594000000E+02  0.51100000000E-03 0. -1.
         11   -1    0    0    0    0 -0.00000000000E+00 -0.00000000000E+00 -0.45593999997E+02  0.45594000000E+02  0.51100000000E-03 0.  1.
    9900012    2    1    2    0    0  0.19280174173E+02  0.25625628269E+02  0.29244237062E+02  0.47787270263E+02  0.19999996439E+02 0.  0.
        -12    1    1    2    0    0 -0.19280174173E+02 -0.25625628269E+02 -0.29244237062E+02  0.43400729737E+02  0.00000000000E+00 0.  1.
         11    1    3    3    0    0  0.69516445658E+01  0.20156405527E+00  0.63311506527E+01  0.94047572582E+01  0.51100000000E-03 0. -1.
        -11    1    3    3    0    0  0.66795889766E+01  0.98874440504E+01  0.26352192901E+01  0.12219772490E+02  0.51100000000E-03 0.  1.
         12    1    3    3    0    0  0.56489406308E+01  0.15536620163E+02  0.20277867119E+02  0.26162740515E+02  0.00000000000E+00 0. -1.
</event>
<event>
 7    1  0.4011333E-009  0.4778724E+02  0.7816164E-02  0.1312668E+00
        -11   -1    0    0    0    0  0.00000000000E+00  0.00000000000E+00  0.45593999997E+02  0.45594000000E+02  0.51100000000E-03 0.  1.
         11   -1    0    0    0    0 -0.00000000000E+00 -0.00000000000E+00 -0.45593999997E+02  0.45594000000E+02  0.51100000000E-03 0. -1.
    9900012    2    1    2    0    0 -0.18784110297E+02  0.86983293009E+01 -0.38146065128E+02  0.47787239442E+02  0.19999855911E+02 0.  0.
        -12    1    1    2    0    0  0.18784110297E+02 -0.86983293009E+01  0.38146065128E+02  0.43400760558E+02  0.00000000000E+00 0.  1.
         11    1    3    3    0    0 -0.53175593507E+00 -0.47440027399E+00 -0.39992327668E+01  0.40622263574E+01  0.51100000000E-03 0. -1.
        -11    1    3    3    0    0  0.69880383605E+00  0.83090680925E+01 -0.10630907627E+02  0.13510926564E+02  0.51100000000E-03 0.  1.
         12    1    3    3    0    0 -0.18951158198E+02  0.86366148241E+00 -0.23515924734E+02  0.30214086521E+02  0.00000000000E+00 0. -1.
</event>
<event>
 7    1  0.4011333E-009  0.4778727E+02  0.7816164E-02  0.1312668E+00
        -11   -1    0    0    0    0  0.00000000000E+00  0.00000000000E+00  0.45593999997E+02  0.45594000000E+02  0.51100000000E-03 0.  1.
         11   -1    0    0    0    0 -0.00000000000E+00 -0.00000000000E+00 -0.45593999997E+02  0.45594000000E+02  0.51100000000E-03 0. -1.
    9900012    2    1    2    0    0 -0.76781389165E+00 -0.27223087891E+02 -0.33792560561E+02  0.47787271875E+02  0.20000003788E+02 0.  0.
        -12    1    1    2    0    0  0.76781389165E+00  0.27223087891E+02  0.33792560561E+02  0.43400728125E+02  0.00000000000E+00 0.  1.
         11    1    3    3    0    0  0.23594753838E+01 -0.11824755867E+02 -0.39214859506E+01  0.12679512125E+02  0.51100000000E-03 0. -1.
        -11    1    3    3    0    0 -0.48954925205E+01 -0.71277215792E+01 -0.85051287180E+01  0.12128787108E+02  0.51100000000E-03 0.  1.
         12    1    3    3    0    0  0.17682032451E+01 -0.82706104450E+01 -0.21365945892E+02  0.22978972643E+02  0.00000000000E+00 0. -1.
</event>
<event>
 7    1  0.4011333E-009  0.4778727E+02  0.7816164E-02  0.1312668E+00
        -11   -1    0    0    0    0  0.00000000000E+00  0.00000000000E+00  0.45593999997E+02  0.45594000000E+02  0.51100000000E-03 0.  1.
         11   -1    0    0    0    0 -0.00000000000E+00 -0.00000000000E+00 -0.45593999997E+02  0.45594000000E+02  0.51100000000E-03 0. -1.
    9900012    2    1    2    0    0 -0.82820913468E+01 -0.18847839428E+02 -0.38207185520E+02  0.47787272892E+02  0.20000008423E+02 0.  0.
        -12    1    1    2    0    0  0.82820913468E+01  0.18847839428E+02  0.38207185520E+02  0.43400727108E+02  0.00000000000E+00 0.  1.
         11    1    3    3    0    0 -0.75760340464E+01  0.13521310427E+01 -0.87155122803E+01  0.11626895751E+02  0.51100000000E-03 0. -1.
        -11    1    3    3    0    0 -0.30042308421E+01 -0.12785229207E+02 -0.17624802738E+02  0.21980017303E+02  0.51100000000E-03 0.  1.
        -12    1    3    3    0    0  0.22981735417E+01 -0.74147412636E+01 -0.11866870501E+02  0.14180359838E+02  0.00000000000E+00 0.  1.
</event>
<event>
 7    1  0.4011333E-009  0.4778727E+02  0.7816164E-02  0.1312668E+00
        -11   -1    0    0    0    0  0.00000000000E+00  0.00000000000E+00  0.45593999997E+02  0.45594000000E+02  0.51100000000E-03 0.  1.
         11   -1    0    0    0    0 -0.00000000000E+00 -0.00000000000E+00 -0.45593999997E+02  0.45594000000E+02  0.51100000000E-03 0. -1.
    9900012    2    1    2    0    0 -0.39662033097E+01 -0.54894768573E+01 -0.42869081106E+02  0.47787271438E+02  0.20000001793E+02 0.  0.
        -12    1    1    2    0    0  0.39662033097E+01  0.54894768573E+01  0.42869081106E+02  0.43400728562E+02  0.00000000000E+00 0.  1.
         11    1    3    3    0    0 -0.40320077271E+01  0.19042247681E+00 -0.17980195512E+02  0.18427717654E+02  0.51100000000E-03 0. -1.
        -11    1    3    3    0    0 -0.12893013238E+01 -0.85057598852E+01 -0.24772093819E+02  0.26223403318E+02  0.51100000000E-03 0.  1.
        -12    1    3    3    0    0  0.13551057412E+01  0.28258605511E+01 -0.11679177500E+00  0.31361504656E+01  0.00000000000E+00 0.  1.
</event>
<event>
 7    1  0.4011333E-009  0.4778727E+02  0.7816164E-02  0.1312668E+00
        -11   -1    0    0    0    0  0.00000000000E+00  0.00000000000E+00  0.45593999997E+02  0.45594000000E+02  0.51100000000E-03 0.  1.
         11   -1    0    0    0    0 -0.00000000000E+00 -0.00000000000E+00 -0.45593999997E+02  0.45594000000E+02  0.51100000000E-03 0. -1.
    9900012    2    1    2    0    0 -0.11276060127E+02 -0.31002129399E+02 -0.28201801207E+02  0.47787272465E+02  0.20000006477E+02 0.  0.
        -12    1    1    2    0    0  0.11276060127E+02  0.31002129399E+02  0.28201801207E+02  0.43400727535E+02  0.00000000000E+00 0.  1.
         11    1    3    3    0    0 -0.29537629236E+01 -0.66815824039E+01  0.33401968915E-01  0.73054346059E+01  0.51100000000E-03 0. -1.
        -11    1    3    3    0    0 -0.10783985968E+02 -0.13011135617E+02 -0.20468530856E+02  0.26543262028E+02  0.51100000000E-03 0.  1.
         12    1    3    3    0    0  0.24616887646E+01 -0.11309411378E+02 -0.77666723198E+01  0.13938575831E+02  0.00000000000E+00 0. -1.
</event>
<event>
 7    1  0.4011333E-009  0.4778727E+02  0.7816164E-02  0.1312668E+00
        -11   -1    0    0    0    0  0.00000000000E+00  0.00000000000E+00  0.45593999997E+02  0.45594000000E+02  0.51100000000E-03 0.  1.
         11   -1    0    0    0    0 -0.00000000000E+00 -0.00000000000E+00 -0.45593999997E+02  0.45594000000E+02  0.51100000000E-03 0. -1.
    9900012    2    1    2    0    0  0.39360412912E+02  0.29003795751E+01 -0.18054614646E+02  0.47787269403E+02  0.19999992518E+02 0.  0.
        -12    1    1    2    0    0 -0.39360412912E+02 -0.29003795751E+01  0.18054614646E+02  0.43400730597E+02  0.00000000000E+00 0.  1.
         11    1    3    3    0    0  0.35204184511E+02  0.31384048416E+01 -0.97284947776E+01  0.36658256954E+02  0.51100000000E-03 0. -1.
        -11    1    3    3    0    0  0.46590978076E+01 -0.16514902546E+01 -0.34518552512E+01  0.60290892661E+01  0.51100000000E-03 0.  1.
        -12    1    3    3    0    0 -0.50286940652E+00  0.14134649881E+01 -0.48742646173E+01  0.50999231829E+01  0.00000000000E+00 0.  1.
</event>
<event>
 7    1  0.4011333E-009  0.4778727E+02  0.7816164E-02  0.1312668E+00
        -11   -1    0    0    0    0  0.00000000000E+00  0.00000000000E+00  0.45593999997E+02  0.45594000000E+02  0.51100000000E-03 0.  1.
         11   -1    0    0    0    0 -0.00000000000E+00 -0.00000000000E+00 -0.45593999997E+02  0.45594000000E+02  0.51100000000E-03 0. -1.
    9900012    2    1    2    0    0 -0.24271677013E+02  0.28636532742E+02  0.21782054057E+02  0.47787271994E+02  0.20000004331E+02 0.  0.
        -12    1    1    2    0    0  0.24271677013E+02 -0.28636532742E+02 -0.21782054057E+02  0.43400728006E+02  0.00000000000E+00 0.  1.
         11    1    3    3    0    0 -0.42591472365E+01  0.10971809661E+02  0.78071468152E+01  0.14123472805E+02  0.51100000000E-03 0. -1.
        -11    1    3    3    0    0  0.35944511683E+00  0.81188730724E+01  0.38621830560E+01  0.89978752479E+01  0.51100000000E-03 0.  1.
         12    1    3    3    0    0 -0.20371974893E+02  0.95458500088E+01  0.10112724186E+02  0.24665923942E+02  0.00000000000E+00 0. -1.
</event>
<event>
 7    1  0.4011333E-009  0.4778727E+02  0.7816164E-02  0.1312668E+00
        -11   -1    0    0    0    0  0.00000000000E+00  0.00000000000E+00  0.45593999997E+02  0.45594000000E+02  0.51100000000E-03 0. -1.
         11   -1    0    0    0    0 -0.00000000000E+00 -0.00000000000E+00 -0.45593999997E+02  0.45594000000E+02  0.51100000000E-03 0.  1.
    9900012    2    1    2    0    0  0.19707119511E+01  0.36001709638E+02  0.24158154692E+02  0.47787271428E+02  0.20000001750E+02 0.  0.
        -12    1    1    2    0    0 -0.19707119511E+01 -0.36001709638E+02 -0.24158154692E+02  0.43400728572E+02  0.00000000000E+00 0.  1.
         11    1    3    3    0    0 -0.87211537404E+00  0.38313487766E+01 -0.21820901647E+01  0.44945896833E+01  0.51100000000E-03 0. -1.
        -11    1    3    3    0    0 -0.21705731672E+01  0.33829288024E+01  0.10214040644E+00  0.40206999490E+01  0.51100000000E-03 0.  1.
         12    1    3    3    0    0  0.50134004924E+01  0.28787432059E+02  0.26238104451E+02  0.39271981796E+02  0.00000000000E+00 0. -1.
</event>
<event>
 7    1  0.4011333E-009  0.4778729E+02  0.7816164E-02  0.1312668E+00
        -11   -1    0    0    0    0  0.00000000000E+00  0.00000000000E+00  0.45593999997E+02  0.45594000000E+02  0.51100000000E-03 0. -1.
         11   -1    0    0    0    0 -0.00000000000E+00 -0.00000000000E+00 -0.45593999997E+02  0.45594000000E+02  0.51100000000E-03 0.  1.
    9900012    2    1    2    0    0 -0.15538262686E+02  0.11022866174E+02  0.38995902194E+02  0.47787290629E+02  0.20000089294E+02 0.  0.
        -12    1    1    2    0    0  0.15538262686E+02 -0.11022866174E+02 -0.38995902194E+02  0.43400709371E+02  0.00000000000E+00 0.  1.
         11    1    3    3    0    0 -0.35611029420E+01  0.98416769946E+01  0.14362661571E+02  0.17771497064E+02  0.51100000000E-03 0. -1.
        -11    1    3    3    0    0  0.23330277005E+01  0.16029687359E+01  0.43046480434E+01  0.51519435224E+01  0.51100000000E-03 0.  1.
         12    1    3    3    0    0 -0.14310187444E+02 -0.42177955610E+00  0.20328592580E+02  0.24863850043E+02  0.00000000000E+00 0. -1.
</event>
<event>
 7    1  0.4011333E-009  0.4778727E+02  0.7816164E-02  0.1312668E+00
        -11   -1    0    0    0    0  0.00000000000E+00  0.00000000000E+00  0.45593999997E+02  0.45594000000E+02  0.51100000000E-03 0.  1.
         11   -1    0    0    0    0 -0.00000000000E+00 -0.00000000000E+00 -0.45593999997E+02  0.45594000000E+02  0.51100000000E-03 0. -1.
    9900012    2    1    2    0    0  0.35610753788E+01 -0.35921539994E+02 -0.24095336374E+02  0.47787268113E+02  0.19999986633E+02 0.  0.
        -12    1    1    2    0    0 -0.35610753788E+01  0.35921539994E+02  0.24095336374E+02  0.43400731887E+02  0.00000000000E+00 0.  1.
         11    1    3    3    0    0  0.28946773360E+01 -0.15369902907E+01 -0.45708051551E+01  0.56243893944E+01  0.51100000000E-03 0.  1.
        -11    1    3    3    0    0 -0.22552872788E+01 -0.42351789550E+01 -0.88122095345E+01  0.10033847648E+02  0.51100000000E-03 0. -1.
        -12    1    3    3    0    0  0.29216853217E+01 -0.30149370748E+02 -0.10712321684E+02  0.32129031070E+02  0.00000000000E+00 0.  1.
</event>
<event>
 7    1  0.4011333E-009  0.4778724E+02  0.7816164E-02  0.1312668E+00
        -11   -1    0    0    0    0  0.00000000000E+00  0.00000000000E+00  0.45593999997E+02  0.45594000000E+02  0.51100000000E-03 0. -1.
         11   -1    0    0    0    0 -0.00000000000E+00 -0.00000000000E+00 -0.45593999997E+02  0.45594000000E+02  0.51100000000E-03 0.  1.
    9900012    2    1    2    0    0 -0.29385043688E+02 -0.31189482032E+02 -0.68819551322E+01  0.47787240923E+02  0.19999862666E+02 0.  0.
        -12    1    1    2    0    0  0.29385043688E+02  0.31189482032E+02  0.68819551322E+01  0.43400759077E+02  0.00000000000E+00 0.  1.
         11    1    3    3    0    0 -0.28221772185E+01 -0.11878627567E+00 -0.13941076930E+00  0.28281142225E+01  0.51100000000E-03 0. -1.
        -11    1    3    3    0    0 -0.30868827823E+01 -0.14106953860E+02 -0.68783409230E+01  0.15995204489E+02  0.51100000000E-03 0.  1.
        -12    1    3    3    0    0 -0.23475983687E+02 -0.16963741896E+02  0.13579656013E+00  0.28963922212E+02  0.00000000000E+00 0.  1.
</event>
<event>
 7    1  0.4011333E-009  0.4778727E+02  0.7816164E-02  0.1312668E+00
        -11   -1    0    0    0    0  0.00000000000E+00  0.00000000000E+00  0.45593999997E+02  0.45594000000E+02  0.51100000000E-03 0. -1.
         11   -1    0    0    0    0 -0.00000000000E+00 -0.00000000000E+00 -0.45593999997E+02  0.45594000000E+02  0.51100000000E-03 0.  1.
    9900012    2    1    2    0    0 -0.49326247994E+01  0.26745216850E+02  0.33822857729E+02  0.47787272855E+02  0.20000008255E+02 0.  0.
        -12    1    1    2    0    0  0.49326247994E+01 -0.26745216850E+02 -0.33822857729E+02  0.43400727145E+02  0.00000000000E+00 0.  1.
         11    1    3    3    0    0 -0.49334534379E+01  0.59444855909E+01  0.97549243922E+01  0.12443248046E+02  0.51100000000E-03 0. -1.
        -11    1    3    3    0    0 -0.40447509745E+01  0.72138583397E+01  0.10859488014E+01  0.83414056160E+01  0.51100000000E-03 0.  1.
         12    1    3    3    0    0  0.40455796130E+01  0.13586872920E+02  0.22981984535E+02  0.27002619193E+02  0.00000000000E+00 0. -1.
</event>
<event>
 7    1  0.4011333E-009  0.4778728E+02  0.7816164E-02  0.1312668E+00
        -11   -1    0    0    0    0  0.00000000000E+00  0.00000000000E+00  0.45593999997E+02  0.45594000000E+02  0.51100000000E-03 0. -1.
         11   -1    0    0    0    0 -0.00000000000E+00 -0.00000000000E+00 -0.45593999997E+02  0.45594000000E+02  0.51100000000E-03 0.  1.
    9900012    2    1    2    0    0 -0.10326162352E+02  0.25286907489E+02  0.33727815126E+02  0.47787276130E+02  0.20000023187E+02 0.  0.
        -12    1    1    2    0    0  0.10326162352E+02 -0.25286907489E+02 -0.33727815126E+02  0.43400723870E+02  0.00000000000E+00 0.  1.
         11    1    3    3    0    0  0.17254132025E+01  0.54953095129E+01  0.38793329140E+01  0.69444007287E+01  0.51100000000E-03 0. -1.
        -11    1    3    3    0    0 -0.50025447866E+01 -0.15674286106E+01  0.41093291676E+01  0.66609964164E+01  0.51100000000E-03 0.  1.
        -12    1    3    3    0    0 -0.70490307681E+01  0.21359026587E+02  0.25739153044E+02  0.34181878985E+02  0.00000000000E+00 0.  1.
</event>
<event>
 7    1  0.4011333E-009  0.4778728E+02  0.7816164E-02  0.1312668E+00
        -11   -1    0    0    0    0  0.00000000000E+00  0.00000000000E+00  0.45593999997E+02  0.45594000000E+02  0.51100000000E-03 0. -1.
         11   -1    0    0    0    0 -0.00000000000E+00 -0.00000000000E+00 -0.45593999997E+02  0.45594000000E+02  0.51100000000E-03 0.  1.
    9900012    2    1    2    0    0  0.41224325937E+02 -0.86468361369E+01  0.10459918630E+02  0.47787277404E+02  0.20000028994E+02 0.  0.
        -12    1    1    2    0    0 -0.41224325937E+02  0.86468361369E+01 -0.10459918630E+02  0.43400722596E+02  0.00000000000E+00 0.  1.
         11    1    3    3    0    0  0.10381666451E+02  0.13041966244E+01  0.89772829680E+01  0.13786643424E+02  0.51100000000E-03 0.  1.
        -11    1    3    3    0    0  0.19193934843E+02 -0.69748568402E+01  0.57941911757E+01  0.21228010136E+02  0.51100000000E-03 0. -1.
        -12    1    3    3    0    0  0.11648724642E+02 -0.29761759211E+01 -0.43115555134E+01  0.12772623844E+02  0.00000000000E+00 0.  1.
</event>
<event>
 7    1  0.4011333E-009  0.4778727E+02  0.7816164E-02  0.1312668E+00
        -11   -1    0    0    0    0  0.00000000000E+00  0.00000000000E+00  0.45593999997E+02  0.45594000000E+02  0.51100000000E-03 0. -1.
         11   -1    0    0    0    0 -0.00000000000E+00 -0.00000000000E+00 -0.45593999997E+02  0.45594000000E+02  0.51100000000E-03 0.  1.
    9900012    2    1    2    0    0  0.37062360921E+02 -0.50037626859E+01  0.22021971341E+02  0.47787268902E+02  0.19999990233E+02 0.  0.
        -12    1    1    2    0    0 -0.37062360921E+02  0.50037626859E+01 -0.22021971341E+02  0.43400731098E+02  0.00000000000E+00 0.  1.
         11    1    3    3    0    0  0.12610331782E+02 -0.76150412958E+01  0.72892848766E+01  0.16436027375E+02  0.51100000000E-03 0. -1.
        -11    1    3    3    0    0  0.48087845579E+01  0.60366150925E+01  0.46000448148E+01  0.89847394653E+01  0.51100000000E-03 0.  1.
         12    1    3    3    0    0  0.19643244582E+02 -0.34253364826E+01  0.10132641649E+02  0.22366502062E+02  0.00000000000E+00 0. -1.
</event>
<event>
 7    1  0.4011333E-009  0.4778728E+02  0.7816164E-02  0.1312668E+00
        -11   -1    0    0    0    0  0.00000000000E+00  0.00000000000E+00  0.45593999997E+02  0.45594000000E+02  0.51100000000E-03 0.  1.
         11   -1    0    0    0    0 -0.00000000000E+00 -0.00000000000E+00 -0.45593999997E+02  0.45594000000E+02  0.51100000000E-03 0. -1.
    9900012    2    1    2    0    0  0.23908714612E+01 -0.38780397099E+01 -0.43160942811E+02  0.47787280620E+02  0.20000043661E+02 0.  0.
        -12    1    1    2    0    0 -0.23908714612E+01  0.38780397099E+01  0.43160942811E+02  0.43400719380E+02  0.00000000000E+00 0.  1.
         11    1    3    3    0    0  0.44337782761E+01 -0.97581048376E+00 -0.10445431379E+02  0.11389364901E+02  0.51100000000E-03 0. -1.
        -11    1    3    3    0    0  0.33874823723E+01 -0.75945382236E+01 -0.13161570274E+02  0.15568525299E+02  0.51100000000E-03 0.  1.
        -12    1    3    3    0    0 -0.54303891873E+01  0.46923089974E+01 -0.19553941158E+02  0.20829390420E+02  0.00000000000E+00 0.  1.
</event>
<event>
 7    1  0.4011333E-009  0.4778728E+02  0.7816164E-02  0.1312668E+00
        -11   -1    0    0    0    0  0.00000000000E+00  0.00000000000E+00  0.45593999997E+02  0.45594000000E+02  0.51100000000E-03 0. -1.
         11   -1    0    0    0    0 -0.00000000000E+00 -0.00000000000E+00 -0.45593999997E+02  0.45594000000E+02  0.51100000000E-03 0.  1.
    9900012    2    1    2    0    0  0.51340527653E+00  0.16356747277E+02  0.40197213034E+02  0.47787277631E+02  0.20000030030E+02 0.  0.
        -12    1    1    2    0    0 -0.51340527653E+00 -0.16356747277E+02 -0.40197213034E+02  0.43400722369E+02  0.00000000000E+00 0.  1.
         11    1    3    3    0    0 -0.24416439820E+01  0.10047716873E+02  0.20019253967E+02  0.22531949968E+02  0.51100000000E-03 0.  1.
        -11    1    3    3    0    0 -0.42750742384E+01  0.38237680324E+01  0.30446833731E+01  0.64936552737E+01  0.51100000000E-03 0. -1.
         12    1    3    3    0    0  0.72301234969E+01  0.24852623710E+01  0.17133275694E+02  0.18761672389E+02  0.00000000000E+00 0. -1.
</event>
<event>
 7    1  0.4011333E-009  0.4778727E+02  0.7816164E-02  0.1312668E+00
        -11   -1    0    0    0    0  0.00000000000E+00  0.00000000000E+00  0.45593999997E+02  0.45594000000E+02  0.51100000000E-03 0.  1.
         11   -1    0    0    0    0 -0.00000000000E+00 -0.00000000000E+00 -0.45593999997E+02  0.45594000000E+02  0.51100000000E-03 0. -1.
    9900012    2    1    2    0    0  0.30195745213E+02  0.28826071363E+02 -0.11870039198E+02  0.47787271322E+02  0.20000001266E+02 0.  0.
        -12    1    1    2    0    0 -0.30195745213E+02 -0.28826071363E+02  0.11870039198E+02  0.43400728678E+02  0.00000000000E+00 0.  1.
         11    1    3    3    0    0  0.54054057515E+01  0.10888811148E+02 -0.17828482048E+01  0.12286706944E+02  0.51100000000E-03 0. -1.
        -11    1    3    3    0    0  0.36717155834E+00  0.25378847890E+00  0.27084883130E+01  0.27450196261E+01  0.51100000000E-03 0.  1.
        -12    1    3    3    0    0  0.24423167903E+02  0.17683471736E+02 -0.12795679306E+02  0.32755544752E+02  0.00000000000E+00 0.  1.
</event>
<event>
 7    1  0.4011333E-009  0.4778727E+02  0.7816164E-02  0.1312668E+00
        -11   -1    0    0    0    0  0.00000000000E+00  0.00000000000E+00  0.45593999997E+02  0.45594000000E+02  0.51100000000E-03 0.  1.
         11   -1    0    0    0    0 -0.00000000000E+00 -0.00000000000E+00 -0.45593999997E+02  0.45594000000E+02  0.51100000000E-03 0. -1.
    9900012    2    1    2    0    0 -0.10445739117E+01 -0.11436897032E+02 -0.41853665556E+02  0.47787273407E+02  0.20000010770E+02 0.  0.
        -12    1    1    2    0    0  0.10445739117E+01  0.11436897032E+02  0.41853665556E+02  0.43400726593E+02  0.00000000000E+00 0.  1.
         11    1    3    3    0    0  0.24218179276E+01  0.20348266237E+01 -0.18580444650E+02  0.18847775601E+02  0.51100000000E-03 0. -1.
        -11    1    3    3    0    0 -0.16091779232E+00  0.14118277700E+01 -0.47000923281E+01  0.49101955503E+01  0.51100000000E-03 0.  1.
        -12    1    3    3    0    0 -0.33054740469E+01 -0.14883551425E+02 -0.18573128578E+02  0.24029302256E+02  0.00000000000E+00 0.  1.
</event>
<event>
 7    1  0.4011333E-009  0.4778727E+02  0.7816164E-02  0.1312668E+00
        -11   -1    0    0    0    0  0.00000000000E+00  0.00000000000E+00  0.45593999997E+02  0.45594000000E+02  0.51100000000E-03 0.  1.
         11   -1    0    0    0    0 -0.00000000000E+00 -0.00000000000E+00 -0.45593999997E+02  0.45594000000E+02  0.51100000000E-03 0. -1.
    9900012    2    1    2    0    0  0.15020496904E+02 -0.17155344529E+02 -0.36928337246E+02  0.47787271148E+02  0.20000000473E+02 0.  0.
        -12    1    1    2    0    0 -0.15020496904E+02  0.17155344529E+02  0.36928337246E+02  0.43400728852E+02  0.00000000000E+00 0.  1.
         11    1    3    3    0    0  0.23486081465E+01 -0.44831384205E+01 -0.15279366057E+02  0.16095760861E+02  0.51100000000E-03 0. -1.
        -11    1    3    3    0    0  0.58635677971E+01 -0.25122320248E+01 -0.17739571992E+02  0.18851661778E+02  0.51100000000E-03 0.  1.
        -12    1    3    3    0    0  0.68083209600E+01 -0.10159974084E+02 -0.39093991967E+01  0.12839848510E+02  0.00000000000E+00 0.  1.
</event>
<event>
 7    1  0.4011333E-009  0.4778728E+02  0.7816164E-02  0.1312668E+00
        -11   -1    0    0    0    0  0.00000000000E+00  0.00000000000E+00  0.45593999997E+02  0.45594000000E+02  0.51100000000E-03 0.  1.
         11   -1    0    0    0    0 -0.00000000000E+00 -0.00000000000E+00 -0.45593999997E+02  0.45594000000E+02  0.51100000000E-03 0. -1.
    9900012    2    1    2    0    0 -0.30092272597E+01 -0.21986088873E+02 -0.37298514041E+02  0.47787277629E+02  0.20000030021E+02 0.  0.
        -12    1    1    2    0    0  0.30092272597E+01  0.21986088873E+02  0.37298514041E+02  0.43400722371E+02  0.00000000000E+00 0.  1.
         11    1    3    3    0    0  0.13291493138E+01 -0.12167156534E+01  0.11686687049E+01  0.21477480492E+01  0.51100000000E-03 0. -1.
        -11    1    3    3    0    0 -0.24415070875E+01 -0.76182029906E+01 -0.45288885162E+01  0.91928670782E+01  0.51100000000E-03 0.  1.
        -12    1    3    3    0    0 -0.18968694861E+01 -0.13151170229E+02 -0.33938294230E+02  0.36446662501E+02  0.00000000000E+00 0.  1.
</event>
<event>
 7    1  0.4011333E-009  0.4778727E+02  0.7816164E-02  0.1312668E+00
        -11   -1    0    0    0    0  0.00000000000E+00  0.00000000000E+00  0.45593999997E+02  0.45594000000E+02  0.51100000000E-03 0. -1.
         11   -1    0    0    0    0 -0.00000000000E+00 -0.00000000000E+00 -0.45593999997E+02  0.45594000000E+02  0.51100000000E-03 0.  1.
    9900012    2    1    2    0    0  0.17390589743E+02 -0.28995920453E+02  0.27210797940E+02  0.47787267989E+02  0.19999986069E+02 0.  0.
        -12    1    1    2    0    0 -0.17390589743E+02  0.28995920453E+02 -0.27210797940E+02  0.43400732011E+02  0.00000000000E+00 0.  1.
         11    1    3    3    0    0  0.16323607699E+01 -0.12882606457E+01 -0.51498192826E+00  0.21422940559E+01  0.51100000000E-03 0. -1.
        -11    1    3    3    0    0 -0.13672310355E+01  0.10242846044E+01 -0.60339825710E+00  0.18117862382E+01  0.51100000000E-03 0.  1.
         12    1    3    3    0    0  0.17125460009E+02 -0.28731944412E+02  0.28329178126E+02  0.43833187695E+02  0.00000000000E+00 0. -1.
</event>
<event>
 7    1  0.4011333E-009  0.4778727E+02  0.7816164E-02  0.1312668E+00
        -11   -1    0    0    0    0  0.00000000000E+00  0.00000000000E+00  0.45593999997E+02  0.45594000000E+02  0.51100000000E-03 0. -1.
         11   -1    0    0    0    0 -0.00000000000E+00 -0.00000000000E+00 -0.45593999997E+02  0.45594000000E+02  0.51100000000E-03 0.  1.
    9900012    2    1    2    0    0 -0.76467831420E+01  0.27971373666E+02  0.32291673697E+02  0.47787271580E+02  0.20000002444E+02 0.  0.
        -12    1    1    2    0    0  0.76467831420E+01 -0.27971373666E+02 -0.32291673697E+02  0.43400728420E+02  0.00000000000E+00 0.  1.
         11    1    3    3    0    0 -0.18943663138E+01  0.11738715008E+01 -0.39232616977E+00  0.22628561854E+01  0.51100000000E-03 0.  1.
        -11    1    3    3    0    0 -0.77126269756E+01  0.37921578942E+01  0.92751658956E+01  0.12644911190E+02  0.51100000000E-03 0. -1.
         12    1    3    3    0    0  0.19602101473E+01  0.23005344271E+02  0.23408833972E+02  0.32879504205E+02  0.00000000000E+00 0. -1.
</event>
<event>
 7    1  0.4011333E-009  0.4778723E+02  0.7816164E-02  0.1312668E+00
        -11   -1    0    0    0    0  0.00000000000E+00  0.00000000000E+00  0.45593999997E+02  0.45594000000E+02  0.51100000000E-03 0. -1.
         11   -1    0    0    0    0 -0.00000000000E+00 -0.00000000000E+00 -0.45593999997E+02  0.45594000000E+02  0.51100000000E-03 0.  1.
    9900012    2    1    2    0    0 -0.18591939004E+02  0.37125723840E+02  0.12635174703E+02  0.47787225740E+02  0.19999793439E+02 0.  0.
        -12    1    1    2    0    0  0.18591939004E+02 -0.37125723840E+02 -0.12635174703E+02  0.43400774260E+02  0.00000000000E+00 0.  1.
         11    1    3    3    0    0 -0.17708718301E+01  0.88507676259E+01  0.28054662218E+01  0.94521275695E+01  0.51100000000E-03 0. -1.
        -11    1    3    3    0    0 -0.18819661265E+02  0.17732642927E+02  0.96611233367E+01  0.27603687792E+02  0.51100000000E-03 0.  1.
        -12    1    3    3    0    0  0.19985940910E+01  0.10542313287E+02  0.16858514489E+00  0.10731410379E+02  0.00000000000E+00 0.  1.
</event>
<event>
 7    1  0.4011333E-009  0.4778727E+02  0.7816164E-02  0.1312668E+00
        -11   -1    0    0    0    0  0.00000000000E+00  0.00000000000E+00  0.45593999997E+02  0.45594000000E+02  0.51100000000E-03 0.  1.
         11   -1    0    0    0    0 -0.00000000000E+00 -0.00000000000E+00 -0.45593999997E+02  0.45594000000E+02  0.51100000000E-03 0. -1.
    9900012    2    1    2    0    0  0.29623458620E+02  0.40460398428E+01 -0.31459556966E+02  0.47787268859E+02  0.19999990037E+02 0.  0.
        -12    1    1    2    0    0 -0.29623458620E+02 -0.40460398428E+01  0.31459556966E+02  0.43400731141E+02  0.00000000000E+00 0.  1.
         11    1    3    3    0    0  0.12433916546E+02  0.15543082965E+01 -0.20984200525E+02  0.24440843416E+02  0.51100000000E-03 0. -1.
        -11    1    3    3    0    0  0.13162484213E+02  0.40732432929E+01 -0.12468971144E+02  0.18582721631E+02  0.51100000000E-03 0.  1.
         12    1    3    3    0    0  0.40270578618E+01 -0.15815117466E+01  0.19936147027E+01  0.47637038121E+01  0.00000000000E+00 0. -1.
</event>
<event>
 7    1  0.4011333E-009  0.4778723E+02  0.7816164E-02  0.1312668E+00
        -11   -1    0    0    0    0  0.00000000000E+00  0.00000000000E+00  0.45593999997E+02  0.45594000000E+02  0.51100000000E-03 0. -1.
         11   -1    0    0    0    0 -0.00000000000E+00 -0.00000000000E+00 -0.45593999997E+02  0.45594000000E+02  0.51100000000E-03 0.  1.
    9900012    2    1    2    0    0 -0.37819707490E+02  0.14983019312E+02  0.15126334407E+02  0.47787226563E+02  0.19999797191E+02 0.  0.
        -12    1    1    2    0    0  0.37819707490E+02 -0.14983019312E+02 -0.15126334407E+02  0.43400773437E+02  0.00000000000E+00 0.  1.
         11    1    3    3    0    0 -0.15302956001E+02 -0.19540177872E+01  0.87049257428E+01  0.17713677775E+02  0.51100000000E-03 0. -1.
        -11    1    3    3    0    0 -0.27799832950E+01  0.44115823406E+00 -0.14595692444E+01  0.31706892544E+01  0.51100000000E-03 0.  1.
        -12    1    3    3    0    0 -0.19736768194E+02  0.16495878865E+02  0.78809779088E+01  0.26902859533E+02  0.00000000000E+00 0.  1.
</event>
<event>
 7    1  0.4011333E-009  0.4778727E+02  0.7816164E-02  0.1312668E+00
        -11   -1    0    0    0    0  0.00000000000E+00  0.00000000000E+00  0.45593999997E+02  0.45594000000E+02  0.51100000000E-03 0.  1.
         11   -1    0    0    0    0 -0.00000000000E+00 -0.00000000000E+00 -0.45593999997E+02  0.45594000000E+02  0.51100000000E-03 0. -1.
    9900012    2    1    2    0    0 -0.41438819101E+02  0.17767652569E+00 -0.12900229569E+02  0.47787271661E+02  0.20000002810E+02 0.  0.
        -12    1    1    2    0    0  0.41438819101E+02 -0.17767652569E+00  0.12900229569E+02  0.43400728339E+02  0.00000000000E+00 0.  1.
         11    1    3    3    0    0 -0.31858015441E+02  0.47918819792E+01 -0.16569569298E+02  0.36227695313E+02  0.51100000000E-03 0. -1.
        -11    1    3    3    0    0 -0.23585429600E+01 -0.17651399248E+01 -0.59789174382E-01  0.29465265746E+01  0.51100000000E-03 0.  1.
         12    1    3    3    0    0 -0.72222607005E+01 -0.28490655287E+01  0.37291289035E+01  0.86130497729E+01  0.00000000000E+00 0. -1.
</event>
<event>
 7    1  0.4011333E-009  0.4778728E+02  0.7816164E-02  0.1312668E+00
        -11   -1    0    0    0    0  0.00000000000E+00  0.00000000000E+00  0.45593999997E+02  0.45594000000E+02  0.51100000000E-03 0. -1.
         11   -1    0    0    0    0 -0.00000000000E+00 -0.00000000000E+00 -0.45593999997E+02  0.45594000000E+02  0.51100000000E-03 0.  1.
    9900012    2    1    2    0    0 -0.23067641477E+01 -0.36976501468E+02  0.22606191263E+02  0.47787277597E+02  0.20000029876E+02 0.  0.
        -12    1    1    2    0    0  0.23067641477E+01  0.36976501468E+02 -0.22606191263E+02  0.43400722403E+02  0.00000000000E+00 0.  1.
         11    1    3    3    0    0 -0.21905355896E+01 -0.12209751870E+02  0.89445728049E+01  0.15293196847E+02  0.51100000000E-03 0. -1.
        -11    1    3    3    0    0 -0.29805552395E+01 -0.78268956954E+01  0.12794461226E+02  0.15291901258E+02  0.51100000000E-03 0.  1.
         12    1    3    3    0    0  0.28643266813E+01 -0.16939853903E+02  0.86715723239E+00  0.17202179492E+02  0.00000000000E+00 0. -1.
</event>
<event>
 7    1  0.4011333E-009  0.4778727E+02  0.7816164E-02  0.1312668E+00
        -11   -1    0    0    0    0  0.00000000000E+00  0.00000000000E+00  0.45593999997E+02  0.45594000000E+02  0.51100000000E-03 0.  1.
         11   -1    0    0    0    0 -0.00000000000E+00 -0.00000000000E+00 -0.45593999997E+02  0.45594000000E+02  0.51100000000E-03 0. -1.
    9900012    2    1    2    0    0 -0.38024825273E+02  0.83370000565E+01 -0.19189334918E+02  0.47787268651E+02  0.19999989088E+02 0.  0.
        -12    1    1    2    0    0  0.38024825273E+02 -0.83370000565E+01  0.19189334918E+02  0.43400731349E+02  0.00000000000E+00 0.  1.
         11    1    3    3    0    0 -0.14010238571E+02  0.13671180616E+01 -0.42698813419E+01  0.14710121806E+02  0.51100000000E-03 0. -1.
        -11    1    3    3    0    0 -0.16421211107E+02 -0.57039069431E+00 -0.23968216941E+01  0.16605007505E+02  0.51100000000E-03 0.  1.
         12    1    3    3    0    0 -0.75933755953E+01  0.75402726893E+01 -0.12522631882E+02  0.16472139339E+02  0.00000000000E+00 0. -1.
</event>
<event>
 7    1  0.4011333E-009  0.4778727E+02  0.7816164E-02  0.1312668E+00
        -11   -1    0    0    0    0  0.00000000000E+00  0.00000000000E+00  0.45593999997E+02  0.45594000000E+02  0.51100000000E-03 0.  1.
         11   -1    0    0    0    0 -0.00000000000E+00 -0.00000000000E+00 -0.45593999997E+02  0.45594000000E+02  0.51100000000E-03 0. -1.
    9900012    2    1    2    0    0  0.33734189570E+02  0.22316898518E+02 -0.15734784762E+02  0.47787274696E+02  0.20000016648E+02 0.  0.
        -12    1    1    2    0    0 -0.33734189570E+02 -0.22316898518E+02  0.15734784762E+02  0.43400725304E+02  0.00000000000E+00 0.  1.
         11    1    3    3    0    0  0.71676921493E+01  0.64677534675E+01 -0.20667053069E+01  0.98731411794E+01  0.51100000000E-03 0. -1.
        -11    1    3    3    0    0  0.97039001783E+01  0.42378802530E+01 -0.13856990885E+02  0.17439653218E+02  0.51100000000E-03 0.  1.
        -12    1    3    3    0    0  0.16862597243E+02  0.11611264798E+02  0.18891142961E+00  0.20474480299E+02  0.00000000000E+00 0.  1.
</event>
<event>
 7    1  0.4011333E-009  0.4778727E+02  0.7816164E-02  0.1312668E+00
        -11   -1    0    0    0    0  0.00000000000E+00  0.00000000000E+00  0.45593999997E+02  0.45594000000E+02  0.51100000000E-03 0.  1.
         11   -1    0    0    0    0 -0.00000000000E+00 -0.00000000000E+00 -0.45593999997E+02  0.45594000000E+02  0.51100000000E-03 0. -1.
    9900012    2    1    2    0    0  0.17331790096E+02  0.16887299829E+02 -0.36028479721E+02  0.47787271959E+02  0.20000004170E+02 0.  0.
        -12    1    1    2    0    0 -0.17331790096E+02 -0.16887299829E+02  0.36028479721E+02  0.43400728041E+02  0.00000000000E+00 0.  1.
         11    1    3    3    0    0  0.74538551883E+00  0.51121352649E+01 -0.35517894933E+00  0.51783857413E+01  0.51100000000E-03 0. -1.
        -11    1    3    3    0    0  0.49036393802E+01 -0.13531919161E+01 -0.43534764307E+01  0.66954883935E+01  0.51100000000E-03 0.  1.
         12    1    3    3    0    0  0.11682765197E+02  0.13128356480E+02 -0.31319824341E+02  0.35913397824E+02  0.00000000000E+00 0. -1.
</event>
<event>
 7    1  0.4011333E-009  0.4778727E+02  0.7816164E-02  0.1312668E+00
        -11   -1    0    0    0    0  0.00000000000E+00  0.00000000000E+00  0.45593999997E+02  0.45594000000E+02  0.51100000000E-03 0. -1.
         11   -1    0    0    0    0 -0.00000000000E+00 -0.00000000000E+00 -0.45593999997E+02  0.45594000000E+02  0.51100000000E-03 0.  1.
    9900012    2    1    2    0    0 -0.11254222433E+02 -0.21755793834E+02  0.35828078521E+02  0.47787270762E+02  0.19999998712E+02 0.  0.
        -12    1    1    2    0    0  0.11254222433E+02  0.21755793834E+02 -0.35828078521E+02  0.43400729238E+02  0.00000000000E+00 0.  1.
         11    1    3    3    0    0 -0.44567993655E+01 -0.90619768338E+01  0.60148854118E+01  0.11754204843E+02  0.51100000000E-03 0.  1.
        -11    1    3    3    0    0 -0.51635966286E+01 -0.77516462887E+01  0.47886804319E+01  0.10472927521E+02  0.51100000000E-03 0. -1.
        -12    1    3    3    0    0 -0.16338264385E+01 -0.49421707114E+01  0.25024512677E+02  0.25560138397E+02  0.00000000000E+00 0.  1.
</event>
<event>
 7    1  0.4011333E-009  0.4778727E+02  0.7816164E-02  0.1312668E+00
        -11   -1    0    0    0    0  0.00000000000E+00  0.00000000000E+00  0.45593999997E+02  0.45594000000E+02  0.51100000000E-03 0. -1.
         11   -1    0    0    0    0 -0.00000000000E+00 -0.00000000000E+00 -0.45593999997E+02  0.45594000000E+02  0.51100000000E-03 0.  1.
    9900012    2    1    2    0    0 -0.98081476118E+01  0.39630860957E+02  0.14724754977E+02  0.47787270641E+02  0.19999998161E+02 0.  0.
        -12    1    1    2    0    0  0.98081476118E+01 -0.39630860957E+02 -0.14724754977E+02  0.43400729359E+02  0.00000000000E+00 0.  1.
         11    1    3    3    0    0  0.13471290465E+01  0.33687952946E+01  0.54054576772E+01  0.65101852022E+01  0.51100000000E-03 0. -1.
        -11    1    3    3    0    0  0.17543374525E+01  0.16206486079E+02  0.26898110824E+01  0.16521591172E+02  0.51100000000E-03 0.  1.
        -12    1    3    3    0    0 -0.12909614111E+02  0.20055579583E+02  0.66294862178E+01  0.24755494267E+02  0.00000000000E+00 0.  1.
</event>
<event>
 7    1  0.4011333E-009  0.4778727E+02  0.7816164E-02  0.1312668E+00
        -11   -1    0    0    0    0  0.00000000000E+00  0.00000000000E+00  0.45593999997E+02  0.45594000000E+02  0.51100000000E-03 0.  1.
         11   -1    0    0    0    0 -0.00000000000E+00 -0.00000000000E+00 -0.45593999997E+02  0.45594000000E+02  0.51100000000E-03 0. -1.
    9900012    2    1    2    0    0  0.29310885274E+02  0.11666989092E+02 -0.29805647052E+02  0.47787271594E+02  0.20000002503E+02 0.  0.
        -12    1    1    2    0    0 -0.29310885274E+02 -0.11666989092E+02  0.29805647052E+02  0.43400728406E+02  0.00000000000E+00 0.  1.
         11    1    3    3    0    0  0.85850227506E+01  0.36152652190E+01 -0.84849135487E+01  0.12600258586E+02  0.51100000000E-03 0. -1.
        -11    1    3    3    0    0  0.14127436392E+02 -0.51541223809E+00 -0.19707678912E+02  0.24253715533E+02  0.51100000000E-03 0.  1.
         12    1    3    3    0    0  0.65984261318E+01  0.85671361111E+01 -0.16130545907E+01  0.10933297475E+02  0.00000000000E+00 0. -1.
</event>
<event>
 7    1  0.4011333E-009  0.4778727E+02  0.7816164E-02  0.1312668E+00
        -11   -1    0    0    0    0  0.00000000000E+00  0.00000000000E+00  0.45593999997E+02  0.45594000000E+02  0.51100000000E-03 0.  1.
         11   -1    0    0    0    0 -0.00000000000E+00 -0.00000000000E+00 -0.45593999997E+02  0.45594000000E+02  0.51100000000E-03 0. -1.
    9900012    2    1    2    0    0 -0.63479351041E+01 -0.78491136122E+01 -0.42210405457E+02  0.47787271971E+02  0.20000004226E+02 0.  0.
        -12    1    1    2    0    0  0.63479351041E+01  0.78491136122E+01  0.42210405457E+02  0.43400728029E+02  0.00000000000E+00 0.  1.
         11    1    3    3    0    0 -0.25206153343E+01  0.20146116700E+00 -0.13314233863E+02  0.13552229037E+02  0.51100000000E-03 0. -1.
        -11    1    3    3    0    0  0.63195007018E+01 -0.34234861768E+01 -0.10558422173E+02  0.12772494892E+02  0.51100000000E-03 0.  1.
        -12    1    3    3    0    0 -0.10146820472E+02 -0.46270886024E+01 -0.18337749421E+02  0.21462548041E+02  0.00000000000E+00 0.  1.
</event>
<event>
 7    1  0.4011333E-009  0.4778727E+02  0.7816164E-02  0.1312668E+00
        -11   -1    0    0    0    0  0.00000000000E+00  0.00000000000E+00  0.45593999997E+02  0.45594000000E+02  0.51100000000E-03 0.  1.
         11   -1    0    0    0    0 -0.00000000000E+00 -0.00000000000E+00 -0.45593999997E+02  0.45594000000E+02  0.51100000000E-03 0. -1.
    9900012    2    1    2    0    0  0.40924403779E+02 -0.50004529233E+01 -0.13557727510E+02  0.47787270405E+02  0.19999997086E+02 0.  0.
        -12    1    1    2    0    0 -0.40924403779E+02  0.50004529233E+01  0.13557727510E+02  0.43400729595E+02  0.00000000000E+00 0.  1.
         11    1    3    3    0    0  0.32312716951E+01  0.26764543500E+01 -0.19102787792E+01  0.46101724404E+01  0.51100000000E-03 0. -1.
        -11    1    3    3    0    0 -0.30237670699E+00  0.22709760112E+01 -0.85184643202E+00  0.24442598719E+01  0.51100000000E-03 0.  1.
         12    1    3    3    0    0  0.37995508791E+02 -0.99478832845E+01 -0.10795602299E+02  0.40732838093E+02  0.00000000000E+00 0. -1.
</event>
<event>
 7    1  0.4011333E-009  0.4778727E+02  0.7816164E-02  0.1312668E+00
        -11   -1    0    0    0    0  0.00000000000E+00  0.00000000000E+00  0.45593999997E+02  0.45594000000E+02  0.51100000000E-03 0.  1.
         11   -1    0    0    0    0 -0.00000000000E+00 -0.00000000000E+00 -0.45593999997E+02  0.45594000000E+02  0.51100000000E-03 0. -1.
    9900012    2    1    2    0    0 -0.62210127764E+01 -0.28081339274E+02 -0.32501703001E+02  0.47787270589E+02  0.19999997926E+02 0.  0.
        -12    1    1    2    0    0  0.62210127764E+01  0.28081339274E+02  0.32501703001E+02  0.43400729411E+02  0.00000000000E+00 0.  1.
         11    1    3    3    0    0  0.51755243810E+01 -0.70331428053E+01 -0.52803173150E+01  0.10204552981E+02  0.51100000000E-03 0. -1.
        -11    1    3    3    0    0 -0.24707963367E+01 -0.41969509530E+01 -0.70418371247E+00  0.49208847579E+01  0.51100000000E-03 0.  1.
         12    1    3    3    0    0 -0.89257408207E+01 -0.16851245516E+02 -0.26517201973E+02  0.32661832850E+02  0.00000000000E+00 0. -1.
</event>
<event>
 7    1  0.4011333E-009  0.4778727E+02  0.7816164E-02  0.1312668E+00
        -11   -1    0    0    0    0  0.00000000000E+00  0.00000000000E+00  0.45593999997E+02  0.45594000000E+02  0.51100000000E-03 0.  1.
         11   -1    0    0    0    0 -0.00000000000E+00 -0.00000000000E+00 -0.45593999997E+02  0.45594000000E+02  0.51100000000E-03 0. -1.
    9900012    2    1    2    0    0  0.10966619828E+01  0.23761135015E+02 -0.36301918390E+02  0.47787268629E+02  0.19999988988E+02 0.  0.
        -12    1    1    2    0    0 -0.10966619828E+01 -0.23761135015E+02  0.36301918390E+02  0.43400731371E+02  0.00000000000E+00 0.  1.
         11    1    3    3    0    0  0.21890084439E+01  0.33179469170E+01 -0.15995297865E+01  0.42847433424E+01  0.51100000000E-03 0.  1.
        -11    1    3    3    0    0 -0.27838498527E+00 -0.14760176766E+00 -0.14964623505E+02  0.14967940453E+02  0.51100000000E-03 0. -1.
        -12    1    3    3    0    0 -0.81396147583E+00  0.20590789866E+02 -0.19737765099E+02  0.28534584834E+02  0.00000000000E+00 0.  1.
</event>
<event>
 7    1  0.4011333E-009  0.4778727E+02  0.7816164E-02  0.1312668E+00
        -11   -1    0    0    0    0  0.00000000000E+00  0.00000000000E+00  0.45593999997E+02  0.45594000000E+02  0.51100000000E-03 0.  1.
         11   -1    0    0    0    0 -0.00000000000E+00 -0.00000000000E+00 -0.45593999997E+02  0.45594000000E+02  0.51100000000E-03 0. -1.
    9900012    2    1    2    0    0 -0.25738881800E+02  0.80042301406E+01 -0.34015667157E+02  0.47787270184E+02  0.19999996075E+02 0.  0.
        -12    1    1    2    0    0  0.25738881800E+02 -0.80042301406E+01  0.34015667157E+02  0.43400729816E+02  0.00000000000E+00 0.  1.
         11    1    3    3    0    0 -0.24126260380E+01  0.13490615014E+01 -0.14975650736E+02  0.15228619326E+02  0.51100000000E-03 0. -1.
        -11    1    3    3    0    0 -0.10976079624E+02 -0.15462482582E+01 -0.11322000178E+02  0.15844648809E+02  0.51100000000E-03 0.  1.
        -12    1    3    3    0    0 -0.12350176138E+02  0.82014168974E+01 -0.77180162429E+01  0.16714002049E+02  0.00000000000E+00 0.  1.
</event>
<event>
 7    1  0.4011333E-009  0.4778727E+02  0.7816164E-02  0.1312668E+00
        -11   -1    0    0    0    0  0.00000000000E+00  0.00000000000E+00  0.45593999997E+02  0.45594000000E+02  0.51100000000E-03 0.  1.
         11   -1    0    0    0    0 -0.00000000000E+00 -0.00000000000E+00 -0.45593999997E+02  0.45594000000E+02  0.51100000000E-03 0. -1.
    9900012    2    1    2    0    0 -0.20208987383E+02  0.37106904968E+02 -0.99145183367E+01  0.47787271421E+02  0.20000001716E+02 0.  0.
        -12    1    1    2    0    0  0.20208987383E+02 -0.37106904968E+02  0.99145183367E+01  0.43400728579E+02  0.00000000000E+00 0.  1.
         11    1    3    3    0    0 -0.46774814508E+01  0.60005202550E+01  0.98000887164E+00  0.76710816515E+01  0.51100000000E-03 0. -1.
        -11    1    3    3    0    0 -0.17167791471E+02  0.17180620056E+02 -0.44829282828E+01  0.24698247220E+02  0.51100000000E-03 0.  1.
         12    1    3    3    0    0  0.16362855392E+01  0.13925764658E+02 -0.64115989256E+01  0.15417942549E+02  0.00000000000E+00 0. -1.
</event>
<event>
 7    1  0.4011333E-009  0.4778728E+02  0.7816164E-02  0.1312668E+00
        -11   -1    0    0    0    0  0.00000000000E+00  0.00000000000E+00  0.45593999997E+02  0.45594000000E+02  0.51100000000E-03 0.  1.
         11   -1    0    0    0    0 -0.00000000000E+00 -0.00000000000E+00 -0.45593999997E+02  0.45594000000E+02  0.51100000000E-03 0. -1.
    9900012    2    1    2    0    0  0.10452292130E+02 -0.14447539083E+02 -0.39568181080E+02  0.47787277076E+02  0.20000027501E+02 0.  0.
        -12    1    1    2    0    0 -0.10452292130E+02  0.14447539083E+02  0.39568181080E+02  0.43400722924E+02  0.00000000000E+00 0.  1.
         11    1    3    3    0    0  0.38207699439E+01 -0.94053549815E+01 -0.22191163409E+02  0.24403006352E+02  0.51100000000E-03 0. -1.
        -11    1    3    3    0    0  0.65031229189E+01 -0.92672162074E+01 -0.11427178147E+02  0.16085779577E+02  0.51100000000E-03 0.  1.
        -12    1    3    3    0    0  0.12839926734E+00  0.42250321057E+01 -0.59498395240E+01  0.72984911473E+01  0.00000000000E+00 0.  1.
</event>
<event>
 7    1  0.4011333E-009  0.4778727E+02  0.7816164E-02  0.1312668E+00
        -11   -1    0    0    0    0  0.00000000000E+00  0.00000000000E+00  0.45593999997E+02  0.45594000000E+02  0.51100000000E-03 0.  1.
         11   -1    0    0    0    0 -0.00000000000E+00 -0.00000000000E+00 -0.45593999997E+02  0.45594000000E+02  0.51100000000E-03 0. -1.
    9900012    2    1    2    0    0 -0.16598466822E+02 -0.25114999456E+02 -0.31262612134E+02  0.47787271712E+02  0.20000003044E+02 0.  0.
        -12    1    1    2    0    0  0.16598466822E+02  0.25114999456E+02  0.31262612134E+02  0.43400728288E+02  0.00000000000E+00 0.  1.
         11    1    3    3    0    0 -0.24216057205E+01 -0.89709076401E+01 -0.23703877221E+01  0.95895827003E+01  0.51100000000E-03 0.  1.
        -11    1    3    3    0    0 -0.27880953722E+01 -0.54639953622E+01 -0.97513409505E+00  0.62112484966E+01  0.51100000000E-03 0. -1.
         12    1    3    3    0    0 -0.11388765730E+02 -0.10680096453E+02 -0.27917090316E+02  0.31986440515E+02  0.00000000000E+00 0. -1.
</event>
<event>
 7    1  0.4011333E-009  0.4778727E+02  0.7816164E-02  0.1312668E+00
        -11   -1    0    0    0    0  0.00000000000E+00  0.00000000000E+00  0.45593999997E+02  0.45594000000E+02  0.51100000000E-03 0. -1.
         11   -1    0    0    0    0 -0.00000000000E+00 -0.00000000000E+00 -0.45593999997E+02  0.45594000000E+02  0.51100000000E-03 0.  1.
    9900012    2    1    2    0    0  0.40089429532E+02 -0.13222536636E+02  0.10080941695E+02  0.47787271657E+02  0.20000002792E+02 0.  0.
        -12    1    1    2    0    0 -0.40089429532E+02  0.13222536636E+02 -0.10080941695E+02  0.43400728343E+02  0.00000000000E+00 0.  1.
         11    1    3    3    0    0  0.10692327277E+02 -0.12399958327E+01  0.79494110901E+01  0.13381202831E+02  0.51100000000E-03 0. -1.
        -11    1    3    3    0    0  0.24861625029E+02 -0.59114939084E+01  0.54561261010E+01  0.26130738061E+02  0.51100000000E-03 0.  1.
        -12    1    3    3    0    0  0.45354772261E+01 -0.60710468945E+01 -0.33245954958E+01  0.82753307653E+01  0.00000000000E+00 0.  1.
</event>
<event>
 7    1  0.4011333E-009  0.4778727E+02  0.7816164E-02  0.1312668E+00
        -11   -1    0    0    0    0  0.00000000000E+00  0.00000000000E+00  0.45593999997E+02  0.45594000000E+02  0.51100000000E-03 0.  1.
         11   -1    0    0    0    0 -0.00000000000E+00 -0.00000000000E+00 -0.45593999997E+02  0.45594000000E+02  0.51100000000E-03 0. -1.
    9900012    2    1    2    0    0  0.28214986344E+02  0.38783126254E+01 -0.32748991306E+02  0.47787271956E+02  0.20000004156E+02 0.  0.
        -12    1    1    2    0    0 -0.28214986344E+02 -0.38783126254E+01  0.32748991306E+02  0.43400728044E+02  0.00000000000E+00 0.  1.
         11    1    3    3    0    0  0.43916344731E+01 -0.42664159334E+01 -0.18747345088E+01  0.64033887904E+01  0.51100000000E-03 0. -1.
        -11    1    3    3    0    0  0.78316498375E+00 -0.61273696953E+00 -0.69950547616E+01  0.70653793504E+01  0.51100000000E-03 0.  1.
         12    1    3    3    0    0  0.23040186887E+02  0.87574655283E+01 -0.23879202035E+02  0.34318503815E+02  0.00000000000E+00 0. -1.
</event>
<event>
 7    1  0.4011333E-009  0.4778727E+02  0.7816164E-02  0.1312668E+00
        -11   -1    0    0    0    0  0.00000000000E+00  0.00000000000E+00  0.45593999997E+02  0.45594000000E+02  0.51100000000E-03 0.  1.
         11   -1    0    0    0    0 -0.00000000000E+00 -0.00000000000E+00 -0.45593999997E+02  0.45594000000E+02  0.51100000000E-03 0. -1.
    9900012    2    1    2    0    0 -0.32008698282E+02 -0.28599774852E+02 -0.64124302935E+01  0.47787272477E+02  0.20000006531E+02 0.  0.
        -12    1    1    2    0    0  0.32008698282E+02  0.28599774852E+02  0.64124302935E+01  0.43400727523E+02  0.00000000000E+00 0.  1.
         11    1    3    3    0    0 -0.66251468427E+01 -0.77833314751E+01  0.39544170363E+01  0.10959481461E+02  0.51100000000E-03 0. -1.
        -11    1    3    3    0    0 -0.32626715995E+00  0.94840832976E+00  0.13044676328E+01  0.16454679230E+01  0.51100000000E-03 0.  1.
         12    1    3    3    0    0 -0.25057284279E+02 -0.21764851706E+02 -0.11671314963E+02  0.35182323093E+02  0.00000000000E+00 0. -1.
</event>
<event>
 7    1  0.4011333E-009  0.4778727E+02  0.7816164E-02  0.1312668E+00
        -11   -1    0    0    0    0  0.00000000000E+00  0.00000000000E+00  0.45593999997E+02  0.45594000000E+02  0.51100000000E-03 0. -1.
         11   -1    0    0    0    0 -0.00000000000E+00 -0.00000000000E+00 -0.45593999997E+02  0.45594000000E+02  0.51100000000E-03 0.  1.
    9900012    2    1    2    0    0  0.41831190918E+02 -0.81534937449E+00 -0.11537328454E+02  0.47787271019E+02  0.19999999883E+02 0.  0.
        -12    1    1    2    0    0 -0.41831190918E+02  0.81534937449E+00  0.11537328454E+02  0.43400728981E+02  0.00000000000E+00 0.  1.
         11    1    3    3    0    0  0.18131437700E+02  0.53080968566E+01 -0.60804259086E+01  0.19846826064E+02  0.51100000000E-03 0. -1.
        -11    1    3    3    0    0  0.21629666219E+00  0.91033495004E+00  0.20907823884E+01  0.22906036811E+01  0.51100000000E-03 0.  1.
         12    1    3    3    0    0  0.23483456556E+02 -0.70337811811E+01 -0.75476849340E+01  0.25649841274E+02  0.00000000000E+00 0. -1.
</event>
<event>
 7    1  0.4011333E-009  0.4778727E+02  0.7816164E-02  0.1312668E+00
        -11   -1    0    0    0    0  0.00000000000E+00  0.00000000000E+00  0.45593999997E+02  0.45594000000E+02  0.51100000000E-03 0.  1.
         11   -1    0    0    0    0 -0.00000000000E+00 -0.00000000000E+00 -0.45593999997E+02  0.45594000000E+02  0.51100000000E-03 0. -1.
    9900012    2    1    2    0    0 -0.12652619868E+02 -0.21980865846E+02 -0.35218969573E+02  0.47787273386E+02  0.20000010676E+02 0.  0.
        -12    1    1    2    0    0  0.12652619868E+02  0.21980865846E+02  0.35218969573E+02  0.43400726614E+02  0.00000000000E+00 0.  1.
         11    1    3    3    0    0 -0.34419749325E+01 -0.11881175393E+02 -0.11572519626E+02  0.16939088845E+02  0.51100000000E-03 0. -1.
        -11    1    3    3    0    0 -0.12736376774E+02 -0.90385605548E+01 -0.21540640380E+02  0.26606579233E+02  0.51100000000E-03 0.  1.
        -12    1    3    3    0    0  0.35257318384E+01 -0.10611298981E+01 -0.21058095667E+01  0.42416053079E+01  0.00000000000E+00 0.  1.
</event>
<event>
 7    1  0.4011333E-009  0.4778727E+02  0.7816164E-02  0.1312668E+00
        -11   -1    0    0    0    0  0.00000000000E+00  0.00000000000E+00  0.45593999997E+02  0.45594000000E+02  0.51100000000E-03 0.  1.
         11   -1    0    0    0    0 -0.00000000000E+00 -0.00000000000E+00 -0.45593999997E+02  0.45594000000E+02  0.51100000000E-03 0. -1.
    9900012    2    1    2    0    0 -0.48830966928E+01  0.42792956603E+02  0.53424168201E+01  0.47787272061E+02  0.20000004636E+02 0.  0.
        -12    1    1    2    0    0  0.48830966928E+01 -0.42792956603E+02 -0.53424168201E+01  0.43400727939E+02  0.00000000000E+00 0.  1.
         11    1    3    3    0    0 -0.16430267647E+01  0.94986167377E+01 -0.15440582995E+01  0.97625495221E+01  0.51100000000E-03 0. -1.
        -11    1    3    3    0    0  0.19197792892E+01  0.32205423789E+01  0.65061072939E+01  0.75091196631E+01  0.51100000000E-03 0.  1.
        -12    1    3    3    0    0 -0.51598492173E+01  0.30073797486E+02  0.38036782570E+00  0.30515602876E+02  0.00000000000E+00 0.  1.
</event>
<event>
 7    1  0.4011333E-009  0.4778727E+02  0.7816164E-02  0.1312668E+00
        -11   -1    0    0    0    0  0.00000000000E+00  0.00000000000E+00  0.45593999997E+02  0.45594000000E+02  0.51100000000E-03 0.  1.
         11   -1    0    0    0    0 -0.00000000000E+00 -0.00000000000E+00 -0.45593999997E+02  0.45594000000E+02  0.51100000000E-03 0. -1.
    9900012    2    1    2    0    0 -0.84452929657E+01  0.28131797795E+02 -0.31951558822E+02  0.47787272683E+02  0.20000007472E+02 0.  0.
        -12    1    1    2    0    0  0.84452929657E+01 -0.28131797795E+02  0.31951558822E+02  0.43400727317E+02  0.00000000000E+00 0.  1.
         11    1    3    3    0    0 -0.33331868690E+01  0.13751649132E+02 -0.13423540221E+02  0.19504087287E+02  0.51100000000E-03 0. -1.
        -11    1    3    3    0    0  0.64811049855E+00  0.15119563995E+02 -0.10690745305E+02  0.18528715499E+02  0.51100000000E-03 0.  1.
        -12    1    3    3    0    0 -0.57602165952E+01 -0.73941533219E+00 -0.78372732965E+01  0.97544698975E+01  0.00000000000E+00 0.  1.
</event>
<event>
 7    1  0.4011333E-009  0.4778727E+02  0.7816164E-02  0.1312668E+00
        -11   -1    0    0    0    0  0.00000000000E+00  0.00000000000E+00  0.45593999997E+02  0.45594000000E+02  0.51100000000E-03 0. -1.
         11   -1    0    0    0    0 -0.00000000000E+00 -0.00000000000E+00 -0.45593999997E+02  0.45594000000E+02  0.51100000000E-03 0.  1.
    9900012    2    1    2    0    0 -0.50679773726E+01  0.15889784825E+02  0.40068113507E+02  0.47787269863E+02  0.19999994614E+02 0.  0.
        -12    1    1    2    0    0  0.50679773726E+01 -0.15889784825E+02 -0.40068113507E+02  0.43400730137E+02  0.00000000000E+00 0.  1.
         11    1    3    3    0    0 -0.30036969319E+01  0.72647943689E+01  0.44036000744E+01  0.90106118748E+01  0.51100000000E-03 0. -1.
        -11    1    3    3    0    0  0.16247049062E+01  0.70967521860E+01  0.79655528893E+01  0.10791366490E+02  0.51100000000E-03 0.  1.
         12    1    3    3    0    0 -0.36889853469E+01  0.15282382699E+01  0.27698960543E+02  0.27985291499E+02  0.00000000000E+00 0. -1.
</event>
<event>
 7    1  0.4740248E-009  0.4778727E+02  0.7816164E-02  0.1312668E+00
        -11   -1    0    0    0    0  0.00000000000E+00  0.00000000000E+00  0.45593999997E+02  0.45594000000E+02  0.51100000000E-03 0.  1.
         11   -1    0    0    0    0 -0.00000000000E+00 -0.00000000000E+00 -0.45593999997E+02  0.45594000000E+02  0.51100000000E-03 0. -1.
    9900012    2    1    2    0    0 -0.40265119458E+02  0.15712647841E+02  0.39314315764E+01  0.47787270728E+02  0.19999998557E+02 0.  0.
        -12    1    1    2    0    0  0.40265119458E+02 -0.15712647841E+02 -0.39314315764E+01  0.43400729272E+02  0.00000000000E+00 0.  1.
         11    1    3    3    0    0 -0.16891006848E+02  0.16277077722E+00  0.20359483031E+01  0.17014043976E+02  0.51100000000E-03 0. -1.
        -11    1    3    3    0    0  0.57893375521E+00 -0.61462207373E+00  0.16744989861E+01  0.18753324244E+01  0.51100000000E-03 0.  1.
         12    1    3    3    0    0 -0.23953046364E+02  0.16164499137E+02  0.22098428719E+00  0.28897894327E+02  0.00000000000E+00 0. -1.
</event>
<event>
 7    1  0.4011333E-009  0.4778727E+02  0.7816164E-02  0.1312668E+00
        -11   -1    0    0    0    0  0.00000000000E+00  0.00000000000E+00  0.45593999997E+02  0.45594000000E+02  0.51100000000E-03 0. -1.
         11   -1    0    0    0    0 -0.00000000000E+00 -0.00000000000E+00 -0.45593999997E+02  0.45594000000E+02  0.51100000000E-03 0.  1.
    9900012    2    1    2    0    0  0.12298314422E+02 -0.39580770569E+02 -0.12873901155E+02  0.47787271119E+02  0.20000000340E+02 0.  0.
        -12    1    1    2    0    0 -0.12298314422E+02  0.39580770569E+02  0.12873901155E+02  0.43400728881E+02  0.00000000000E+00 0.  1.
         11    1    3    3    0    0  0.67161645901E+01 -0.24408421165E+02 -0.18006017114E+01  0.25379520432E+02  0.51100000000E-03 0. -1.
        -11    1    3    3    0    0  0.27984196370E+01 -0.11924865871E+02 -0.20461865149E+01  0.12418552976E+02  0.51100000000E-03 0.  1.
        -12    1    3    3    0    0  0.27837301951E+01 -0.32474835338E+01 -0.90271129283E+01  0.99891977116E+01  0.00000000000E+00 0.  1.
</event>
<event>
 7    1  0.4011333E-009  0.4778727E+02  0.7816164E-02  0.1312668E+00
        -11   -1    0    0    0    0  0.00000000000E+00  0.00000000000E+00  0.45593999997E+02  0.45594000000E+02  0.51100000000E-03 0.  1.
         11   -1    0    0    0    0 -0.00000000000E+00 -0.00000000000E+00 -0.45593999997E+02  0.45594000000E+02  0.51100000000E-03 0. -1.
    9900012    2    1    2    0    0 -0.32778326773E+02  0.20181637249E+02  0.20047591784E+02  0.47787272767E+02  0.20000007852E+02 0.  0.
        -12    1    1    2    0    0  0.32778326773E+02 -0.20181637249E+02 -0.20047591784E+02  0.43400727233E+02  0.00000000000E+00 0.  1.
         11    1    3    3    0    0 -0.63198869910E+01 -0.57070067784E+00  0.32740496045E+01  0.71404532011E+01  0.51100000000E-03 0. -1.
        -11    1    3    3    0    0 -0.16528734311E+02  0.83914311356E+01  0.16457436788E+02  0.24788352109E+02  0.51100000000E-03 0.  1.
         12    1    3    3    0    0 -0.99297054711E+01  0.12360906791E+02  0.31610539156E+00  0.15858467456E+02  0.00000000000E+00 0. -1.
</event>
<event>
 7    1  0.4011333E-009  0.4778727E+02  0.7816164E-02  0.1312668E+00
        -11   -1    0    0    0    0  0.00000000000E+00  0.00000000000E+00  0.45593999997E+02  0.45594000000E+02  0.51100000000E-03 0.  1.
         11   -1    0    0    0    0 -0.00000000000E+00 -0.00000000000E+00 -0.45593999997E+02  0.45594000000E+02  0.51100000000E-03 0. -1.
    9900012    2    1    2    0    0  0.18770235286E+02  0.88882149612E+01 -0.38109070547E+02  0.47787270100E+02  0.19999995693E+02 0.  0.
        -12    1    1    2    0    0 -0.18770235286E+02 -0.88882149612E+01  0.38109070547E+02  0.43400729900E+02  0.00000000000E+00 0.  1.
         11    1    3    3    0    0  0.23018663999E+01  0.47314742990E+01 -0.79305555924E+01  0.95173079298E+01  0.51100000000E-03 0. -1.
        -11    1    3    3    0    0  0.62169164738E+01  0.81098763841E+00 -0.50044485054E-01  0.62697891594E+01  0.51100000000E-03 0.  1.
         12    1    3    3    0    0  0.10251452412E+02  0.33457530238E+01 -0.30128470470E+02  0.32000173011E+02  0.00000000000E+00 0. -1.
</event>
<event>
 7    1  0.4011333E-009  0.4778727E+02  0.7816164E-02  0.1312668E+00
        -11   -1    0    0    0    0  0.00000000000E+00  0.00000000000E+00  0.45593999997E+02  0.45594000000E+02  0.51100000000E-03 0.  1.
         11   -1    0    0    0    0 -0.00000000000E+00 -0.00000000000E+00 -0.45593999997E+02  0.45594000000E+02  0.51100000000E-03 0. -1.
    9900012    2    1    2    0    0 -0.62072741015E+01 -0.23509564290E+02 -0.35949876047E+02  0.47787268984E+02  0.19999990607E+02 0.  0.
        -12    1    1    2    0    0  0.62072741015E+01  0.23509564290E+02  0.35949876047E+02  0.43400731016E+02  0.00000000000E+00 0.  1.
         11    1    3    3    0    0 -0.10752659962E+02 -0.54510511833E+01 -0.13418122444E+02  0.18038283328E+02  0.51100000000E-03 0. -1.
        -11    1    3    3    0    0  0.19194026691E+01 -0.17759024825E+01 -0.14761819957E+01  0.30028402853E+01  0.51100000000E-03 0.  1.
         12    1    3    3    0    0  0.26259831910E+01 -0.16282610625E+02 -0.21055571608E+02  0.26746145371E+02  0.00000000000E+00 0. -1.
</event>
<event>
 7    1  0.4011333E-009  0.4778727E+02  0.7816164E-02  0.1312668E+00
        -11   -1    0    0    0    0  0.00000000000E+00  0.00000000000E+00  0.45593999997E+02  0.45594000000E+02  0.51100000000E-03 0.  1.
         11   -1    0    0    0    0 -0.00000000000E+00 -0.00000000000E+00 -0.45593999997E+02  0.45594000000E+02  0.51100000000E-03 0. -1.
    9900012    2    1    2    0    0 -0.78908126050E+01 -0.16306837661E+02 -0.39439138757E+02  0.47787267933E+02  0.19999985815E+02 0.  0.
        -12    1    1    2    0    0  0.78908126050E+01  0.16306837661E+02  0.39439138757E+02  0.43400732067E+02  0.00000000000E+00 0.  1.
         11    1    3    3    0    0 -0.41814512283E+01 -0.50201695315E+01 -0.92093820189E+01  0.11291561182E+02  0.51100000000E-03 0. -1.
        -11    1    3    3    0    0 -0.80969292982E+00  0.41501148005E+01 -0.34832664664E+01  0.54783392589E+01  0.51100000000E-03 0.  1.
        -12    1    3    3    0    0 -0.28996684470E+01 -0.15436782930E+02 -0.26746490271E+02  0.31017367492E+02  0.00000000000E+00 0.  1.
</event>
<event>
 7    1  0.4011333E-009  0.4778729E+02  0.7816164E-02  0.1312668E+00
        -11   -1    0    0    0    0  0.00000000000E+00  0.00000000000E+00  0.45593999997E+02  0.45594000000E+02  0.51100000000E-03 0. -1.
         11   -1    0    0    0    0 -0.00000000000E+00 -0.00000000000E+00 -0.45593999997E+02  0.45594000000E+02  0.51100000000E-03 0.  1.
    9900012    2    1    2    0    0 -0.38210831713E+02  0.48502484174E+01  0.20000735737E+02  0.47787285721E+02  0.20000066915E+02 0.  0.
        -12    1    1    2    0    0  0.38210831713E+02 -0.48502484174E+01 -0.20000735737E+02  0.43400714279E+02  0.00000000000E+00 0.  1.
         11    1    3    3    0    0 -0.95848745068E+01 -0.17424550361E+01  0.53599286246E+01  0.11119118849E+02  0.51100000000E-03 0. -1.
        -11    1    3    3    0    0 -0.27237226803E+01 -0.46302765954E+01  0.19132529037E+01  0.57025137899E+01  0.51100000000E-03 0.  1.
         12    1    3    3    0    0 -0.25902234526E+02  0.11222980049E+02  0.12727554209E+02  0.30965653081E+02  0.00000000000E+00 0. -1.
</event>
<event>
 7    1  0.4011333E-009  0.4778726E+02  0.7816164E-02  0.1312668E+00
        -11   -1    0    0    0    0  0.00000000000E+00  0.00000000000E+00  0.45593999997E+02  0.45594000000E+02  0.51100000000E-03 0.  1.
         11   -1    0    0    0    0 -0.00000000000E+00 -0.00000000000E+00 -0.45593999997E+02  0.45594000000E+02  0.51100000000E-03 0. -1.
    9900012    2    1    2    0    0 -0.30813377446E+02 -0.30449941625E+02  0.26384255557E+01  0.47787257333E+02  0.19999937486E+02 0.  0.
        -12    1    1    2    0    0  0.30813377446E+02  0.30449941625E+02 -0.26384255557E+01  0.43400742667E+02  0.00000000000E+00 0.  1.
         11    1    3    3    0    0 -0.22571128136E+02 -0.21254345886E+02  0.81148278949E+00  0.31013892838E+02  0.51100000000E-03 0. -1.
        -11    1    3    3    0    0 -0.80470408648E+01 -0.82923540476E+00 -0.44477430628E+00  0.81018715419E+01  0.51100000000E-03 0.  1.
        -12    1    3    3    0    0 -0.19520844454E+00 -0.83663603351E+01  0.22717170725E+01  0.86714929540E+01  0.00000000000E+00 0.  1.
</event>
<event>
 7    1  0.4011333E-009  0.4778727E+02  0.7816164E-02  0.1312668E+00
        -11   -1    0    0    0    0  0.00000000000E+00  0.00000000000E+00  0.45593999997E+02  0.45594000000E+02  0.51100000000E-03 0.  1.
         11   -1    0    0    0    0 -0.00000000000E+00 -0.00000000000E+00 -0.45593999997E+02  0.45594000000E+02  0.51100000000E-03 0. -1.
    9900012    2    1    2    0    0  0.69418476629E+01 -0.28371514858E+02 -0.32101263969E+02  0.47787271289E+02  0.20000001113E+02 0.  0.
        -12    1    1    2    0    0 -0.69418476629E+01  0.28371514858E+02  0.32101263969E+02  0.43400728711E+02  0.00000000000E+00 0.  1.
         11    1    3    3    0    0 -0.15899673078E+01 -0.11638361472E+02 -0.71821203954E+01  0.13768162819E+02  0.51100000000E-03 0. -1.
        -11    1    3    3    0    0 -0.32332353474E+01 -0.48928678634E+01 -0.33781767247E+01  0.67680163257E+01  0.51100000000E-03 0.  1.
        -12    1    3    3    0    0  0.11765050318E+02 -0.11840285523E+02 -0.21540966849E+02  0.27251092143E+02  0.00000000000E+00 0.  1.
</event>
<event>
 7    1  0.4011333E-009  0.4778727E+02  0.7816164E-02  0.1312668E+00
        -11   -1    0    0    0    0  0.00000000000E+00  0.00000000000E+00  0.45593999997E+02  0.45594000000E+02  0.51100000000E-03 0.  1.
         11   -1    0    0    0    0 -0.00000000000E+00 -0.00000000000E+00 -0.45593999997E+02  0.45594000000E+02  0.51100000000E-03 0. -1.
    9900012    2    1    2    0    0  0.43002860861E+02  0.58631827187E+01 -0.10565025638E-01  0.47787273445E+02  0.20000010947E+02 0.  0.
        -12    1    1    2    0    0 -0.43002860861E+02 -0.58631827187E+01  0.10565025638E-01  0.43400726555E+02  0.00000000000E+00 0.  1.
         11    1    3    3    0    0  0.28388381258E+01 -0.38523761000E+01 -0.30074804551E+01  0.56519680174E+01  0.51100000000E-03 0. -1.
        -11    1    3    3    0    0  0.63897073216E+01  0.30019077905E+01 -0.20047025449E+01  0.73388447724E+01  0.51100000000E-03 0.  1.
         12    1    3    3    0    0  0.33774315414E+02  0.67136510283E+01  0.50016179744E+01  0.34796460656E+02  0.00000000000E+00 0. -1.
</event>
<event>
 7    1  0.4011333E-009  0.4778727E+02  0.7816164E-02  0.1312668E+00
        -11   -1    0    0    0    0  0.00000000000E+00  0.00000000000E+00  0.45593999997E+02  0.45594000000E+02  0.51100000000E-03 0. -1.
         11   -1    0    0    0    0 -0.00000000000E+00 -0.00000000000E+00 -0.45593999997E+02  0.45594000000E+02  0.51100000000E-03 0.  1.
    9900012    2    1    2    0    0 -0.38989302765E+01 -0.39590861490E+02  0.17348926148E+02  0.47787271788E+02  0.20000003390E+02 0.  0.
        -12    1    1    2    0    0  0.38989302765E+01  0.39590861490E+02 -0.17348926148E+02  0.43400728212E+02  0.00000000000E+00 0.  1.
         11    1    3    3    0    0 -0.40419153330E+01 -0.56229614321E+01  0.20703782854E+01  0.72278102723E+01  0.51100000000E-03 0. -1.
        -11    1    3    3    0    0  0.35431031591E+01 -0.22590066468E+02  0.23213360877E+01  0.22983761322E+02  0.51100000000E-03 0.  1.
        -12    1    3    3    0    0 -0.34001181026E+01 -0.11377833590E+02  0.12957211775E+02  0.17575700194E+02  0.00000000000E+00 0.  1.
</event>
<event>
 7    1  0.4011333E-009  0.4778727E+02  0.7816164E-02  0.1312668E+00
        -11   -1    0    0    0    0  0.00000000000E+00  0.00000000000E+00  0.45593999997E+02  0.45594000000E+02  0.51100000000E-03 0.  1.
         11   -1    0    0    0    0 -0.00000000000E+00 -0.00000000000E+00 -0.45593999997E+02  0.45594000000E+02  0.51100000000E-03 0. -1.
    9900012    2    1    2    0    0  0.60569640763E+01  0.12985021676E+02 -0.40967370289E+02  0.47787273852E+02  0.20000012801E+02 0.  0.
        -12    1    1    2    0    0 -0.60569640763E+01 -0.12985021676E+02  0.40967370289E+02  0.43400726148E+02  0.00000000000E+00 0.  1.
         11    1    3    3    0    0 -0.79123297702E-01  0.95562820759E+01 -0.31451709012E+02  0.32871549821E+02  0.51100000000E-03 0. -1.
        -11    1    3    3    0    0  0.69436660470E+01  0.55800330870E+01 -0.87682742489E+01  0.12499356023E+02  0.51100000000E-03 0.  1.
        -12    1    3    3    0    0 -0.80757867299E+00 -0.21512934868E+01 -0.74738702854E+00  0.24163680080E+01  0.00000000000E+00 0.  1.
</event>
<event>
 7    1  0.4011333E-009  0.4778727E+02  0.7816164E-02  0.1312668E+00
        -11   -1    0    0    0    0  0.00000000000E+00  0.00000000000E+00  0.45593999997E+02  0.45594000000E+02  0.51100000000E-03 0.  1.
         11   -1    0    0    0    0 -0.00000000000E+00 -0.00000000000E+00 -0.45593999997E+02  0.45594000000E+02  0.51100000000E-03 0. -1.
    9900012    2    1    2    0    0 -0.20490672294E+02 -0.27750187358E+02 -0.26337858607E+02  0.47787270219E+02  0.19999996238E+02 0.  0.
        -12    1    1    2    0    0  0.20490672294E+02  0.27750187358E+02  0.26337858607E+02  0.43400729781E+02  0.00000000000E+00 0.  1.
         11    1    3    3    0    0 -0.42701502610E+00 -0.10917274960E+02 -0.15692493584E+01  0.11037743347E+02  0.51100000000E-03 0. -1.
        -11    1    3    3    0    0 -0.80455866113E+01 -0.38545089080E+01 -0.50161615789E+01  0.10234773084E+02  0.51100000000E-03 0.  1.
         12    1    3    3    0    0 -0.12018070657E+02 -0.12978403490E+02 -0.19752447670E+02  0.26514753787E+02  0.00000000000E+00 0. -1.
</event>
<event>
 7    1  0.4011333E-009  0.4778727E+02  0.7816164E-02  0.1312668E+00
        -11   -1    0    0    0    0  0.00000000000E+00  0.00000000000E+00  0.45593999997E+02  0.45594000000E+02  0.51100000000E-03 0. -1.
         11   -1    0    0    0    0 -0.00000000000E+00 -0.00000000000E+00 -0.45593999997E+02  0.45594000000E+02  0.51100000000E-03 0.  1.
    9900012    2    1    2    0    0 -0.32386254319E+02 -0.22436103174E+02 -0.18203711065E+02  0.47787270847E+02  0.19999999101E+02 0.  0.
        -12    1    1    2    0    0  0.32386254319E+02  0.22436103174E+02  0.18203711065E+02  0.43400729153E+02  0.00000000000E+00 0.  1.
         11    1    3    3    0    0 -0.14562657191E+02 -0.62432987256E+01 -0.18047827992E+01  0.15947006134E+02  0.51100000000E-03 0. -1.
        -11    1    3    3    0    0 -0.10607591438E+01  0.20205451453E+01 -0.27453763286E+00  0.22985177438E+01  0.51100000000E-03 0.  1.
         12    1    3    3    0    0 -0.16762837985E+02 -0.18213349594E+02 -0.16124390633E+02  0.29541746969E+02  0.00000000000E+00 0. -1.
</event>
<event>
 7    1  0.4011333E-009  0.4778727E+02  0.7816164E-02  0.1312668E+00
        -11   -1    0    0    0    0  0.00000000000E+00  0.00000000000E+00  0.45593999997E+02  0.45594000000E+02  0.51100000000E-03 0. -1.
         11   -1    0    0    0    0 -0.00000000000E+00 -0.00000000000E+00 -0.45593999997E+02  0.45594000000E+02  0.51100000000E-03 0.  1.
    9900012    2    1    2    0    0  0.23183694557E+02 -0.24277976258E+02  0.27508535188E+02  0.47787270367E+02  0.19999996912E+02 0.  0.
        -12    1    1    2    0    0 -0.23183694557E+02  0.24277976258E+02 -0.27508535188E+02  0.43400729633E+02  0.00000000000E+00 0.  1.
         11    1    3    3    0    0  0.14271412968E+02 -0.13075651355E+02  0.23015313750E+02  0.30072421813E+02  0.51100000000E-03 0.  1.
        -11    1    3    3    0    0  0.56837289496E+01 -0.49699239714E+01  0.69662213576E+01  0.10272933336E+02  0.51100000000E-03 0. -1.
        -12    1    3    3    0    0  0.32285526400E+01 -0.62324009308E+01 -0.24729999197E+01  0.74419152182E+01  0.00000000000E+00 0.  1.
</event>
<event>
 7    1  0.4011333E-009  0.4778727E+02  0.7816164E-02  0.1312668E+00
        -11   -1    0    0    0    0  0.00000000000E+00  0.00000000000E+00  0.45593999997E+02  0.45594000000E+02  0.51100000000E-03 0. -1.
         11   -1    0    0    0    0 -0.00000000000E+00 -0.00000000000E+00 -0.45593999997E+02  0.45594000000E+02  0.51100000000E-03 0.  1.
    9900012    2    1    2    0    0 -0.90913686376E+01  0.32615194681E+02  0.27151780963E+02  0.47787272848E+02  0.20000008225E+02 0.  0.
        -12    1    1    2    0    0  0.90913686376E+01 -0.32615194681E+02 -0.27151780963E+02  0.43400727152E+02  0.00000000000E+00 0.  1.
         11    1    3    3    0    0 -0.13151593915E+01  0.13323357674E+02  0.10545990608E+01  0.13429582398E+02  0.51100000000E-03 0. -1.
        -11    1    3    3    0    0 -0.25752776350E+01  0.43684233733E+01  0.18158839234E+01  0.53863357071E+01  0.51100000000E-03 0.  1.
         12    1    3    3    0    0 -0.52009316111E+01  0.14923413634E+02  0.24281297979E+02  0.28971354743E+02  0.00000000000E+00 0. -1.
</event>
<event>
 7    1  0.4011333E-009  0.4778727E+02  0.7816164E-02  0.1312668E+00
        -11   -1    0    0    0    0  0.00000000000E+00  0.00000000000E+00  0.45593999997E+02  0.45594000000E+02  0.51100000000E-03 0.  1.
         11   -1    0    0    0    0 -0.00000000000E+00 -0.00000000000E+00 -0.45593999997E+02  0.45594000000E+02  0.51100000000E-03 0. -1.
    9900012    2    1    2    0    0 -0.26714198230E+02  0.24146054881E+02 -0.24226902394E+02  0.47787272437E+02  0.20000006347E+02 0.  0.
        -12    1    1    2    0    0  0.26714198230E+02 -0.24146054881E+02  0.24226902394E+02  0.43400727563E+02  0.00000000000E+00 0.  1.
         11    1    3    3    0    0 -0.14443663677E+02  0.21317978345E+02 -0.20624165488E+02  0.32991390141E+02  0.51100000000E-03 0. -1.
        -11    1    3    3    0    0  0.39657489976E+00 -0.89585342220E+00 -0.87572280364E+00  0.13140455453E+01  0.51100000000E-03 0.  1.
         12    1    3    3    0    0 -0.12667109453E+02  0.37239299590E+01 -0.27270141023E+01  0.13481836750E+02  0.00000000000E+00 0. -1.
</event>
<event>
 7    1  0.4011333E-009  0.4778727E+02  0.7816164E-02  0.1312668E+00
        -11   -1    0    0    0    0  0.00000000000E+00  0.00000000000E+00  0.45593999997E+02  0.45594000000E+02  0.51100000000E-03 0.  1.
         11   -1    0    0    0    0 -0.00000000000E+00 -0.00000000000E+00 -0.45593999997E+02  0.45594000000E+02  0.51100000000E-03 0. -1.
    9900012    2    1    2    0    0 -0.31592610745E+02  0.29505672846E+02 -0.38659734298E+01  0.47787268044E+02  0.19999986318E+02 0.  0.
        -12    1    1    2    0    0  0.31592610745E+02 -0.29505672846E+02  0.38659734298E+01  0.43400731956E+02  0.00000000000E+00 0.  1.
         11    1    3    3    0    0 -0.18678302598E+02  0.75467877825E+01  0.32252725778E+01  0.20401847398E+02  0.51100000000E-03 0. -1.
        -11    1    3    3    0    0 -0.40785162016E+01  0.18342852790E+01 -0.12619143542E+01  0.46466466393E+01  0.51100000000E-03 0.  1.
        -12    1    3    3    0    0 -0.88357919447E+01  0.20124599785E+02 -0.58293316534E+01  0.22738774007E+02  0.00000000000E+00 0.  1.
</event>
<event>
 7    1  0.4011333E-009  0.4778728E+02  0.7816164E-02  0.1312668E+00
        -11   -1    0    0    0    0  0.00000000000E+00  0.00000000000E+00  0.45593999997E+02  0.45594000000E+02  0.51100000000E-03 0.  1.
         11   -1    0    0    0    0 -0.00000000000E+00 -0.00000000000E+00 -0.45593999997E+02  0.45594000000E+02  0.51100000000E-03 0. -1.
    9900012    2    1    2    0    0  0.35835191489E+01 -0.10321863210E+02 -0.42002853230E+02  0.47787284003E+02  0.20000059084E+02 0.  0.
        -12    1    1    2    0    0 -0.35835191489E+01  0.10321863210E+02  0.42002853230E+02  0.43400715997E+02  0.00000000000E+00 0.  1.
         11    1    3    3    0    0  0.49705758536E+01 -0.41562965189E+01 -0.13485397408E+02  0.14961195427E+02  0.51100000000E-03 0. -1.
        -11    1    3    3    0    0  0.48342864484E+01  0.16580788537E+01 -0.16063309801E+02  0.16856733758E+02  0.51100000000E-03 0.  1.
        -12    1    3    3    0    0 -0.62213431530E+01 -0.78236455449E+01 -0.12454146020E+02  0.15969354819E+02  0.00000000000E+00 0.  1.
</event>
<event>
 7    1  0.4011333E-009  0.4778727E+02  0.7816164E-02  0.1312668E+00
        -11   -1    0    0    0    0  0.00000000000E+00  0.00000000000E+00  0.45593999997E+02  0.45594000000E+02  0.51100000000E-03 0.  1.
         11   -1    0    0    0    0 -0.00000000000E+00 -0.00000000000E+00 -0.45593999997E+02  0.45594000000E+02  0.51100000000E-03 0. -1.
    9900012    2    1    2    0    0 -0.12484403142E+02 -0.13578757487E+02 -0.39285877702E+02  0.47787272315E+02  0.20000005794E+02 0.  0.
        -12    1    1    2    0    0  0.12484403142E+02  0.13578757487E+02  0.39285877702E+02  0.43400727685E+02  0.00000000000E+00 0.  1.
         11    1    3    3    0    0  0.12006938457E+01  0.13209670590E+01 -0.84960352153E+00  0.19769790305E+01  0.51100000000E-03 0. -1.
        -11    1    3    3    0    0 -0.54945424226E+01 -0.13237576176E+02 -0.14209558588E+02  0.20182541340E+02  0.51100000000E-03 0.  1.
         12    1    3    3    0    0 -0.81905545654E+01 -0.16621483710E+01 -0.24226715593E+02  0.25627751944E+02  0.00000000000E+00 0. -1.
</event>
<event>
 7    1  0.4011333E-009  0.4778727E+02  0.7816164E-02  0.1312668E+00
        -11   -1    0    0    0    0  0.00000000000E+00  0.00000000000E+00  0.45593999997E+02  0.45594000000E+02  0.51100000000E-03 0.  1.
         11   -1    0    0    0    0 -0.00000000000E+00 -0.00000000000E+00 -0.45593999997E+02  0.45594000000E+02  0.51100000000E-03 0. -1.
    9900012    2    1    2    0    0 -0.38995517214E+02  0.12389553999E+02  0.14473138231E+02  0.47787272571E+02  0.20000006962E+02 0.  0.
        -12    1    1    2    0    0  0.38995517214E+02 -0.12389553999E+02 -0.14473138231E+02  0.43400727429E+02  0.00000000000E+00 0.  1.
         11    1    3    3    0    0 -0.36454841506E+01  0.82870164251E+00 -0.13090817298E+01  0.39610600022E+01  0.51100000000E-03 0. -1.
        -11    1    3    3    0    0 -0.58910334270E+01  0.58799199129E+01  0.10441165602E+02  0.13352740259E+02  0.51100000000E-03 0.  1.
        -12    1    3    3    0    0 -0.29458999636E+02  0.56809324439E+01  0.53410543592E+01  0.30473472311E+02  0.00000000000E+00 0.  1.
</event>
<event>
 7    1  0.4011333E-009  0.4778730E+02  0.7816164E-02  0.1312668E+00
        -11   -1    0    0    0    0  0.00000000000E+00  0.00000000000E+00  0.45593999997E+02  0.45594000000E+02  0.51100000000E-03 0.  1.
         11   -1    0    0    0    0 -0.00000000000E+00 -0.00000000000E+00 -0.45593999997E+02  0.45594000000E+02  0.51100000000E-03 0. -1.
    9900012    2    1    2    0    0  0.18541253803E+02 -0.24340311252E+02 -0.30779728247E+02  0.47787302824E+02  0.20000144895E+02 0.  0.
        -12    1    1    2    0    0 -0.18541253803E+02  0.24340311252E+02  0.30779728247E+02  0.43400697176E+02  0.00000000000E+00 0.  1.
         11    1    3    3    0    0  0.37039014841E+01 -0.46872123131E+01 -0.12650695196E+02  0.13990315746E+02  0.51100000000E-03 0. -1.
        -11    1    3    3    0    0  0.13996291276E+02 -0.20296725282E+02 -0.19933386063E+02  0.31704780505E+02  0.51100000000E-03 0.  1.
        -12    1    3    3    0    0  0.84106104312E+00  0.64362634402E+00  0.18043530124E+01  0.20922065726E+01  0.00000000000E+00 0.  1.
</event>
<event>
 7    1  0.4011333E-009  0.4778727E+02  0.7816164E-02  0.1312668E+00
        -11   -1    0    0    0    0  0.00000000000E+00  0.00000000000E+00  0.45593999997E+02  0.45594000000E+02  0.51100000000E-03 0.  1.
         11   -1    0    0    0    0 -0.00000000000E+00 -0.00000000000E+00 -0.45593999997E+02  0.45594000000E+02  0.51100000000E-03 0. -1.
    9900012    2    1    2    0    0 -0.20879808492E+02  0.38014171380E+02  0.16062284807E+01  0.47787267306E+02  0.19999982957E+02 0.  0.
        -12    1    1    2    0    0  0.20879808492E+02 -0.38014171380E+02 -0.16062284807E+01  0.43400732694E+02  0.00000000000E+00 0.  1.
         11    1    3    3    0    0 -0.67858478392E+01  0.21835163149E+01  0.38959783243E+01  0.81236766159E+01  0.51100000000E-03 0. -1.
        -11    1    3    3    0    0 -0.12426635599E+00  0.78521323687E+01 -0.29379312391E+01  0.83846803809E+01  0.51100000000E-03 0.  1.
        -12    1    3    3    0    0 -0.13969694297E+02  0.27978522697E+02  0.64818139553E+00  0.31278910310E+02  0.00000000000E+00 0.  1.
</event>
<event>
 7    1  0.4011333E-009  0.4778728E+02  0.7816164E-02  0.1312668E+00
        -11   -1    0    0    0    0  0.00000000000E+00  0.00000000000E+00  0.45593999997E+02  0.45594000000E+02  0.51100000000E-03 0. -1.
         11   -1    0    0    0    0 -0.00000000000E+00 -0.00000000000E+00 -0.45593999997E+02  0.45594000000E+02  0.51100000000E-03 0.  1.
    9900012    2    1    2    0    0  0.91259081647E+01  0.40651578800E+02  0.12156876897E+02  0.47787277487E+02  0.20000029373E+02 0.  0.
        -12    1    1    2    0    0 -0.91259081647E+01 -0.40651578800E+02 -0.12156876897E+02  0.43400722513E+02  0.00000000000E+00 0.  1.
         11    1    3    3    0    0  0.37782879825E+00 -0.67281887481E+00  0.12076868102E+01  0.14331599812E+01  0.51100000000E-03 0. -1.
        -11    1    3    3    0    0  0.13779232444E+01 -0.79934184938E+00 -0.10874748522E+01  0.19287876179E+01  0.51100000000E-03 0.  1.
         12    1    3    3    0    0  0.73701561220E+01  0.42123739524E+02  0.12036664939E+02  0.44425329888E+02  0.00000000000E+00 0. -1.
</event>
<event>
 7    1  0.4011333E-009  0.4778727E+02  0.7816164E-02  0.1312668E+00
        -11   -1    0    0    0    0  0.00000000000E+00  0.00000000000E+00  0.45593999997E+02  0.45594000000E+02  0.51100000000E-03 0.  1.
         11   -1    0    0    0    0 -0.00000000000E+00 -0.00000000000E+00 -0.45593999997E+02  0.45594000000E+02  0.51100000000E-03 0. -1.
    9900012    2    1    2    0    0  0.16667585315E+01  0.86096744759E+01 -0.42505513857E+02  0.47787270895E+02  0.19999999319E+02 0.  0.
        -12    1    1    2    0    0 -0.16667585315E+01 -0.86096744759E+01  0.42505513857E+02  0.43400729105E+02  0.00000000000E+00 0.  1.
         11    1    3    3    0    0  0.60308699889E+01  0.10888595628E+02 -0.21443367746E+02  0.24794171253E+02  0.51100000000E-03 0. -1.
        -11    1    3    3    0    0  0.24061886151E+00 -0.11643213510E+00  0.64479420580E+00  0.69800695380E+00  0.51100000000E-03 0.  1.
        -12    1    3    3    0    0 -0.46047303189E+01 -0.21624890169E+01 -0.21706940317E+02  0.22295092688E+02  0.00000000000E+00 0.  1.
</event>
<event>
 7    1  0.4011333E-009  0.4778727E+02  0.7816164E-02  0.1312668E+00
        -11   -1    0    0    0    0  0.00000000000E+00  0.00000000000E+00  0.45593999997E+02  0.45594000000E+02  0.51100000000E-03 0. -1.
         11   -1    0    0    0    0 -0.00000000000E+00 -0.00000000000E+00 -0.45593999997E+02  0.45594000000E+02  0.51100000000E-03 0.  1.
    9900012    2    1    2    0    0 -0.15358233046E+01  0.33651796621E+02  0.27364595884E+02  0.47787271009E+02  0.19999999839E+02 0.  0.
        -12    1    1    2    0    0  0.15358233046E+01 -0.33651796621E+02 -0.27364595884E+02  0.43400728991E+02  0.00000000000E+00 0.  1.
         11    1    3    3    0    0 -0.34332193604E+01  0.60973000985E+01  0.84141577103E+01  0.10943587798E+02  0.51100000000E-03 0.  1.
        -11    1    3    3    0    0 -0.59428005287E+01  0.18703106263E+02  0.13526689959E+02  0.23834731035E+02  0.51100000000E-03 0. -1.
        -12    1    3    3    0    0  0.78401965845E+01  0.88513902588E+01  0.54237482152E+01  0.13008952175E+02  0.00000000000E+00 0.  1.
</event>
<event>
 7    1  0.4011333E-009  0.4778727E+02  0.7816164E-02  0.1312668E+00
        -11   -1    0    0    0    0  0.00000000000E+00  0.00000000000E+00  0.45593999997E+02  0.45594000000E+02  0.51100000000E-03 0.  1.
         11   -1    0    0    0    0 -0.00000000000E+00 -0.00000000000E+00 -0.45593999997E+02  0.45594000000E+02  0.51100000000E-03 0. -1.
    9900012    2    1    2    0    0 -0.70586173140E+01  0.97227756858E+01 -0.41704515806E+02  0.47787273232E+02  0.20000009974E+02 0.  0.
        -12    1    1    2    0    0  0.70586173140E+01 -0.97227756858E+01  0.41704515806E+02  0.43400726768E+02  0.00000000000E+00 0.  1.
         11    1    3    3    0    0  0.43319378155E+00 -0.63678938814E+00  0.10271108071E+00  0.77698610313E+00  0.51100000000E-03 0. -1.
        -11    1    3    3    0    0 -0.10915567479E+02  0.10735470352E+02 -0.21390157961E+02  0.26304729517E+02  0.51100000000E-03 0.  1.
         12    1    3    3    0    0  0.34237563833E+01 -0.37590527808E+00 -0.20417068925E+02  0.20705557612E+02  0.00000000000E+00 0. -1.
</event>
<event>
 7    1  0.4011333E-009  0.4778727E+02  0.7816164E-02  0.1312668E+00
        -11   -1    0    0    0    0  0.00000000000E+00  0.00000000000E+00  0.45593999997E+02  0.45594000000E+02  0.51100000000E-03 0.  1.
         11   -1    0    0    0    0 -0.00000000000E+00 -0.00000000000E+00 -0.45593999997E+02  0.45594000000E+02  0.51100000000E-03 0. -1.
    9900012    2    1    2    0    0 -0.98455707564E+01 -0.75769781248E+00 -0.42262442228E+02  0.47787269677E+02  0.19999993764E+02 0.  0.
        -12    1    1    2    0    0  0.98455707564E+01  0.75769781248E+00  0.42262442228E+02  0.43400730323E+02  0.00000000000E+00 0.  1.
         11    1    3    3    0    0 -0.11313241413E+01  0.32336546876E+01 -0.24118941122E+01  0.41897076773E+01  0.51100000000E-03 0. -1.
        -11    1    3    3    0    0  0.32569210127E+01 -0.41845822669E+01 -0.82738713393E+01  0.98272687168E+01  0.51100000000E-03 0.  1.
         12    1    3    3    0    0 -0.11971167628E+02  0.19322976682E+00 -0.31576676777E+02  0.33770293283E+02  0.00000000000E+00 0. -1.
</event>
<event>
 7    1  0.4011333E-009  0.4778727E+02  0.7816164E-02  0.1312668E+00
        -11   -1    0    0    0    0  0.00000000000E+00  0.00000000000E+00  0.45593999997E+02  0.45594000000E+02  0.51100000000E-03 0.  1.
         11   -1    0    0    0    0 -0.00000000000E+00 -0.00000000000E+00 -0.45593999997E+02  0.45594000000E+02  0.51100000000E-03 0. -1.
    9900012    2    1    2    0    0  0.18548546279E+02  0.35341685035E+02  0.17045233165E+02  0.47787271391E+02  0.20000001580E+02 0.  0.
        -12    1    1    2    0    0 -0.18548546279E+02 -0.35341685035E+02 -0.17045233165E+02  0.43400728609E+02  0.00000000000E+00 0.  1.
         11    1    3    3    0    0  0.46893983618E+01  0.20719338722E+02  0.83852395006E+01  0.22838425861E+02  0.51100000000E-03 0. -1.
        -11    1    3    3    0    0  0.16045393559E+01  0.61215354635E+01  0.77516854711E+01  0.10006816221E+02  0.51100000000E-03 0.  1.
        -12    1    3    3    0    0  0.12254608562E+02  0.85008108489E+01  0.90830819287E+00  0.14942029309E+02  0.00000000000E+00 0.  1.
</event>
<event>
 7    1  0.4011333E-009  0.4778727E+02  0.7816164E-02  0.1312668E+00
        -11   -1    0    0    0    0  0.00000000000E+00  0.00000000000E+00  0.45593999997E+02  0.45594000000E+02  0.51100000000E-03 0.  1.
         11   -1    0    0    0    0 -0.00000000000E+00 -0.00000000000E+00 -0.45593999997E+02  0.45594000000E+02  0.51100000000E-03 0. -1.
    9900012    2    1    2    0    0 -0.68593812977E+00  0.43717461655E+01 -0.43174540641E+02  0.47787266882E+02  0.19999981020E+02 0.  0.
        -12    1    1    2    0    0  0.68593812977E+00 -0.43717461655E+01  0.43174540641E+02  0.43400733118E+02  0.00000000000E+00 0.  1.
         11    1    3    3    0    0 -0.22197316752E+01 -0.12356758977E+01 -0.24242730375E+02  0.24375481122E+02  0.51100000000E-03 0. -1.
        -11    1    3    3    0    0  0.50309409075E+01  0.34784751126E+01 -0.18267225767E+02  0.19263999923E+02  0.51100000000E-03 0.  1.
        -12    1    3    3    0    0 -0.34971473621E+01  0.21289469506E+01 -0.66458449852E+00  0.41477858366E+01  0.00000000000E+00 0.  1.
</event>
<event>
 7    1  0.4011333E-009  0.4778727E+02  0.7816164E-02  0.1312668E+00
        -11   -1    0    0    0    0  0.00000000000E+00  0.00000000000E+00  0.45593999997E+02  0.45594000000E+02  0.51100000000E-03 0.  1.
         11   -1    0    0    0    0 -0.00000000000E+00 -0.00000000000E+00 -0.45593999997E+02  0.45594000000E+02  0.51100000000E-03 0. -1.
    9900012    2    1    2    0    0 -0.28366312605E+01 -0.10423532714E+01 -0.43295383379E+02  0.47787271905E+02  0.20000003923E+02 0.  0.
        -12    1    1    2    0    0  0.28366312605E+01  0.10423532714E+01  0.43295383379E+02  0.43400728095E+02  0.00000000000E+00 0.  1.
         11    1    3    3    0    0 -0.26190795594E+01  0.56334632800E+01 -0.65985756520E+01  0.90629292815E+01  0.51100000000E-03 0. -1.
        -11    1    3    3    0    0 -0.82151570338E+00 -0.44488257551E+01 -0.42873273040E+01  0.62328255489E+01  0.51100000000E-03 0.  1.
         12    1    3    3    0    0  0.60396400227E+00 -0.22269907963E+01 -0.32409480423E+02  0.32491517075E+02  0.00000000000E+00 0. -1.
</event>
<event>
 7    1  0.4011333E-009  0.4778727E+02  0.7816164E-02  0.1312668E+00
        -11   -1    0    0    0    0  0.00000000000E+00  0.00000000000E+00  0.45593999997E+02  0.45594000000E+02  0.51100000000E-03 0.  1.
         11   -1    0    0    0    0 -0.00000000000E+00 -0.00000000000E+00 -0.45593999997E+02  0.45594000000E+02  0.51100000000E-03 0. -1.
    9900012    2    1    2    0    0  0.36392026999E+02  0.50344966069E+00 -0.23642966909E+02  0.47787274488E+02  0.20000015703E+02 0.  0.
        -12    1    1    2    0    0 -0.36392026999E+02 -0.50344966069E+00  0.23642966909E+02  0.43400725512E+02  0.00000000000E+00 0.  1.
         11    1    3    3    0    0  0.81922300201E+01  0.67009133048E+01 -0.47289259131E+01  0.11592135799E+02  0.51100000000E-03 0. -1.
        -11    1    3    3    0    0  0.65541248352E+00  0.61434770139E+00 -0.40791510209E+01  0.41768962082E+01  0.51100000000E-03 0.  1.
        -12    1    3    3    0    0  0.27544384495E+02 -0.68118113455E+01 -0.14834889975E+02  0.32018242482E+02  0.00000000000E+00 0.  1.
</event>
<event>
 7    1  0.4011333E-009  0.4778727E+02  0.7816164E-02  0.1312668E+00
        -11   -1    0    0    0    0  0.00000000000E+00  0.00000000000E+00  0.45593999997E+02  0.45594000000E+02  0.51100000000E-03 0. -1.
         11   -1    0    0    0    0 -0.00000000000E+00 -0.00000000000E+00 -0.45593999997E+02  0.45594000000E+02  0.51100000000E-03 0.  1.
    9900012    2    1    2    0    0  0.37077473013E+02  0.22417605089E+02  0.25169758735E+01  0.47787272005E+02  0.20000004379E+02 0.  0.
        -12    1    1    2    0    0 -0.37077473013E+02 -0.22417605089E+02 -0.25169758735E+01  0.43400727995E+02  0.00000000000E+00 0.  1.
         11    1    3    3    0    0  0.20257564059E+02  0.38578072939E+01  0.47121016186E+00  0.20627011854E+02  0.51100000000E-03 0. -1.
        -11    1    3    3    0    0  0.12861108970E+02  0.13827483287E+02  0.60209891015E+01  0.19820689393E+02  0.51100000000E-03 0.  1.
        -12    1    3    3    0    0  0.39587999836E+01  0.47323145081E+01 -0.39752233899E+01  0.73395707581E+01  0.00000000000E+00 0.  1.
</event>
<event>
 7    1  0.4011333E-009  0.4778728E+02  0.7816164E-02  0.1312668E+00
        -11   -1    0    0    0    0  0.00000000000E+00  0.00000000000E+00  0.45593999997E+02  0.45594000000E+02  0.51100000000E-03 0.  1.
         11   -1    0    0    0    0 -0.00000000000E+00 -0.00000000000E+00 -0.45593999997E+02  0.45594000000E+02  0.51100000000E-03 0. -1.
    9900012    2    1    2    0    0 -0.16574878600E+02 -0.28524055477E+02 -0.28200612336E+02  0.47787275610E+02  0.20000020818E+02 0.  0.
        -12    1    1    2    0    0  0.16574878600E+02  0.28524055477E+02  0.28200612336E+02  0.43400724390E+02  0.00000000000E+00 0.  1.
         11    1    3    3    0    0 -0.51957138389E+01 -0.98700673388E+01 -0.14742892279E+02  0.18486929019E+02  0.51100000000E-03 0. -1.
        -11    1    3    3    0    0 -0.52385713927E+01 -0.67942742890E+01 -0.13440406960E+02  0.15945197800E+02  0.51100000000E-03 0.  1.
        -12    1    3    3    0    0 -0.61405933680E+01 -0.11859713849E+02 -0.17313096872E-01  0.13355148791E+02  0.00000000000E+00 0.  1.
</event>
<event>
 7    1  0.4011333E-009  0.4778727E+02  0.7816164E-02  0.1312668E+00
        -11   -1    0    0    0    0  0.00000000000E+00  0.00000000000E+00  0.45593999997E+02  0.45594000000E+02  0.51100000000E-03 0. -1.
         11   -1    0    0    0    0 -0.00000000000E+00 -0.00000000000E+00 -0.45593999997E+02  0.45594000000E+02  0.51100000000E-03 0.  1.
    9900012    2    1    2    0    0 -0.19895907709E+02 -0.62768528037E+01  0.38057553594E+02  0.47787269473E+02  0.19999992835E+02 0.  0.
        -12    1    1    2    0    0  0.19895907709E+02  0.62768528037E+01 -0.38057553594E+02  0.43400730527E+02  0.00000000000E+00 0.  1.
         11    1    3    3    0    0 -0.24306748972E+01 -0.55187194465E+01  0.42604504592E+01  0.73834871952E+01  0.51100000000E-03 0.  1.
        -11    1    3    3    0    0 -0.13832794940E+02 -0.36094397699E+01  0.13762624531E+02  0.19843994193E+02  0.51100000000E-03 0. -1.
        -12    1    3    3    0    0 -0.36324378724E+01  0.28513064127E+01  0.20034478604E+02  0.20559788084E+02  0.00000000000E+00 0.  1.
</event>
<event>
 7    1  0.4011333E-009  0.4778727E+02  0.7816164E-02  0.1312668E+00
        -11   -1    0    0    0    0  0.00000000000E+00  0.00000000000E+00  0.45593999997E+02  0.45594000000E+02  0.51100000000E-03 0. -1.
         11   -1    0    0    0    0 -0.00000000000E+00 -0.00000000000E+00 -0.45593999997E+02  0.45594000000E+02  0.51100000000E-03 0.  1.
    9900012    2    1    2    0    0  0.35709425628E+02  0.20200923709E+02 -0.14155664364E+02  0.47787271539E+02  0.20000002253E+02 0.  0.
        -12    1    1    2    0    0 -0.35709425628E+02 -0.20200923709E+02  0.14155664364E+02  0.43400728461E+02  0.00000000000E+00 0.  1.
         11    1    3    3    0    0  0.60549902306E+01  0.11784340330E+02 -0.71656160130E+01  0.15062524251E+02  0.51100000000E-03 0. -1.
        -11    1    3    3    0    0  0.51156076989E+01  0.11571624843E+01 -0.46822678142E+01  0.70307964904E+01  0.51100000000E-03 0.  1.
         12    1    3    3    0    0  0.24538827699E+02  0.72594208948E+01 -0.23077805363E+01  0.25693950797E+02  0.00000000000E+00 0. -1.
</event>
<event>
 7    1  0.4011333E-009  0.4778727E+02  0.7816164E-02  0.1312668E+00
        -11   -1    0    0    0    0  0.00000000000E+00  0.00000000000E+00  0.45593999997E+02  0.45594000000E+02  0.51100000000E-03 0.  1.
         11   -1    0    0    0    0 -0.00000000000E+00 -0.00000000000E+00 -0.45593999997E+02  0.45594000000E+02  0.51100000000E-03 0. -1.
    9900012    2    1    2    0    0 -0.33363595753E+02  0.20675680414E+02 -0.18520526072E+02  0.47787272263E+02  0.20000005555E+02 0.  0.
        -12    1    1    2    0    0  0.33363595753E+02 -0.20675680414E+02  0.18520526072E+02  0.43400727737E+02  0.00000000000E+00 0.  1.
         11    1    3    3    0    0 -0.13412326862E+01 -0.14245369668E+01  0.11948282278E+01  0.22925587110E+01  0.51100000000E-03 0.  1.
        -11    1    3    3    0    0 -0.21209188360E+02  0.68168657162E+01 -0.10895032636E+02  0.24799215017E+02  0.51100000000E-03 0. -1.
         12    1    3    3    0    0 -0.10813174707E+02  0.15283351665E+02 -0.88203216639E+01  0.20695498535E+02  0.00000000000E+00 0. -1.
</event>
<event>
 7    1  0.4011333E-009  0.4778728E+02  0.7816164E-02  0.1312668E+00
        -11   -1    0    0    0    0  0.00000000000E+00  0.00000000000E+00  0.45593999997E+02  0.45594000000E+02  0.51100000000E-03 0.  1.
         11   -1    0    0    0    0 -0.00000000000E+00 -0.00000000000E+00 -0.45593999997E+02  0.45594000000E+02  0.51100000000E-03 0. -1.
    9900012    2    1    2    0    0 -0.90466576100E+00 -0.56969014698E+00 -0.43387554928E+02  0.47787275471E+02  0.20000020181E+02 0.  0.
        -12    1    1    2    0    0  0.90466576100E+00  0.56969014698E+00  0.43387554928E+02  0.43400724529E+02  0.00000000000E+00 0.  1.
         11    1    3    3    0    0  0.18133144714E+01 -0.20967596567E+01 -0.14031742714E+02  0.14302947748E+02  0.51100000000E-03 0. -1.
        -11    1    3    3    0    0 -0.90353080292E+01  0.17804297965E+01 -0.21578224375E+02  0.23461169811E+02  0.51100000000E-03 0.  1.
        -12    1    3    3    0    0  0.63173277968E+01 -0.25336028684E+00 -0.77775878386E+01  0.10023157911E+02  0.00000000000E+00 0.  1.
</event>
<event>
 7    1  0.7461873E-009  0.4778727E+02  0.7816164E-02  0.1312668E+00
        -11   -1    0    0    0    0  0.00000000000E+00  0.00000000000E+00  0.45593999997E+02  0.45594000000E+02  0.51100000000E-03 0.  1.
         11   -1    0    0    0    0 -0.00000000000E+00 -0.00000000000E+00 -0.45593999997E+02  0.45594000000E+02  0.51100000000E-03 0. -1.
    9900012    2    1    2    0    0 -0.42294076046E+02 -0.15645029602E+01 -0.96118033632E+01  0.47787270721E+02  0.19999998525E+02 0.  0.
        -12    1    1    2    0    0  0.42294076046E+02  0.15645029602E+01  0.96118033632E+01  0.43400729279E+02  0.00000000000E+00 0.  1.
         11    1    3    3    0    0 -0.22690459238E+02  0.13213974662E+01 -0.40480575010E+01  0.23086571887E+02  0.51100000000E-03 0. -1.
        -11    1    3    3    0    0 -0.79923492842E+01  0.52418483301E+01 -0.24129817319E+00  0.95610065404E+01  0.51100000000E-03 0.  1.
        -12    1    3    3    0    0 -0.11611267524E+02 -0.81277487565E+01 -0.53224476891E+01  0.15139692294E+02  0.00000000000E+00 0.  1.
</event>
<event>
 7    1  0.4011333E-009  0.4778727E+02  0.7816164E-02  0.1312668E+00
        -11   -1    0    0    0    0  0.00000000000E+00  0.00000000000E+00  0.45593999997E+02  0.45594000000E+02  0.51100000000E-03 0. -1.
         11   -1    0    0    0    0 -0.00000000000E+00 -0.00000000000E+00 -0.45593999997E+02  0.45594000000E+02  0.51100000000E-03 0.  1.
    9900012    2    1    2    0    0  0.20906899550E+02  0.25659505632E+02  0.28073383499E+02  0.47787267988E+02  0.19999986066E+02 0.  0.
        -12    1    1    2    0    0 -0.20906899550E+02 -0.25659505632E+02 -0.28073383499E+02  0.43400732012E+02  0.00000000000E+00 0.  1.
         11    1    3    3    0    0  0.12533985780E+02  0.14956648244E+02  0.18623840289E+02  0.26974980141E+02  0.51100000000E-03 0. -1.
        -11    1    3    3    0    0  0.75059885783E+01 -0.14033607855E+00  0.52075317687E+01  0.91366266278E+01  0.51100000000E-03 0.  1.
         12    1    3    3    0    0  0.86692519151E+00  0.10843193467E+02  0.42420114410E+01  0.11675661220E+02  0.00000000000E+00 0. -1.
</event>
<event>
 7    1  0.4011333E-009  0.4778727E+02  0.7816164E-02  0.1312668E+00
        -11   -1    0    0    0    0  0.00000000000E+00  0.00000000000E+00  0.45593999997E+02  0.45594000000E+02  0.51100000000E-03 0.  1.
         11   -1    0    0    0    0 -0.00000000000E+00 -0.00000000000E+00 -0.45593999997E+02  0.45594000000E+02  0.51100000000E-03 0. -1.
    9900012    2    1    2    0    0 -0.97493993845E+01 -0.40490129770E+02  0.12211542362E+02  0.47787272310E+02  0.20000005770E+02 0.  0.
        -12    1    1    2    0    0  0.97493993845E+01  0.40490129770E+02 -0.12211542362E+02  0.43400727690E+02  0.00000000000E+00 0.  1.
         11    1    3    3    0    0 -0.91191094388E+00 -0.26632871868E+01  0.45444910659E+01  0.53457534098E+01  0.51100000000E-03 0. -1.
        -11    1    3    3    0    0  0.11816371992E+01 -0.16679028042E+02  0.90250944896E+01  0.19001015071E+02  0.51100000000E-03 0.  1.
         12    1    3    3    0    0 -0.10019125640E+02 -0.21147814541E+02 -0.13580431939E+01  0.23440503830E+02  0.00000000000E+00 0. -1.
</event>
<event>
 7    1  0.4011333E-009  0.4778727E+02  0.7816164E-02  0.1312668E+00
        -11   -1    0    0    0    0  0.00000000000E+00  0.00000000000E+00  0.45593999997E+02  0.45594000000E+02  0.51100000000E-03 0. -1.
         11   -1    0    0    0    0 -0.00000000000E+00 -0.00000000000E+00 -0.45593999997E+02  0.45594000000E+02  0.51100000000E-03 0.  1.
    9900012    2    1    2    0    0  0.15002983768E+01 -0.18940597701E+02  0.39020845323E+02  0.47787268368E+02  0.19999987797E+02 0.  0.
        -12    1    1    2    0    0 -0.15002983768E+01  0.18940597701E+02 -0.39020845323E+02  0.43400731632E+02  0.00000000000E+00 0.  1.
         11    1    3    3    0    0 -0.59614665279E+01 -0.60626383769E+01  0.90156570201E+01  0.12392608241E+02  0.51100000000E-03 0. -1.
        -11    1    3    3    0    0 -0.10446055505E+01 -0.95817822668E+01  0.14756959125E+02  0.17625821826E+02  0.51100000000E-03 0.  1.
         12    1    3    3    0    0  0.85063704551E+01 -0.32961770574E+01  0.15248229178E+02  0.17768838301E+02  0.00000000000E+00 0. -1.
</event>
<event>
 7    1  0.4011333E-009  0.4778727E+02  0.7816164E-02  0.1312668E+00
        -11   -1    0    0    0    0  0.00000000000E+00  0.00000000000E+00  0.45593999997E+02  0.45594000000E+02  0.51100000000E-03 0.  1.
         11   -1    0    0    0    0 -0.00000000000E+00 -0.00000000000E+00 -0.45593999997E+02  0.45594000000E+02  0.51100000000E-03 0. -1.
    9900012    2    1    2    0    0  0.15730166044E+02 -0.92904842532E+01 -0.39368411747E+02  0.47787273452E+02  0.20000010978E+02 0.  0.
        -12    1    1    2    0    0 -0.15730166044E+02  0.92904842532E+01  0.39368411747E+02  0.43400726548E+02  0.00000000000E+00 0.  1.
         11    1    3    3    0    0  0.45638326548E+01 -0.13732987643E+02 -0.20729847314E+02  0.25281417840E+02  0.51100000000E-03 0. -1.
        -11    1    3    3    0    0  0.16292019825E+01 -0.60103491110E+00 -0.17493700557E+01  0.24649214830E+01  0.51100000000E-03 0.  1.
         12    1    3    3    0    0  0.95371314063E+01  0.50435383010E+01 -0.16889194377E+02  0.20040934129E+02  0.00000000000E+00 0. -1.
</event>
<event>
 7    1  0.4011333E-009  0.4778727E+02  0.7816164E-02  0.1312668E+00
        -11   -1    0    0    0    0  0.00000000000E+00  0.00000000000E+00  0.45593999997E+02  0.45594000000E+02  0.51100000000E-03 0. -1.
         11   -1    0    0    0    0 -0.00000000000E+00 -0.00000000000E+00 -0.45593999997E+02  0.45594000000E+02  0.51100000000E-03 0.  1.
    9900012    2    1    2    0    0 -0.18351251508E+02 -0.91727995434E+01  0.38245454148E+02  0.47787269057E+02  0.19999990938E+02 0.  0.
        -12    1    1    2    0    0  0.18351251508E+02  0.91727995434E+01 -0.38245454148E+02  0.43400730943E+02  0.00000000000E+00 0.  1.
         11    1    3    3    0    0  0.76079832164E+00  0.15379064324E+01  0.18443931929E+01  0.25190785602E+01  0.51100000000E-03 0. -1.
        -11    1    3    3    0    0 -0.88953209346E+01 -0.15353442449E+01  0.36173188378E+01  0.97246600102E+01  0.51100000000E-03 0.  1.
         12    1    3    3    0    0 -0.10216728895E+02 -0.91753617309E+01  0.32783742118E+02  0.35543530487E+02  0.00000000000E+00 0. -1.
</event>
<event>
 7    1  0.4011333E-009  0.4778729E+02  0.7816164E-02  0.1312668E+00
        -11   -1    0    0    0    0  0.00000000000E+00  0.00000000000E+00  0.45593999997E+02  0.45594000000E+02  0.51100000000E-03 0.  1.
         11   -1    0    0    0    0 -0.00000000000E+00 -0.00000000000E+00 -0.45593999997E+02  0.45594000000E+02  0.51100000000E-03 0. -1.
    9900012    2    1    2    0    0 -0.13533066147E+02 -0.91654770080E+01 -0.40205365739E+02  0.47787293988E+02  0.20000104609E+02 0.  0.
        -12    1    1    2    0    0  0.13533066147E+02  0.91654770080E+01  0.40205365739E+02  0.43400706012E+02  0.00000000000E+00 0.  1.
         11    1    3    3    0    0 -0.96633366548E+01 -0.39308161156E+01 -0.18799316393E+02  0.21499899715E+02  0.51100000000E-03 0. -1.
        -11    1    3    3    0    0 -0.33573065370E+01  0.44418668967E+01 -0.77791101561E+01  0.95664122738E+01  0.51100000000E-03 0.  1.
         12    1    3    3    0    0 -0.51242295505E+00 -0.96765277891E+01 -0.13626939190E+02  0.16720981999E+02  0.00000000000E+00 0. -1.
</event>
<event>
 7    1  0.4011333E-009  0.4778727E+02  0.7816164E-02  0.1312668E+00
        -11   -1    0    0    0    0  0.00000000000E+00  0.00000000000E+00  0.45593999997E+02  0.45594000000E+02  0.51100000000E-03 0.  1.
         11   -1    0    0    0    0 -0.00000000000E+00 -0.00000000000E+00 -0.45593999997E+02  0.45594000000E+02  0.51100000000E-03 0. -1.
    9900012    2    1    2    0    0  0.25493922330E+02  0.34179452357E+01 -0.34957128449E+02  0.47787271264E+02  0.20000001003E+02 0.  0.
        -12    1    1    2    0    0 -0.25493922330E+02 -0.34179452357E+01  0.34957128449E+02  0.43400728736E+02  0.00000000000E+00 0.  1.
         11    1    3    3    0    0  0.99518162922E+01  0.73823837827E+01 -0.74975553635E+01  0.14482802716E+02  0.51100000000E-03 0. -1.
        -11    1    3    3    0    0  0.13344348730E+02  0.10224938339E+01 -0.18956518070E+02  0.23204885569E+02  0.51100000000E-03 0.  1.
        -12    1    3    3    0    0  0.21977573073E+01 -0.49869323809E+01 -0.85030550156E+01  0.10099582979E+02  0.00000000000E+00 0.  1.
</event>
<event>
 7    1  0.4011333E-009  0.4778727E+02  0.7816164E-02  0.1312668E+00
        -11   -1    0    0    0    0  0.00000000000E+00  0.00000000000E+00  0.45593999997E+02  0.45594000000E+02  0.51100000000E-03 0. -1.
         11   -1    0    0    0    0 -0.00000000000E+00 -0.00000000000E+00 -0.45593999997E+02  0.45594000000E+02  0.51100000000E-03 0.  1.
    9900012    2    1    2    0    0 -0.14244353132E+02 -0.39314842520E+02 -0.11621731175E+02  0.47787273347E+02  0.20000010499E+02 0.  0.
        -12    1    1    2    0    0  0.14244353132E+02  0.39314842520E+02  0.11621731175E+02  0.43400726653E+02  0.00000000000E+00 0.  1.
         11    1    3    3    0    0  0.61808742659E+00 -0.99989782251E+01 -0.27744382597E+01  0.10395148173E+02  0.51100000000E-03 0. -1.
        -11    1    3    3    0    0 -0.14703363130E+01 -0.15907660472E+02 -0.92057704027E+01  0.18438051945E+02  0.51100000000E-03 0.  1.
         12    1    3    3    0    0 -0.13392104246E+02 -0.13408203823E+02  0.35847748742E+00  0.18954073229E+02  0.00000000000E+00 0. -1.
</event>
<event>
 7    1  0.4011333E-009  0.4778727E+02  0.7816164E-02  0.1312668E+00
        -11   -1    0    0    0    0  0.00000000000E+00  0.00000000000E+00  0.45593999997E+02  0.45594000000E+02  0.51100000000E-03 0. -1.
         11   -1    0    0    0    0 -0.00000000000E+00 -0.00000000000E+00 -0.45593999997E+02  0.45594000000E+02  0.51100000000E-03 0.  1.
    9900012    2    1    2    0    0 -0.38034505158E+01 -0.96137064270E+01  0.42151324092E+02  0.47787266022E+02  0.19999977101E+02 0.  0.
        -12    1    1    2    0    0  0.38034505158E+01  0.96137064270E+01 -0.42151324092E+02  0.43400733978E+02  0.00000000000E+00 0.  1.
         11    1    3    3    0    0  0.37608304208E+00  0.30618184932E+01  0.20463121954E+01  0.37018326275E+01  0.51100000000E-03 0. -1.
        -11    1    3    3    0    0 -0.62392117960E+01 -0.49436888247E+01  0.92209832766E+01  0.12181722205E+02  0.51100000000E-03 0.  1.
         12    1    3    3    0    0  0.20596782381E+01 -0.77318360955E+01  0.30884028620E+02  0.31903711190E+02  0.00000000000E+00 0. -1.
</event>
<event>
 7    1 -0.4011333E-009  0.4778727E+02  0.7816164E-02  0.1312668E+00
        -11   -1    0    0    0    0  0.00000000000E+00  0.00000000000E+00  0.45593999997E+02  0.45594000000E+02  0.51100000000E-03 0. -1.
         11   -1    0    0    0    0 -0.00000000000E+00 -0.00000000000E+00 -0.45593999997E+02  0.45594000000E+02  0.51100000000E-03 0.  1.
    9900012    2    1    2    0    0 -0.18592948668E+02  0.15101217838E+02  0.36192248038E+02  0.47787270301E+02  0.19999996609E+02 0.  0.
        -12    1    1    2    0    0  0.18592948668E+02 -0.15101217838E+02 -0.36192248038E+02  0.43400729699E+02  0.00000000000E+00 0.  1.
         11    1    3    3    0    0 -0.20904857373E+01  0.70989156982E+01  0.68077875390E+01  0.10055381949E+02  0.51100000000E-03 0. -1.
        -11    1    3    3    0    0  0.33814844184E+00 -0.15509228261E+01  0.10726847443E+02  0.10843660005E+02  0.51100000000E-03 0.  1.
        -12    1    3    3    0    0 -0.16840611372E+02  0.95532249660E+01  0.18657613056E+02  0.26888228346E+02  0.00000000000E+00 0.  1.
</event>
<event>
 7    1  0.4011333E-009  0.4778727E+02  0.7816164E-02  0.1312668E+00
        -11   -1    0    0    0    0  0.00000000000E+00  0.00000000000E+00  0.45593999997E+02  0.45594000000E+02  0.51100000000E-03 0.  1.
         11   -1    0    0    0    0 -0.00000000000E+00 -0.00000000000E+00 -0.45593999997E+02  0.45594000000E+02  0.51100000000E-03 0. -1.
    9900012    2    1    2    0    0 -0.23471033461E+02  0.44309274266E+01 -0.36236727904E+02  0.47787274444E+02  0.20000015498E+02 0.  0.
        -12    1    1    2    0    0  0.23471033461E+02 -0.44309274266E+01  0.36236727904E+02  0.43400725556E+02  0.00000000000E+00 0.  1.
         11    1    3    3    0    0 -0.10390763637E+02  0.97369242395E+01 -0.19052997115E+02  0.23786390267E+02  0.51100000000E-03 0. -1.
        -11    1    3    3    0    0  0.13112572163E+01  0.23910472346E+00 -0.13335794565E+01  0.18854710244E+01  0.51100000000E-03 0.  1.
        -12    1    3    3    0    0 -0.14391527041E+02 -0.55451015364E+01 -0.15850151333E+02  0.22115413152E+02  0.00000000000E+00 0.  1.
</event>
<event>
 7    1  0.4011333E-009  0.4778728E+02  0.7816164E-02  0.1312668E+00
        -11   -1    0    0    0    0  0.00000000000E+00  0.00000000000E+00  0.45593999997E+02  0.45594000000E+02  0.51100000000E-03 0.  1.
         11   -1    0    0    0    0 -0.00000000000E+00 -0.00000000000E+00 -0.45593999997E+02  0.45594000000E+02  0.51100000000E-03 0. -1.
    9900012    2    1    2    0    0 -0.28696084719E+02 -0.32088163385E+02 -0.55233503138E+01  0.47787275279E+02  0.20000019307E+02 0.  0.
        -12    1    1    2    0    0  0.28696084719E+02  0.32088163385E+02  0.55233503138E+01  0.43400724721E+02  0.00000000000E+00 0.  1.
         11    1    3    3    0    0 -0.75427721346E+01 -0.10290938545E+02  0.18406462371E+01  0.12891268612E+02  0.51100000000E-03 0. -1.
        -11    1    3    3    0    0 -0.10958859852E+02 -0.46072649545E+01  0.31712687031E+01  0.12303676079E+02  0.51100000000E-03 0.  1.
         12    1    3    3    0    0 -0.10194452732E+02 -0.17189959886E+02 -0.10535265254E+02  0.22592330587E+02  0.00000000000E+00 0. -1.
</event>
<event>
 7    1  0.4011333E-009  0.4778727E+02  0.7816164E-02  0.1312668E+00
        -11   -1    0    0    0    0  0.00000000000E+00  0.00000000000E+00  0.45593999997E+02  0.45594000000E+02  0.51100000000E-03 0.  1.
         11   -1    0    0    0    0 -0.00000000000E+00 -0.00000000000E+00 -0.45593999997E+02  0.45594000000E+02  0.51100000000E-03 0. -1.
    9900012    2    1    2    0    0  0.21241071391E+02  0.16571161041E+02 -0.34027002607E+02  0.47787269608E+02  0.19999993453E+02 0.  0.
        -12    1    1    2    0    0 -0.21241071391E+02 -0.16571161041E+02  0.34027002607E+02  0.43400730392E+02  0.00000000000E+00 0.  1.
         11    1    3    3    0    0  0.14195730509E+02  0.66842876084E+01 -0.56889561988E+01  0.16690197375E+02  0.51100000000E-03 0. -1.
        -11    1    3    3    0    0 -0.56422166098E-01  0.23281945016E+01 -0.37956002673E+01  0.44531174191E+01  0.51100000000E-03 0.  1.
         12    1    3    3    0    0  0.71017630484E+01  0.75586789315E+01 -0.24542446141E+02  0.26643954814E+02  0.00000000000E+00 0. -1.
</event>
<event>
 7    1  0.4011333E-009  0.4778727E+02  0.7816164E-02  0.1312668E+00
        -11   -1    0    0    0    0  0.00000000000E+00  0.00000000000E+00  0.45593999997E+02  0.45594000000E+02  0.51100000000E-03 0.  1.
         11   -1    0    0    0    0 -0.00000000000E+00 -0.00000000000E+00 -0.45593999997E+02  0.45594000000E+02  0.51100000000E-03 0. -1.
    9900012    2    1    2    0    0 -0.24434782746E+02 -0.86486603201E+01 -0.34810418852E+02  0.47787271966E+02  0.20000004202E+02 0.  0.
        -12    1    1    2    0    0  0.24434782746E+02  0.86486603201E+01  0.34810418852E+02  0.43400728034E+02  0.00000000000E+00 0.  1.
         11    1    3    3    0    0 -0.11137493234E+02  0.40180476579E-02 -0.26319337913E+02  0.28578861421E+02  0.51100000000E-03 0. -1.
        -11    1    3    3    0    0  0.68940741100E+00 -0.93358695263E+00 -0.11260667793E+01  0.16170633349E+01  0.51100000000E-03 0.  1.
        -12    1    3    3    0    0 -0.13986696923E+02 -0.77190914152E+01 -0.73650141601E+01  0.17591347210E+02  0.00000000000E+00 0.  1.
</event>
<event>
 7    1  0.4011333E-009  0.4778728E+02  0.7816164E-02  0.1312668E+00
        -11   -1    0    0    0    0  0.00000000000E+00  0.00000000000E+00  0.45593999997E+02  0.45594000000E+02  0.51100000000E-03 0.  1.
         11   -1    0    0    0    0 -0.00000000000E+00 -0.00000000000E+00 -0.45593999997E+02  0.45594000000E+02  0.51100000000E-03 0. -1.
    9900012    2    1    2    0    0  0.37646165192E+02 -0.15452860287E+02 -0.15086352094E+02  0.47787278068E+02  0.20000032024E+02 0.  0.
        -12    1    1    2    0    0 -0.37646165192E+02  0.15452860287E+02  0.15086352094E+02  0.43400721932E+02  0.00000000000E+00 0.  1.
         11    1    3    3    0    0  0.24782610100E+02 -0.61677835594E+01 -0.13967786117E+02  0.29108733512E+02  0.51100000000E-03 0. -1.
        -11    1    3    3    0    0  0.12963156981E+02 -0.91444546730E+01 -0.35374297073E+01  0.16253550362E+02  0.51100000000E-03 0.  1.
         12    1    3    3    0    0 -0.99601889203E-01 -0.14062205414E+00  0.24188637296E+01  0.24249941940E+01  0.00000000000E+00 0. -1.
</event>
<event>
 7    1  0.4812801E-009  0.4778727E+02  0.7816164E-02  0.1312668E+00
        -11   -1    0    0    0    0  0.00000000000E+00  0.00000000000E+00  0.45593999997E+02  0.45594000000E+02  0.51100000000E-03 0. -1.
         11   -1    0    0    0    0 -0.00000000000E+00 -0.00000000000E+00 -0.45593999997E+02  0.45594000000E+02  0.51100000000E-03 0.  1.
    9900012    2    1    2    0    0  0.40667066436E+02  0.15097714802E+02 -0.13681089497E+01  0.47787274121E+02  0.20000014028E+02 0.  0.
        -12    1    1    2    0    0 -0.40667066436E+02 -0.15097714802E+02  0.13681089497E+01  0.43400725879E+02  0.00000000000E+00 0.  1.
         11    1    3    3    0    0  0.25496416200E+02  0.66928202633E+01 -0.52409243862E+00  0.26365427273E+02  0.51100000000E-03 0. -1.
        -11    1    3    3    0    0  0.71375906828E+01  0.15258159162E+01  0.54550192187E+01  0.91121100686E+01  0.51100000000E-03 0.  1.
        -12    1    3    3    0    0  0.80330595526E+01  0.68790786222E+01 -0.62990357297E+01  0.12309736780E+02  0.00000000000E+00 0.  1.
</event>
<event>
 7    1  0.4011333E-009  0.4778728E+02  0.7816164E-02  0.1312668E+00
        -11   -1    0    0    0    0  0.00000000000E+00  0.00000000000E+00  0.45593999997E+02  0.45594000000E+02  0.51100000000E-03 0.  1.
         11   -1    0    0    0    0 -0.00000000000E+00 -0.00000000000E+00 -0.45593999997E+02  0.45594000000E+02  0.51100000000E-03 0. -1.
    9900012    2    1    2    0    0 -0.14956992682E+02  0.12613583580E+02 -0.38740271496E+02  0.47787277006E+02  0.20000027179E+02 0.  0.
        -12    1    1    2    0    0  0.14956992682E+02 -0.12613583580E+02  0.38740271496E+02  0.43400722994E+02  0.00000000000E+00 0.  1.
         11    1    3    3    0    0 -0.28421297541E+01  0.93097286428E+01 -0.13673621874E+02  0.16784417903E+02  0.51100000000E-03 0.  1.
        -11    1    3    3    0    0  0.49243181324E+00  0.53700956238E+01 -0.87732559218E+01  0.10298079230E+02  0.51100000000E-03 0. -1.
         12    1    3    3    0    0 -0.12607294741E+02 -0.20662406864E+01 -0.16293393701E+02  0.20704779872E+02  0.00000000000E+00 0. -1.
</event>
<event>
 7    1  0.4011333E-009  0.4778727E+02  0.7816164E-02  0.1312668E+00
        -11   -1    0    0    0    0  0.00000000000E+00  0.00000000000E+00  0.45593999997E+02  0.45594000000E+02  0.51100000000E-03 0.  1.
         11   -1    0    0    0    0 -0.00000000000E+00 -0.00000000000E+00 -0.45593999997E+02  0.45594000000E+02  0.51100000000E-03 0. -1.
    9900012    2    1    2    0    0  0.21980749490E+02  0.14083119329E+02 -0.34671824996E+02  0.47787273662E+02  0.20000011933E+02 0.  0.
        -12    1    1    2    0    0 -0.21980749490E+02 -0.14083119329E+02  0.34671824996E+02  0.43400726338E+02  0.00000000000E+00 0.  1.
         11    1    3    3    0    0  0.30039070759E+01 -0.11458383219E-01  0.77155515243E+00  0.31014329962E+01  0.51100000000E-03 0. -1.
        -11    1    3    3    0    0  0.12901429831E+02  0.33835730702E+01 -0.10894679835E+02  0.17221774223E+02  0.51100000000E-03 0.  1.
         12    1    3    3    0    0  0.60754125823E+01  0.10711004642E+02 -0.24548700314E+02  0.27464066443E+02  0.00000000000E+00 0. -1.
</event>
<event>
 7    1  0.4011333E-009  0.4778727E+02  0.7816164E-02  0.1312668E+00
        -11   -1    0    0    0    0  0.00000000000E+00  0.00000000000E+00  0.45593999997E+02  0.45594000000E+02  0.51100000000E-03 0. -1.
         11   -1    0    0    0    0 -0.00000000000E+00 -0.00000000000E+00 -0.45593999997E+02  0.45594000000E+02  0.51100000000E-03 0.  1.
    9900012    2    1    2    0    0  0.34755733400E+02  0.61555829490E+01  0.25254127189E+02  0.47787272521E+02  0.20000006734E+02 0.  0.
        -12    1    1    2    0    0 -0.34755733400E+02 -0.61555829490E+01 -0.25254127189E+02  0.43400727479E+02  0.00000000000E+00 0.  1.
         11    1    3    3    0    0  0.79150877963E+01 -0.87061601211E+00  0.14125670329E+02  0.16215460202E+02  0.51100000000E-03 0. -1.
        -11    1    3    3    0    0  0.20659844945E+01 -0.21412958213E+01  0.19398932594E+00  0.29817900405E+01  0.51100000000E-03 0.  1.
         12    1    3    3    0    0  0.24774661109E+02  0.91674947824E+01  0.10934467534E+02  0.28590022279E+02  0.00000000000E+00 0. -1.
</event>
<event>
 7    1  0.4011333E-009  0.4778727E+02  0.7816164E-02  0.1312668E+00
        -11   -1    0    0    0    0  0.00000000000E+00  0.00000000000E+00  0.45593999997E+02  0.45594000000E+02  0.51100000000E-03 0.  1.
         11   -1    0    0    0    0 -0.00000000000E+00 -0.00000000000E+00 -0.45593999997E+02  0.45594000000E+02  0.51100000000E-03 0. -1.
    9900012    2    1    2    0    0  0.31834139045E+02  0.29478855272E+02  0.10989784525E+01  0.47787273388E+02  0.20000010683E+02 0.  0.
        -12    1    1    2    0    0 -0.31834139045E+02 -0.29478855272E+02 -0.10989784525E+01  0.43400726612E+02  0.00000000000E+00 0.  1.
         11    1    3    3    0    0  0.10060921916E+02  0.51509833699E+01 -0.40624403835E+01  0.12010753582E+02  0.51100000000E-03 0. -1.
        -11    1    3    3    0    0  0.24900816750E+01  0.57854486400E+01 -0.40441467352E+01  0.74851216283E+01  0.51100000000E-03 0.  1.
         12    1    3    3    0    0  0.19283135454E+02  0.18542423262E+02  0.92055655712E+01  0.28291398177E+02  0.00000000000E+00 0. -1.
</event>
<event>
 7    1  0.4011333E-009  0.4778728E+02  0.7816164E-02  0.1312668E+00
        -11   -1    0    0    0    0  0.00000000000E+00  0.00000000000E+00  0.45593999997E+02  0.45594000000E+02  0.51100000000E-03 0. -1.
         11   -1    0    0    0    0 -0.00000000000E+00 -0.00000000000E+00 -0.45593999997E+02  0.45594000000E+02  0.51100000000E-03 0.  1.
    9900012    2    1    2    0    0 -0.80948045606E+01 -0.41025042056E+02 -0.11620799058E+02  0.47787275268E+02  0.20000019256E+02 0.  0.
        -12    1    1    2    0    0  0.80948045606E+01  0.41025042056E+02  0.11620799058E+02  0.43400724732E+02  0.00000000000E+00 0.  1.
         11    1    3    3    0    0 -0.11380459032E+02 -0.15704787203E+02 -0.93929540170E+01  0.21549542322E+02  0.51100000000E-03 0.  1.
        -11    1    3    3    0    0  0.35978148683E+01 -0.79115162138E+01 -0.14291685974E+01  0.88078875884E+01  0.51100000000E-03 0. -1.
        -12    1    3    3    0    0 -0.31216039660E+00 -0.17408738639E+02 -0.79867644397E+00  0.17429845357E+02  0.00000000000E+00 0.  1.
</event>
<event>
 7    1  0.4011333E-009  0.4778727E+02  0.7816164E-02  0.1312668E+00
        -11   -1    0    0    0    0  0.00000000000E+00  0.00000000000E+00  0.45593999997E+02  0.45594000000E+02  0.51100000000E-03 0.  1.
         11   -1    0    0    0    0 -0.00000000000E+00 -0.00000000000E+00 -0.45593999997E+02  0.45594000000E+02  0.51100000000E-03 0. -1.
    9900012    2    1    2    0    0  0.19415656663E+02 -0.14511289027E+02 -0.36001083062E+02  0.47787271728E+02  0.20000003118E+02 0.  0.
        -12    1    1    2    0    0 -0.19415656663E+02  0.14511289027E+02  0.36001083062E+02  0.43400728272E+02  0.00000000000E+00 0.  1.
         11    1    3    3    0    0  0.32475555271E+01 -0.51905121504E+01 -0.12218803572E+02  0.13667011168E+02  0.51100000000E-03 0. -1.
        -11    1    3    3    0    0  0.10839870879E+02  0.15621344359E+01 -0.56810379583E+01  0.12337635803E+02  0.51100000000E-03 0.  1.
        -12    1    3    3    0    0  0.53282302573E+01 -0.10882911312E+02 -0.18101241532E+02  0.21782624757E+02  0.00000000000E+00 0.  1.
</event>
<event>
 7    1  0.4011333E-009  0.4778727E+02  0.7816164E-02  0.1312668E+00
        -11   -1    0    0    0    0  0.00000000000E+00  0.00000000000E+00  0.45593999997E+02  0.45594000000E+02  0.51100000000E-03 0.  1.
         11   -1    0    0    0    0 -0.00000000000E+00 -0.00000000000E+00 -0.45593999997E+02  0.45594000000E+02  0.51100000000E-03 0. -1.
    9900012    2    1    2    0    0 -0.93423267100E+01  0.31310028783E+02 -0.28566179143E+02  0.47787267729E+02  0.19999984886E+02 0.  0.
        -12    1    1    2    0    0  0.93423267100E+01 -0.31310028783E+02  0.28566179143E+02  0.43400732271E+02  0.00000000000E+00 0.  1.
         11    1    3    3    0    0  0.99639210664E+00  0.21354285952E+02 -0.16802841342E+02  0.27190693319E+02  0.51100000000E-03 0. -1.
        -11    1    3    3    0    0  0.13171060195E+01  0.18266018406E+01 -0.34887604810E+01  0.41524321193E+01  0.51100000000E-03 0.  1.
        -12    1    3    3    0    0 -0.11655824836E+02  0.81291409909E+01 -0.82745773201E+01  0.16444142291E+02  0.00000000000E+00 0.  1.
</event>
<event>
 7    1  0.4011333E-009  0.4778726E+02  0.7816164E-02  0.1312668E+00
        -11   -1    0    0    0    0  0.00000000000E+00  0.00000000000E+00  0.45593999997E+02  0.45594000000E+02  0.51100000000E-03 0.  1.
         11   -1    0    0    0    0 -0.00000000000E+00 -0.00000000000E+00 -0.45593999997E+02  0.45594000000E+02  0.51100000000E-03 0. -1.
    9900012    2    1    2    0    0  0.14683060562E+01 -0.88046824158E+01 -0.42472886654E+02  0.47787257427E+02  0.19999937914E+02 0.  0.
        -12    1    1    2    0    0 -0.14683060562E+01  0.88046824158E+01  0.42472886654E+02  0.43400742573E+02  0.00000000000E+00 0.  1.
         11    1    3    3    0    0  0.33330720835E+01 -0.55354581090E+01 -0.85465173335E+01  0.10714178680E+02  0.51100000000E-03 0. -1.
        -11    1    3    3    0    0  0.57890674223E+01 -0.12262712334E+01 -0.79173455290E+01  0.98844020175E+01  0.51100000000E-03 0.  1.
         12    1    3    3    0    0 -0.76538334496E+01 -0.20429530734E+01 -0.26009023792E+02  0.27188676730E+02  0.00000000000E+00 0. -1.
</event>
<event>
 7    1  0.4011333E-009  0.4778727E+02  0.7816164E-02  0.1312668E+00
        -11   -1    0    0    0    0  0.00000000000E+00  0.00000000000E+00  0.45593999997E+02  0.45594000000E+02  0.51100000000E-03 0. -1.
         11   -1    0    0    0    0 -0.00000000000E+00 -0.00000000000E+00 -0.45593999997E+02  0.45594000000E+02  0.51100000000E-03 0.  1.
    9900012    2    1    2    0    0  0.72755538462E+00  0.10712554413E+02  0.42051574892E+02  0.47787272935E+02  0.20000008619E+02 0.  0.
        -12    1    1    2    0    0 -0.72755538462E+00 -0.10712554413E+02 -0.42051574892E+02  0.43400727065E+02  0.00000000000E+00 0.  1.
         11    1    3    3    0    0 -0.42305752909E+01  0.37272807610E+01  0.18479390693E+02  0.19320410705E+02  0.51100000000E-03 0. -1.
        -11    1    3    3    0    0 -0.19656258125E+01 -0.34403528664E+00 -0.75461120742E+00  0.21334205982E+01  0.51100000000E-03 0.  1.
         12    1    3    3    0    0  0.69237564880E+01  0.73293089389E+01  0.24326795407E+02  0.26333441632E+02  0.00000000000E+00 0. -1.
</event>
<event>
 7    1  0.4011333E-009  0.4778727E+02  0.7816164E-02  0.1312668E+00
        -11   -1    0    0    0    0  0.00000000000E+00  0.00000000000E+00  0.45593999997E+02  0.45594000000E+02  0.51100000000E-03 0.  1.
         11   -1    0    0    0    0 -0.00000000000E+00 -0.00000000000E+00 -0.45593999997E+02  0.45594000000E+02  0.51100000000E-03 0. -1.
    9900012    2    1    2    0    0 -0.32829620213E+02 -0.17197393619E+02 -0.22585153053E+02  0.47787269026E+02  0.19999990799E+02 0.  0.
        -12    1    1    2    0    0  0.32829620213E+02  0.17197393619E+02  0.22585153053E+02  0.43400730974E+02  0.00000000000E+00 0.  1.
         11    1    3    3    0    0 -0.73239076520E+01 -0.32372334001E+01 -0.55011275979E+01  0.97150248837E+01  0.51100000000E-03 0. -1.
        -11    1    3    3    0    0 -0.64625913238E+01  0.25853780116E+01  0.10015200359E+01  0.70322335516E+01  0.51100000000E-03 0.  1.
        -12    1    3    3    0    0 -0.19043121237E+02 -0.16545538231E+02 -0.18085545491E+02  0.31040010591E+02  0.00000000000E+00 0.  1.
</event>
<event>
 7    1  0.4011333E-009  0.4778727E+02  0.7816164E-02  0.1312668E+00
        -11   -1    0    0    0    0  0.00000000000E+00  0.00000000000E+00  0.45593999997E+02  0.45594000000E+02  0.51100000000E-03 0. -1.
         11   -1    0    0    0    0 -0.00000000000E+00 -0.00000000000E+00 -0.45593999997E+02  0.45594000000E+02  0.51100000000E-03 0.  1.
    9900012    2    1    2    0    0 -0.42229169989E+02  0.61291879816E+00 -0.99972577268E+01  0.47787266948E+02  0.19999981322E+02 0.  0.
        -12    1    1    2    0    0  0.42229169989E+02 -0.61291879816E+00  0.99972577268E+01  0.43400733052E+02  0.00000000000E+00 0.  1.
         11    1    3    3    0    0 -0.20384212302E+02  0.37324939193E+01 -0.44763711883E+01  0.21201073588E+02  0.51100000000E-03 0. -1.
        -11    1    3    3    0    0 -0.23517407049E+02 -0.42570470326E+01 -0.44962722978E+01  0.24318868160E+02  0.51100000000E-03 0.  1.
        -12    1    3    3    0    0  0.16724493619E+01  0.11374719114E+01 -0.10246142408E+01  0.22673251994E+01  0.00000000000E+00 0.  1.
</event>
<event>
 7    1  0.4011333E-009  0.4778727E+02  0.7816164E-02  0.1312668E+00
        -11   -1    0    0    0    0  0.00000000000E+00  0.00000000000E+00  0.45593999997E+02  0.45594000000E+02  0.51100000000E-03 0. -1.
         11   -1    0    0    0    0 -0.00000000000E+00 -0.00000000000E+00 -0.45593999997E+02  0.45594000000E+02  0.51100000000E-03 0.  1.
    9900012    2    1    2    0    0 -0.30250804411E+02 -0.27355818643E+02 -0.14838161802E+02  0.47787273891E+02  0.20000012977E+02 0.  0.
        -12    1    1    2    0    0  0.30250804411E+02  0.27355818643E+02  0.14838161802E+02  0.43400726109E+02  0.00000000000E+00 0.  1.
         11    1    3    3    0    0 -0.13552187908E+02 -0.16178143767E+02 -0.42151395909E+01  0.21521188045E+02  0.51100000000E-03 0. -1.
        -11    1    3    3    0    0 -0.11492244125E+02 -0.12383767293E+02 -0.12029604870E+02  0.20739835125E+02  0.51100000000E-03 0.  1.
        -12    1    3    3    0    0 -0.52063723777E+01  0.12060924167E+01  0.14065826594E+01  0.55262507210E+01  0.00000000000E+00 0.  1.
</event>
<event>
 7    1  0.4011333E-009  0.4778727E+02  0.7816164E-02  0.1312668E+00
        -11   -1    0    0    0    0  0.00000000000E+00  0.00000000000E+00  0.45593999997E+02  0.45594000000E+02  0.51100000000E-03 0.  1.
         11   -1    0    0    0    0 -0.00000000000E+00 -0.00000000000E+00 -0.45593999997E+02  0.45594000000E+02  0.51100000000E-03 0. -1.
    9900012    2    1    2    0    0 -0.41020419725E+01 -0.11816020423E+02 -0.41559329404E+02  0.47787274805E+02  0.20000017144E+02 0.  0.
        -12    1    1    2    0    0  0.41020419725E+01  0.11816020423E+02  0.41559329404E+02  0.43400725195E+02  0.00000000000E+00 0.  1.
         11    1    3    3    0    0  0.13547808561E+01 -0.11541257917E+01 -0.11463947569E+02  0.11601272845E+02  0.51100000000E-03 0.  1.
        -11    1    3    3    0    0  0.35308152210E+01 -0.55707711165E+01 -0.22272666905E+02  0.23228685677E+02  0.51100000000E-03 0. -1.
         12    1    3    3    0    0 -0.89876380496E+01 -0.50911235152E+01 -0.78227149300E+01  0.12957316282E+02  0.00000000000E+00 0. -1.
</event>
<event>
 7    1  0.4011333E-009  0.4778727E+02  0.7816164E-02  0.1312668E+00
        -11   -1    0    0    0    0  0.00000000000E+00  0.00000000000E+00  0.45593999997E+02  0.45594000000E+02  0.51100000000E-03 0.  1.
         11   -1    0    0    0    0 -0.00000000000E+00 -0.00000000000E+00 -0.45593999997E+02  0.45594000000E+02  0.51100000000E-03 0. -1.
    9900012    2    1    2    0    0  0.24549591021E+02 -0.35538276188E+02 -0.42393261845E+01  0.47787269819E+02  0.19999994414E+02 0.  0.
        -12    1    1    2    0    0 -0.24549591021E+02  0.35538276188E+02  0.42393261845E+01  0.43400730181E+02  0.00000000000E+00 0.  1.
         11    1    3    3    0    0  0.79584555743E+01 -0.46730406956E+01  0.21169067714E+01  0.94686651123E+01  0.51100000000E-03 0. -1.
        -11    1    3    3    0    0  0.14217734753E+01 -0.78591889576E+01  0.39339376368E+01  0.89030419789E+01  0.51100000000E-03 0.  1.
         12    1    3    3    0    0  0.15169361972E+02 -0.23006046535E+02 -0.10290170593E+02  0.29415562728E+02  0.00000000000E+00 0. -1.
</event>
<event>
 7    1  0.4011333E-009  0.4778727E+02  0.7816164E-02  0.1312668E+00
        -11   -1    0    0    0    0  0.00000000000E+00  0.00000000000E+00  0.45593999997E+02  0.45594000000E+02  0.51100000000E-03 0.  1.
         11   -1    0    0    0    0 -0.00000000000E+00 -0.00000000000E+00 -0.45593999997E+02  0.45594000000E+02  0.51100000000E-03 0. -1.
    9900012    2    1    2    0    0 -0.35196149727E+02  0.22381115933E+02  0.11997486059E+02  0.47787274456E+02  0.20000015555E+02 0.  0.
        -12    1    1    2    0    0  0.35196149727E+02 -0.22381115933E+02 -0.11997486059E+02  0.43400725544E+02  0.00000000000E+00 0.  1.
         11    1    3    3    0    0 -0.16335974378E+01  0.22918317775E+01 -0.28604947800E+01  0.40129246358E+01  0.51100000000E-03 0. -1.
        -11    1    3    3    0    0 -0.76539637947E+01 -0.96296604778E+00  0.17540509104E+01  0.79112047273E+01  0.51100000000E-03 0.  1.
         12    1    3    3    0    0 -0.25908588494E+02  0.21052250203E+02  0.13103929929E+02  0.35863145093E+02  0.00000000000E+00 0. -1.
</event>
<event>
 7    1  0.5644767E-009  0.4778727E+02  0.7816164E-02  0.1312668E+00
        -11   -1    0    0    0    0  0.00000000000E+00  0.00000000000E+00  0.45593999997E+02  0.45594000000E+02  0.51100000000E-03 0. -1.
         11   -1    0    0    0    0 -0.00000000000E+00 -0.00000000000E+00 -0.45593999997E+02  0.45594000000E+02  0.51100000000E-03 0.  1.
    9900012    2    1    2    0    0  0.28984208934E+01  0.42611296062E+02  0.77136147387E+01  0.47787271341E+02  0.20000001354E+02 0.  0.
        -12    1    1    2    0    0 -0.28984208934E+01 -0.42611296062E+02 -0.77136147387E+01  0.43400728659E+02  0.00000000000E+00 0.  1.
         11    1    3    3    0    0  0.65904652203E+01  0.13846143856E+02  0.46673100469E+01  0.16029152031E+02  0.51100000000E-03 0.  1.
        -11    1    3    3    0    0  0.30363356932E+01  0.20838450997E+02  0.35170483969E+01  0.21350175739E+02  0.51100000000E-03 0. -1.
        -12    1    3    3    0    0 -0.67283800201E+01  0.79267012095E+01 -0.47074370506E+00  0.10407943572E+02  0.00000000000E+00 0.  1.
</event>
<event>
 7    1  0.4011333E-009  0.4778727E+02  0.7816164E-02  0.1312668E+00
        -11   -1    0    0    0    0  0.00000000000E+00  0.00000000000E+00  0.45593999997E+02  0.45594000000E+02  0.51100000000E-03 0.  1.
         11   -1    0    0    0    0 -0.00000000000E+00 -0.00000000000E+00 -0.45593999997E+02  0.45594000000E+02  0.51100000000E-03 0. -1.
    9900012    2    1    2    0    0 -0.94039187649E+01  0.26799109865E+02 -0.32817634177E+02  0.47787273155E+02  0.20000009622E+02 0.  0.
        -12    1    1    2    0    0  0.94039187649E+01 -0.26799109865E+02  0.32817634177E+02  0.43400726845E+02  0.00000000000E+00 0.  1.
         11    1    3    3    0    0  0.20136434035E+01  0.20324210817E+02 -0.20081340894E+02  0.28642425830E+02  0.51100000000E-03 0. -1.
        -11    1    3    3    0    0 -0.49570516932E+00  0.98598639017E+00  0.42520239281E+00  0.11826622986E+01  0.51100000000E-03 0.  1.
         12    1    3    3    0    0 -0.10921856999E+02  0.54889126585E+01 -0.13161495676E+02  0.17962185026E+02  0.00000000000E+00 0. -1.
</event>
<event>
 7    1  0.4011333E-009  0.4778727E+02  0.7816164E-02  0.1312668E+00
        -11   -1    0    0    0    0  0.00000000000E+00  0.00000000000E+00  0.45593999997E+02  0.45594000000E+02  0.51100000000E-03 0.  1.
         11   -1    0    0    0    0 -0.00000000000E+00 -0.00000000000E+00 -0.45593999997E+02  0.45594000000E+02  0.51100000000E-03 0. -1.
    9900012    2    1    2    0    0 -0.13059578470E+02  0.24478264983E+02 -0.33374920656E+02  0.47787269877E+02  0.19999994679E+02 0.  0.
        -12    1    1    2    0    0  0.13059578470E+02 -0.24478264983E+02  0.33374920656E+02  0.43400730123E+02  0.00000000000E+00 0.  1.
         11    1    3    3    0    0 -0.13514690448E+01  0.10330034851E+01 -0.43191330759E+01  0.46420335595E+01  0.51100000000E-03 0. -1.
        -11    1    3    3    0    0 -0.82455638985E+01  0.57284239327E+01 -0.21201334273E+02  0.23458489721E+02  0.51100000000E-03 0.  1.
         12    1    3    3    0    0 -0.34625455267E+01  0.17716837565E+02 -0.78544533071E+01  0.19686746597E+02  0.00000000000E+00 0. -1.
</event>
<event>
 7    1  0.4011333E-009  0.4778727E+02  0.7816164E-02  0.1312668E+00
        -11   -1    0    0    0    0  0.00000000000E+00  0.00000000000E+00  0.45593999997E+02  0.45594000000E+02  0.51100000000E-03 0. -1.
         11   -1    0    0    0    0 -0.00000000000E+00 -0.00000000000E+00 -0.45593999997E+02  0.45594000000E+02  0.51100000000E-03 0.  1.
    9900012    2    1    2    0    0 -0.64859931530E+01 -0.42172280934E+02 -0.79406760777E+01  0.47787265871E+02  0.19999976412E+02 0.  0.
        -12    1    1    2    0    0  0.64859931530E+01  0.42172280934E+02  0.79406760777E+01  0.43400734129E+02  0.00000000000E+00 0.  1.
         11    1    3    3    0    0  0.55399371101E+01 -0.22677520733E+02 -0.11898914384E+01  0.23374701959E+02  0.51100000000E-03 0.  1.
        -11    1    3    3    0    0 -0.51596552172E+01 -0.74096736753E+01 -0.52189710668E+01  0.10428948422E+02  0.51100000000E-03 0. -1.
        -12    1    3    3    0    0 -0.68662750459E+01 -0.12085086526E+02 -0.15318135726E+01  0.13983615490E+02  0.00000000000E+00 0.  1.
</event>
<event>
 7    1  0.4011333E-009  0.4778727E+02  0.7816164E-02  0.1312668E+00
        -11   -1    0    0    0    0  0.00000000000E+00  0.00000000000E+00  0.45593999997E+02  0.45594000000E+02  0.51100000000E-03 0.  1.
         11   -1    0    0    0    0 -0.00000000000E+00 -0.00000000000E+00 -0.45593999997E+02  0.45594000000E+02  0.51100000000E-03 0. -1.
    9900012    2    1    2    0    0  0.74712928485E+00 -0.16159763896E+01 -0.43364200065E+02  0.47787269256E+02  0.19999991846E+02 0.  0.
        -12    1    1    2    0    0 -0.74712928485E+00  0.16159763896E+01  0.43364200065E+02  0.43400730744E+02  0.00000000000E+00 0.  1.
         11    1    3    3    0    0  0.12440284506E+01  0.10114581503E+01  0.63022604237E+00  0.17227418557E+01  0.51100000000E-03 0. -1.
        -11    1    3    3    0    0 -0.15078137217E+01 -0.16792341474E+01 -0.21930634005E+00  0.22674710743E+01  0.51100000000E-03 0.  1.
         12    1    3    3    0    0  0.10109145559E+01 -0.94820039251E+00 -0.43775119767E+02  0.43797056326E+02  0.00000000000E+00 0. -1.
</event>
<event>
 7    1  0.4011333E-009  0.4778728E+02  0.7816164E-02  0.1312668E+00
        -11   -1    0    0    0    0  0.00000000000E+00  0.00000000000E+00  0.45593999997E+02  0.45594000000E+02  0.51100000000E-03 0.  1.
         11   -1    0    0    0    0 -0.00000000000E+00 -0.00000000000E+00 -0.45593999997E+02  0.45594000000E+02  0.51100000000E-03 0. -1.
    9900012    2    1    2    0    0  0.32280848332E+02  0.20521197953E+02 -0.20504879348E+02  0.47787276371E+02  0.20000024285E+02 0.  0.
        -12    1    1    2    0    0 -0.32280848332E+02 -0.20521197953E+02  0.20504879348E+02  0.43400723629E+02  0.00000000000E+00 0.  1.
         11    1    3    3    0    0  0.15129976142E+02  0.18410278991E+02 -0.50500501163E+01  0.24358931771E+02  0.51100000000E-03 0. -1.
        -11    1    3    3    0    0  0.29243720174E+01  0.16835341328E+01 -0.30356149958E+01  0.45388542097E+01  0.51100000000E-03 0.  1.
        -12    1    3    3    0    0  0.14226500173E+02  0.42738482901E+00 -0.12419214236E+02  0.18889490390E+02  0.00000000000E+00 0.  1.
</event>
<event>
 7    1  0.4011333E-009  0.4778727E+02  0.7816164E-02  0.1312668E+00
        -11   -1    0    0    0    0  0.00000000000E+00  0.00000000000E+00  0.45593999997E+02  0.45594000000E+02  0.51100000000E-03 0. -1.
         11   -1    0    0    0    0 -0.00000000000E+00 -0.00000000000E+00 -0.45593999997E+02  0.45594000000E+02  0.51100000000E-03 0.  1.
    9900012    2    1    2    0    0 -0.14572200856E+02  0.40378386961E+02  0.63921902154E+01  0.47787271122E+02  0.20000000355E+02 0.  0.
        -12    1    1    2    0    0  0.14572200856E+02 -0.40378386961E+02 -0.63921902154E+01  0.43400728878E+02  0.00000000000E+00 0.  1.
         11    1    3    3    0    0 -0.11618819260E+02  0.31683818139E+02  0.59717431908E+01  0.34271314680E+02  0.51100000000E-03 0.  1.
        -11    1    3    3    0    0 -0.21164508170E+01  0.10834568761E+02  0.11646415668E+01  0.11100614151E+02  0.51100000000E-03 0. -1.
        -12    1    3    3    0    0 -0.83693077946E+00 -0.21399999391E+01 -0.74419454210E+00  0.24153422916E+01  0.00000000000E+00 0.  1.
</event>
<event>
 7    1  0.4011333E-009  0.4778727E+02  0.7816164E-02  0.1312668E+00
        -11   -1    0    0    0    0  0.00000000000E+00  0.00000000000E+00  0.45593999997E+02  0.45594000000E+02  0.51100000000E-03 0.  1.
         11   -1    0    0    0    0 -0.00000000000E+00 -0.00000000000E+00 -0.45593999997E+02  0.45594000000E+02  0.51100000000E-03 0. -1.
    9900012    2    1    2    0    0 -0.28930426787E+02 -0.31126188078E+02 -0.88212444328E+01  0.47787268074E+02  0.19999986458E+02 0.  0.
        -12    1    1    2    0    0  0.28930426787E+02  0.31126188078E+02  0.88212444328E+01  0.43400731926E+02  0.00000000000E+00 0.  1.
         11    1    3    3    0    0 -0.30434921012E+01 -0.69427070620E+01  0.98676248242E+00  0.76444572061E+01  0.51100000000E-03 0. -1.
        -11    1    3    3    0    0 -0.89387169144E+01 -0.62623903994E+01  0.42960709664E+01  0.11729212233E+02  0.51100000000E-03 0.  1.
         12    1    3    3    0    0 -0.16948217772E+02 -0.17921090617E+02 -0.14104077882E+02  0.28413598635E+02  0.00000000000E+00 0. -1.
</event>
<event>
 7    1  0.4011333E-009  0.4778726E+02  0.7816164E-02  0.1312668E+00
        -11   -1    0    0    0    0  0.00000000000E+00  0.00000000000E+00  0.45593999997E+02  0.45594000000E+02  0.51100000000E-03 0.  1.
         11   -1    0    0    0    0 -0.00000000000E+00 -0.00000000000E+00 -0.45593999997E+02  0.45594000000E+02  0.51100000000E-03 0. -1.
    9900012    2    1    2    0    0 -0.39657756160E+02  0.71172384183E+01  0.16131686674E+02  0.47787262433E+02  0.19999960739E+02 0.  0.
        -12    1    1    2    0    0  0.39657756160E+02 -0.71172384183E+01 -0.16131686674E+02  0.43400737567E+02  0.00000000000E+00 0.  1.
         11    1    3    3    0    0 -0.25107843150E+02  0.62587820027E+01  0.61212593831E+01  0.26590335772E+02  0.51100000000E-03 0. -1.
        -11    1    3    3    0    0 -0.15305978007E+02 -0.22596253156E+01  0.81255955973E+01  0.17475816816E+02  0.51100000000E-03 0.  1.
        -12    1    3    3    0    0  0.75606499695E+00  0.31180817312E+01  0.18848316936E+01  0.37211098445E+01  0.00000000000E+00 0.  1.
</event>
<event>
 7    1  0.4011333E-009  0.4778727E+02  0.7816164E-02  0.1312668E+00
        -11   -1    0    0    0    0  0.00000000000E+00  0.00000000000E+00  0.45593999997E+02  0.45594000000E+02  0.51100000000E-03 0.  1.
         11   -1    0    0    0    0 -0.00000000000E+00 -0.00000000000E+00 -0.45593999997E+02  0.45594000000E+02  0.51100000000E-03 0. -1.
    9900012    2    1    2    0    0  0.15665625636E+02 -0.79531195655E+01 -0.39685756265E+02  0.47787272037E+02  0.20000004526E+02 0.  0.
        -12    1    1    2    0    0 -0.15665625636E+02  0.79531195655E+01  0.39685756265E+02  0.43400727963E+02  0.00000000000E+00 0.  1.
         11    1    3    3    0    0  0.29221202809E+01 -0.89801081928E+01 -0.15134054061E+02  0.17838742183E+02  0.51100000000E-03 0. -1.
        -11    1    3    3    0    0  0.22174082648E+01  0.50563019907E+01 -0.53783745277E+01  0.77077884023E+01  0.51100000000E-03 0.  1.
         12    1    3    3    0    0  0.10526097090E+02 -0.40293133634E+01 -0.19173327676E+02  0.22240741451E+02  0.00000000000E+00 0. -1.
</event>
<event>
 7    1  0.4011333E-009  0.4778727E+02  0.7816164E-02  0.1312668E+00
        -11   -1    0    0    0    0  0.00000000000E+00  0.00000000000E+00  0.45593999997E+02  0.45594000000E+02  0.51100000000E-03 0. -1.
         11   -1    0    0    0    0 -0.00000000000E+00 -0.00000000000E+00 -0.45593999997E+02  0.45594000000E+02  0.51100000000E-03 0.  1.
    9900012    2    1    2    0    0  0.30138504057E+02 -0.25481268496E+02  0.18055438276E+02  0.47787270487E+02  0.19999997458E+02 0.  0.
        -12    1    1    2    0    0 -0.30138504057E+02  0.25481268496E+02 -0.18055438276E+02  0.43400729513E+02  0.00000000000E+00 0.  1.
         11    1    3    3    0    0  0.11902969929E+02 -0.15318456991E+02  0.47983682155E+01  0.19983997485E+02  0.51100000000E-03 0. -1.
        -11    1    3    3    0    0  0.86124669323E+01 -0.78152989661E+01  0.48447851211E+00  0.11639940046E+02  0.51100000000E-03 0.  1.
        -12    1    3    3    0    0  0.96230671958E+01 -0.23475125395E+01  0.12772591548E+02  0.16163332955E+02  0.00000000000E+00 0.  1.
</event>
<event>
 7    1  0.4011333E-009  0.4778727E+02  0.7816164E-02  0.1312668E+00
        -11   -1    0    0    0    0  0.00000000000E+00  0.00000000000E+00  0.45593999997E+02  0.45594000000E+02  0.51100000000E-03 0.  1.
         11   -1    0    0    0    0 -0.00000000000E+00 -0.00000000000E+00 -0.45593999997E+02  0.45594000000E+02  0.51100000000E-03 0. -1.
    9900012    2    1    2    0    0  0.40227984072E+02  0.15948267041E+02 -0.33144159357E+01  0.47787271008E+02  0.19999999832E+02 0.  0.
        -12    1    1    2    0    0 -0.40227984072E+02 -0.15948267041E+02  0.33144159357E+01  0.43400728992E+02  0.00000000000E+00 0.  1.
         11    1    3    3    0    0  0.19866940425E+02  0.14708745651E+02  0.11578695850E+01  0.24746377164E+02  0.51100000000E-03 0. -1.
        -11    1    3    3    0    0  0.14830855830E+01 -0.72963288716E+00  0.23487892874E+01  0.28720582122E+01  0.51100000000E-03 0.  1.
        -12    1    3    3    0    0  0.18877958063E+02  0.19691542771E+01 -0.68210748082E+01  0.20168835632E+02  0.00000000000E+00 0.  1.
</event>
<event>
 7    1  0.4011333E-009  0.4778727E+02  0.7816164E-02  0.1312668E+00
        -11   -1    0    0    0    0  0.00000000000E+00  0.00000000000E+00  0.45593999997E+02  0.45594000000E+02  0.51100000000E-03 0.  1.
         11   -1    0    0    0    0 -0.00000000000E+00 -0.00000000000E+00 -0.45593999997E+02  0.45594000000E+02  0.51100000000E-03 0. -1.
    9900012    2    1    2    0    0 -0.18996466012E+02 -0.14573255723E+02 -0.36199138604E+02  0.47787272599E+02  0.20000007088E+02 0.  0.
        -12    1    1    2    0    0  0.18996466012E+02  0.14573255723E+02  0.36199138604E+02  0.43400727401E+02  0.00000000000E+00 0.  1.
         11    1    3    3    0    0 -0.50239836340E+01 -0.37588575354E+01 -0.22659857730E+02  0.23512519519E+02  0.51100000000E-03 0. -1.
        -11    1    3    3    0    0 -0.79720535117E+01 -0.30583753556E+00 -0.63735057556E+01  0.10211207062E+02  0.51100000000E-03 0.  1.
         12    1    3    3    0    0 -0.60004288660E+01 -0.10508560652E+02 -0.71657751181E+01  0.14063546018E+02  0.00000000000E+00 0. -1.
</event>
<event>
 7    1  0.4011333E-009  0.4778727E+02  0.7816164E-02  0.1312668E+00
        -11   -1    0    0    0    0  0.00000000000E+00  0.00000000000E+00  0.45593999997E+02  0.45594000000E+02  0.51100000000E-03 0. -1.
         11   -1    0    0    0    0 -0.00000000000E+00 -0.00000000000E+00 -0.45593999997E+02  0.45594000000E+02  0.51100000000E-03 0.  1.
    9900012    2    1    2    0    0 -0.30392646305E+01 -0.43265530040E+02  0.15748367976E+01  0.47787270397E+02  0.19999997048E+02 0.  0.
        -12    1    1    2    0    0  0.30392646305E+01  0.43265530040E+02 -0.15748367976E+01  0.43400729603E+02  0.00000000000E+00 0.  1.
         11    1    3    3    0    0  0.18447615556E+01 -0.30455204784E+01 -0.16084780410E+01  0.39071142869E+01  0.51100000000E-03 0. -1.
        -11    1    3    3    0    0  0.52290320681E+01 -0.10747001081E+02 -0.24896765132E+01  0.12208165219E+02  0.51100000000E-03 0.  1.
         12    1    3    3    0    0 -0.10113058254E+02 -0.29473008481E+02  0.56729913518E+01  0.31671990891E+02  0.00000000000E+00 0. -1.
</event>
<event>
 7    1  0.4011333E-009  0.4778727E+02  0.7816164E-02  0.1312668E+00
        -11   -1    0    0    0    0  0.00000000000E+00  0.00000000000E+00  0.45593999997E+02  0.45594000000E+02  0.51100000000E-03 0. -1.
         11   -1    0    0    0    0 -0.00000000000E+00 -0.00000000000E+00 -0.45593999997E+02  0.45594000000E+02  0.51100000000E-03 0.  1.
    9900012    2    1    2    0    0 -0.66104874272E+01  0.40643631871E+02  0.13712036589E+02  0.47787270708E+02  0.19999998466E+02 0.  0.
        -12    1    1    2    0    0  0.66104874272E+01 -0.40643631871E+02 -0.13712036589E+02  0.43400729292E+02  0.00000000000E+00 0.  1.
         11    1    3    3    0    0 -0.52993015193E+00  0.22146818124E+02  0.12287319709E+02  0.25332599647E+02  0.51100000000E-03 0. -1.
        -11    1    3    3    0    0  0.27213382899E+01  0.92259619784E+01  0.33757118674E+00  0.96248642111E+01  0.51100000000E-03 0.  1.
         12    1    3    3    0    0 -0.88018955652E+01  0.92708517679E+01  0.10871456939E+01  0.12829806850E+02  0.00000000000E+00 0. -1.
</event>
<event>
 7    1  0.4011333E-009  0.4778727E+02  0.7816164E-02  0.1312668E+00
        -11   -1    0    0    0    0  0.00000000000E+00  0.00000000000E+00  0.45593999997E+02  0.45594000000E+02  0.51100000000E-03 0.  1.
         11   -1    0    0    0    0 -0.00000000000E+00 -0.00000000000E+00 -0.45593999997E+02  0.45594000000E+02  0.51100000000E-03 0. -1.
    9900012    2    1    2    0    0  0.24775699697E+02  0.19522090049E+02 -0.29810673509E+02  0.47787267858E+02  0.19999985473E+02 0.  0.
        -12    1    1    2    0    0 -0.24775699697E+02 -0.19522090049E+02  0.29810673509E+02  0.43400732142E+02  0.00000000000E+00 0.  1.
         11    1    3    3    0    0  0.13207179250E+02  0.29047606044E+01 -0.10230006672E+02  0.16956422225E+02  0.51100000000E-03 0. -1.
        -11    1    3    3    0    0  0.93506181408E+01  0.27273882905E+01 -0.76075097808E+01  0.12359082160E+02  0.51100000000E-03 0.  1.
        -12    1    3    3    0    0  0.22179023058E+01  0.13889941154E+02 -0.11973157057E+02  0.18471763473E+02  0.00000000000E+00 0.  1.
</event>
<event>
 7    1  0.4011333E-009  0.4778727E+02  0.7816164E-02  0.1312668E+00
        -11   -1    0    0    0    0  0.00000000000E+00  0.00000000000E+00  0.45593999997E+02  0.45594000000E+02  0.51100000000E-03 0.  1.
         11   -1    0    0    0    0 -0.00000000000E+00 -0.00000000000E+00 -0.45593999997E+02  0.45594000000E+02  0.51100000000E-03 0. -1.
    9900012    2    1    2    0    0 -0.30198815135E+02 -0.31033707126E+02 -0.29263919937E+01  0.47787272084E+02  0.20000004740E+02 0.  0.
        -12    1    1    2    0    0  0.30198815135E+02  0.31033707126E+02  0.29263919937E+01  0.43400727916E+02  0.00000000000E+00 0.  1.
         11    1    3    3    0    0 -0.70012595828E+01 -0.71608989289E+01 -0.75367051168E+01  0.12533875438E+02  0.51100000000E-03 0.  1.
        -11    1    3    3    0    0 -0.12121255072E+02 -0.72601963464E+01 -0.18906366832E+01  0.14255166882E+02  0.51100000000E-03 0. -1.
        -12    1    3    3    0    0 -0.11076300480E+02 -0.16612611851E+02  0.65009498063E+01  0.20998229764E+02  0.00000000000E+00 0.  1.
</event>
<event>
 7    1  0.4011333E-009  0.4778727E+02  0.7816164E-02  0.1312668E+00
        -11   -1    0    0    0    0  0.00000000000E+00  0.00000000000E+00  0.45593999997E+02  0.45594000000E+02  0.51100000000E-03 0.  1.
         11   -1    0    0    0    0 -0.00000000000E+00 -0.00000000000E+00 -0.45593999997E+02  0.45594000000E+02  0.51100000000E-03 0. -1.
    9900012    2    1    2    0    0 -0.18325456956E+02  0.10099250913E+02 -0.38023754094E+02  0.47787272851E+02  0.20000008239E+02 0.  0.
        -12    1    1    2    0    0  0.18325456956E+02 -0.10099250913E+02  0.38023754094E+02  0.43400727149E+02  0.00000000000E+00 0.  1.
         11    1    3    3    0    0 -0.25742227157E+00 -0.49954272085E+00  0.54653736795E+00  0.78390848416E+00  0.51100000000E-03 0. -1.
        -11    1    3    3    0    0 -0.34598036438E+01  0.38665516652E+01  0.27040686078E-01  0.51885638180E+01  0.51100000000E-03 0.  1.
         12    1    3    3    0    0 -0.14608231041E+02  0.67322419689E+01 -0.38597332148E+02  0.41814800549E+02  0.00000000000E+00 0. -1.
</event>
<event>
 7    1  0.4011333E-009  0.4778727E+02  0.7816164E-02  0.1312668E+00
        -11   -1    0    0    0    0  0.00000000000E+00  0.00000000000E+00  0.45593999997E+02  0.45594000000E+02  0.51100000000E-03 0.  1.
         11   -1    0    0    0    0 -0.00000000000E+00 -0.00000000000E+00 -0.45593999997E+02  0.45594000000E+02  0.51100000000E-03 0. -1.
    9900012    2    1    2    0    0 -0.32363063202E+02 -0.18776199878E+02 -0.21993405745E+02  0.47787269155E+02  0.19999991384E+02 0.  0.
        -12    1    1    2    0    0  0.32363063202E+02  0.18776199878E+02  0.21993405745E+02  0.43400730845E+02  0.00000000000E+00 0.  1.
         11    1    3    3    0    0  0.57711766216E+00  0.18636515152E+01 -0.20124287635E+01  0.28028791546E+01  0.51100000000E-03 0. -1.
        -11    1    3    3    0    0 -0.24857767932E+01 -0.57290339431E+01 -0.45660470259E+01  0.77362589079E+01  0.51100000000E-03 0.  1.
        -12    1    3    3    0    0 -0.30454404071E+02 -0.14910817450E+02 -0.15414929955E+02  0.37248131092E+02  0.00000000000E+00 0.  1.
</event>
<event>
 7    1  0.4011333E-009  0.4778727E+02  0.7816164E-02  0.1312668E+00
        -11   -1    0    0    0    0  0.00000000000E+00  0.00000000000E+00  0.45593999997E+02  0.45594000000E+02  0.51100000000E-03 0.  1.
         11   -1    0    0    0    0 -0.00000000000E+00 -0.00000000000E+00 -0.45593999997E+02  0.45594000000E+02  0.51100000000E-03 0. -1.
    9900012    2    1    2    0    0 -0.23682919237E+02  0.29341375799E+02 -0.21490148773E+02  0.47787268536E+02  0.19999988563E+02 0.  0.
        -12    1    1    2    0    0  0.23682919237E+02 -0.29341375799E+02  0.21490148773E+02  0.43400731464E+02  0.00000000000E+00 0.  1.
         11    1    3    3    0    0 -0.57142548030E+01 -0.56959152773E+00 -0.59351498619E+00  0.57731622844E+01  0.51100000000E-03 0. -1.
        -11    1    3    3    0    0 -0.13566352926E+02  0.19076673212E+02 -0.83270510283E+01  0.24845626811E+02  0.51100000000E-03 0.  1.
         12    1    3    3    0    0 -0.44023115073E+01  0.10834294115E+02 -0.12569582758E+02  0.17168479440E+02  0.00000000000E+00 0. -1.
</event>
<event>
 7    1  0.4011333E-009  0.4778727E+02  0.7816164E-02  0.1312668E+00
        -11   -1    0    0    0    0  0.00000000000E+00  0.00000000000E+00  0.45593999997E+02  0.45594000000E+02  0.51100000000E-03 0.  1.
         11   -1    0    0    0    0 -0.00000000000E+00 -0.00000000000E+00 -0.45593999997E+02  0.45594000000E+02  0.51100000000E-03 0. -1.
    9900012    2    1    2    0    0  0.20429770662E+02 -0.18862631474E+02 -0.33323397531E+02  0.47787271683E+02  0.20000002912E+02 0.  0.
        -12    1    1    2    0    0 -0.20429770662E+02  0.18862631474E+02  0.33323397531E+02  0.43400728317E+02  0.00000000000E+00 0.  1.
         11    1    3    3    0    0  0.72037792357E+01 -0.52445399137E+00 -0.75290294776E+01  0.10433396973E+02  0.51100000000E-03 0. -1.
        -11    1    3    3    0    0  0.10243425624E+02 -0.24844479456E+01 -0.73490691329E+01  0.12849477324E+02  0.51100000000E-03 0.  1.
         12    1    3    3    0    0  0.29825658022E+01 -0.15853729537E+02 -0.18445298921E+02  0.24504397386E+02  0.00000000000E+00 0. -1.
</event>
<event>
 7    1  0.4011333E-009  0.4778727E+02  0.7816164E-02  0.1312668E+00
        -11   -1    0    0    0    0  0.00000000000E+00  0.00000000000E+00  0.45593999997E+02  0.45594000000E+02  0.51100000000E-03 0. -1.
         11   -1    0    0    0    0 -0.00000000000E+00 -0.00000000000E+00 -0.45593999997E+02  0.45594000000E+02  0.51100000000E-03 0.  1.
    9900012    2    1    2    0    0 -0.37368732597E+02  0.10308737619E+02 -0.19517457079E+02  0.47787269844E+02  0.19999994529E+02 0.  0.
        -12    1    1    2    0    0  0.37368732597E+02 -0.10308737619E+02  0.19517457079E+02  0.43400730156E+02  0.00000000000E+00 0.  1.
         11    1    3    3    0    0 -0.26684983551E+02  0.41658925905E+01 -0.52251853146E+01  0.27509008888E+02  0.51100000000E-03 0. -1.
        -11    1    3    3    0    0 -0.25760173009E+01  0.37014822978E+01 -0.11660058561E+01  0.46579401298E+01  0.51100000000E-03 0.  1.
        -12    1    3    3    0    0 -0.81077317456E+01  0.24413627307E+01 -0.13126265908E+02  0.15620320827E+02  0.00000000000E+00 0.  1.
</event>
<event>
 7    1  0.4011333E-009  0.4778727E+02  0.7816164E-02  0.1312668E+00
        -11   -1    0    0    0    0  0.00000000000E+00  0.00000000000E+00  0.45593999997E+02  0.45594000000E+02  0.51100000000E-03 0. -1.
         11   -1    0    0    0    0 -0.00000000000E+00 -0.00000000000E+00 -0.45593999997E+02  0.45594000000E+02  0.51100000000E-03 0.  1.
    9900012    2    1    2    0    0  0.21470032291E+02  0.35567417802E+02 -0.12554686861E+02  0.47787266621E+02  0.19999979831E+02 0.  0.
        -12    1    1    2    0    0 -0.21470032291E+02 -0.35567417802E+02  0.12554686861E+02  0.43400733379E+02  0.00000000000E+00 0.  1.
         11    1    3    3    0    0  0.19179286960E+02  0.28054837801E+02 -0.17172094561E+02  0.38076236739E+02  0.51100000000E-03 0. -1.
        -11    1    3    3    0    0  0.27689535501E+00 -0.32844924865E+00  0.10257533169E+00  0.44166945373E+00  0.51100000000E-03 0.  1.
         12    1    3    3    0    0  0.20138499754E+01  0.78410292498E+01  0.45148323688E+01  0.92693604277E+01  0.00000000000E+00 0. -1.
</event>
<event>
 7    1  0.4011333E-009  0.4778727E+02  0.7816164E-02  0.1312668E+00
        -11   -1    0    0    0    0  0.00000000000E+00  0.00000000000E+00  0.45593999997E+02  0.45594000000E+02  0.51100000000E-03 0.  1.
         11   -1    0    0    0    0 -0.00000000000E+00 -0.00000000000E+00 -0.45593999997E+02  0.45594000000E+02  0.51100000000E-03 0. -1.
    9900012    2    1    2    0    0  0.27870169102E+02 -0.28472385012E+02 -0.17210472400E+02  0.47787269657E+02  0.19999993674E+02 0.  0.
        -12    1    1    2    0    0 -0.27870169102E+02  0.28472385012E+02  0.17210472400E+02  0.43400730343E+02  0.00000000000E+00 0.  1.
         11    1    3    3    0    0  0.13551195384E+02 -0.11691651200E+02 -0.13446529480E+02  0.22386128728E+02  0.51100000000E-03 0. -1.
        -11    1    3    3    0    0  0.77540347042E+01 -0.15043732947E+02 -0.64312461754E+01  0.18105244622E+02  0.51100000000E-03 0.  1.
        -12    1    3    3    0    0  0.65649390147E+01 -0.17370008649E+01  0.26673032552E+01  0.72958963073E+01  0.00000000000E+00 0.  1.
</event>
<event>
 7    1  0.4011333E-009  0.4778727E+02  0.7816164E-02  0.1312668E+00
        -11   -1    0    0    0    0  0.00000000000E+00  0.00000000000E+00  0.45593999997E+02  0.45594000000E+02  0.51100000000E-03 0. -1.
         11   -1    0    0    0    0 -0.00000000000E+00 -0.00000000000E+00 -0.45593999997E+02  0.45594000000E+02  0.51100000000E-03 0.  1.
    9900012    2    1    2    0    0 -0.58168601007E+01 -0.11871414333E+02  0.41338323107E+02  0.47787270778E+02  0.19999998784E+02 0.  0.
        -12    1    1    2    0    0  0.58168601007E+01  0.11871414333E+02 -0.41338323107E+02  0.43400729222E+02  0.00000000000E+00 0.  1.
         11    1    3    3    0    0 -0.63581647135E+01 -0.19783928806E+01  0.11553847100E+02  0.13335354513E+02  0.51100000000E-03 0. -1.
        -11    1    3    3    0    0  0.41065285276E+01 -0.80015155453E+01  0.72309459908E+01  0.11540121652E+02  0.51100000000E-03 0.  1.
         12    1    3    3    0    0 -0.35652239148E+01 -0.18915059069E+01  0.22553530017E+02  0.22911794613E+02  0.00000000000E+00 0. -1.
</event>
<event>
 7    1  0.4011333E-009  0.4778724E+02  0.7816164E-02  0.1312668E+00
        -11   -1    0    0    0    0  0.00000000000E+00  0.00000000000E+00  0.45593999997E+02  0.45594000000E+02  0.51100000000E-03 0.  1.
         11   -1    0    0    0    0 -0.00000000000E+00 -0.00000000000E+00 -0.45593999997E+02  0.45594000000E+02  0.51100000000E-03 0. -1.
    9900012    2    1    2    0    0  0.27209641772E+02  0.25787676807E+02 -0.21869096399E+02  0.47787236668E+02  0.19999843264E+02 0.  0.
        -12    1    1    2    0    0 -0.27209641772E+02 -0.25787676807E+02  0.21869096399E+02  0.43400763332E+02  0.00000000000E+00 0.  1.
         11    1    3    3    0    0  0.51772337076E+01  0.81796117711E+01 -0.79760892254E+01  0.12543037797E+02  0.51100000000E-03 0. -1.
        -11    1    3    3    0    0  0.41395001127E+01  0.13378487047E+02 -0.59588196881E+01  0.15219293978E+02  0.51100000000E-03 0.  1.
         12    1    3    3    0    0  0.17892907951E+02  0.42295779894E+01 -0.79341874859E+01  0.20024904893E+02  0.00000000000E+00 0. -1.
</event>
<event>
 7    1  0.4011333E-009  0.4778727E+02  0.7816164E-02  0.1312668E+00
        -11   -1    0    0    0    0  0.00000000000E+00  0.00000000000E+00  0.45593999997E+02  0.45594000000E+02  0.51100000000E-03 0.  1.
         11   -1    0    0    0    0 -0.00000000000E+00 -0.00000000000E+00 -0.45593999997E+02  0.45594000000E+02  0.51100000000E-03 0. -1.
    9900012    2    1    2    0    0 -0.37491145645E+02 -0.20901129514E+01 -0.21763937806E+02  0.47787267717E+02  0.19999984827E+02 0.  0.
        -12    1    1    2    0    0  0.37491145645E+02  0.20901129514E+01  0.21763937806E+02  0.43400732283E+02  0.00000000000E+00 0.  1.
         11    1    3    3    0    0 -0.15285454812E+02 -0.44972657178E+01  0.39486514216E+00  0.15938207129E+02  0.51100000000E-03 0. -1.
        -11    1    3    3    0    0  0.10504467639E+00  0.21615753011E+00 -0.97976566192E+00  0.10088109215E+01  0.51100000000E-03 0.  1.
         12    1    3    3    0    0 -0.22310735509E+02  0.21909952363E+01 -0.21179037286E+02  0.30840249666E+02  0.00000000000E+00 0. -1.
</event>
<event>
 7    1  0.4011333E-009  0.4778726E+02  0.7816164E-02  0.1312668E+00
        -11   -1    0    0    0    0  0.00000000000E+00  0.00000000000E+00  0.45593999997E+02  0.45594000000E+02  0.51100000000E-03 0.  1.
         11   -1    0    0    0    0 -0.00000000000E+00 -0.00000000000E+00 -0.45593999997E+02  0.45594000000E+02  0.51100000000E-03 0. -1.
    9900012    2    1    2    0    0 -0.21200383633E+02 -0.58180083223E+01 -0.37420838557E+02  0.47787255244E+02  0.19999927959E+02 0.  0.
        -12    1    1    2    0    0  0.21200383633E+02  0.58180083223E+01  0.37420838557E+02  0.43400744756E+02  0.00000000000E+00 0.  1.
         11    1    3    3    0    0 -0.16129542065E+02 -0.18967663824E+01 -0.19400535900E+02  0.25301000838E+02  0.51100000000E-03 0. -1.
        -11    1    3    3    0    0  0.22906175333E+01  0.25407769352E+01 -0.29765950603E+01  0.45345997103E+01  0.51100000000E-03 0.  1.
         12    1    3    3    0    0 -0.73614591014E+01 -0.64620188751E+01 -0.15043707597E+02  0.17951654696E+02  0.00000000000E+00 0. -1.
</event>
<event>
 7    1  0.4011333E-009  0.4778728E+02  0.7816164E-02  0.1312668E+00
        -11   -1    0    0    0    0  0.00000000000E+00  0.00000000000E+00  0.45593999997E+02  0.45594000000E+02  0.51100000000E-03 0.  1.
         11   -1    0    0    0    0 -0.00000000000E+00 -0.00000000000E+00 -0.45593999997E+02  0.45594000000E+02  0.51100000000E-03 0. -1.
    9900012    2    1    2    0    0 -0.29289458088E+02  0.21548579039E+02 -0.23694075901E+02  0.47787275969E+02  0.20000022451E+02 0.  0.
        -12    1    1    2    0    0  0.29289458088E+02 -0.21548579039E+02  0.23694075901E+02  0.43400724031E+02  0.00000000000E+00 0.  1.
         11    1    3    3    0    0 -0.47429563584E+00 -0.69984660292E+00 -0.27297418759E+01  0.28576620843E+01  0.51100000000E-03 0. -1.
        -11    1    3    3    0    0 -0.97756331579E+01  0.91190298928E+01 -0.16733938906E+02  0.21418319762E+02  0.51100000000E-03 0.  1.
         12    1    3    3    0    0 -0.19039529294E+02  0.13129395749E+02 -0.42303951183E+01  0.23511294123E+02  0.00000000000E+00 0. -1.
</event>
<event>
 7    1  0.4011333E-009  0.4778727E+02  0.7816164E-02  0.1312668E+00
        -11   -1    0    0    0    0  0.00000000000E+00  0.00000000000E+00  0.45593999997E+02  0.45594000000E+02  0.51100000000E-03 0.  1.
         11   -1    0    0    0    0 -0.00000000000E+00 -0.00000000000E+00 -0.45593999997E+02  0.45594000000E+02  0.51100000000E-03 0. -1.
    9900012    2    1    2    0    0 -0.27622791458E+02  0.24535942562E+01  0.33385397362E+02  0.47787268558E+02  0.19999988662E+02 0.  0.
        -12    1    1    2    0    0  0.27622791458E+02 -0.24535942562E+01 -0.33385397362E+02  0.43400731442E+02  0.00000000000E+00 0.  1.
         11    1    3    3    0    0 -0.16270875508E+01  0.42525420963E+01  0.13635607971E+01  0.47529808003E+01  0.51100000000E-03 0. -1.
        -11    1    3    3    0    0 -0.12543566710E+01 -0.28397958693E+01  0.84092337381E+00  0.32163649698E+01  0.51100000000E-03 0.  1.
         12    1    3    3    0    0 -0.24741347236E+02  0.10408480291E+01  0.31180913192E+02  0.39817922788E+02  0.00000000000E+00 0. -1.
</event>
<event>
 7    1  0.4011333E-009  0.4778727E+02  0.7816164E-02  0.1312668E+00
        -11   -1    0    0    0    0  0.00000000000E+00  0.00000000000E+00  0.45593999997E+02  0.45594000000E+02  0.51100000000E-03 0.  1.
         11   -1    0    0    0    0 -0.00000000000E+00 -0.00000000000E+00 -0.45593999997E+02  0.45594000000E+02  0.51100000000E-03 0. -1.
    9900012    2    1    2    0    0 -0.76164840375E+01 -0.37054011591E+02 -0.21274687728E+02  0.47787274868E+02  0.20000017432E+02 0.  0.
        -12    1    1    2    0    0  0.76164840375E+01  0.37054011591E+02  0.21274687728E+02  0.43400725132E+02  0.00000000000E+00 0.  1.
         11    1    3    3    0    0  0.18148866316E+01 -0.33462654454E+00 -0.36755778322E+01  0.41128653116E+01  0.51100000000E-03 0.  1.
        -11    1    3    3    0    0 -0.88565224902E+01 -0.12278428975E+02 -0.97088251737E+01  0.17984968592E+02  0.51100000000E-03 0. -1.
         12    1    3    3    0    0 -0.57484817883E+00 -0.24440956071E+02 -0.78902847226E+01  0.25689440965E+02  0.00000000000E+00 0. -1.
</event>
<event>
 7    1  0.4011333E-009  0.4778727E+02  0.7816164E-02  0.1312668E+00
        -11   -1    0    0    0    0  0.00000000000E+00  0.00000000000E+00  0.45593999997E+02  0.45594000000E+02  0.51100000000E-03 0.  1.
         11   -1    0    0    0    0 -0.00000000000E+00 -0.00000000000E+00 -0.45593999997E+02  0.45594000000E+02  0.51100000000E-03 0. -1.
    9900012    2    1    2    0    0 -0.13652338077E+02  0.39893904368E+02 -0.10281686116E+02  0.47787274083E+02  0.20000013854E+02 0.  0.
        -12    1    1    2    0    0  0.13652338077E+02 -0.39893904368E+02  0.10281686116E+02  0.43400725917E+02  0.00000000000E+00 0.  1.
         11    1    3    3    0    0 -0.56682619900E+01  0.34225918280E+01  0.10595152400E+01  0.67056619072E+01  0.51100000000E-03 0. -1.
        -11    1    3    3    0    0 -0.43898535765E+01  0.67648261654E+01 -0.73170221278E+01  0.10889100080E+02  0.51100000000E-03 0.  1.
         12    1    3    3    0    0 -0.35942225104E+01  0.29706486375E+02 -0.40241792283E+01  0.30192512096E+02  0.00000000000E+00 0. -1.
</event>
<event>
 7    1  0.4011333E-009  0.4778727E+02  0.7816164E-02  0.1312668E+00
        -11   -1    0    0    0    0  0.00000000000E+00  0.00000000000E+00  0.45593999997E+02  0.45594000000E+02  0.51100000000E-03 0. -1.
         11   -1    0    0    0    0 -0.00000000000E+00 -0.00000000000E+00 -0.45593999997E+02  0.45594000000E+02  0.51100000000E-03 0.  1.
    9900012    2    1    2    0    0 -0.18349077584E+02 -0.32815284590E+02  0.21681609049E+02  0.47787265884E+02  0.19999976470E+02 0.  0.
        -12    1    1    2    0    0  0.18349077584E+02  0.32815284590E+02 -0.21681609049E+02  0.43400734116E+02  0.00000000000E+00 0.  1.
         11    1    3    3    0    0  0.20190296361E+01 -0.74361642293E+01  0.46023489158E+01  0.89752233911E+01  0.51100000000E-03 0. -1.
        -11    1    3    3    0    0 -0.69597268004E+01 -0.18350925682E+02  0.82767559259E+01  0.21300210315E+02  0.51100000000E-03 0.  1.
        -12    1    3    3    0    0 -0.13408380419E+02 -0.70281946784E+01  0.88025042069E+01  0.17511832178E+02  0.00000000000E+00 0.  1.
</event>
<event>
 7    1  0.4011333E-009  0.4778727E+02  0.7816164E-02  0.1312668E+00
        -11   -1    0    0    0    0  0.00000000000E+00  0.00000000000E+00  0.45593999997E+02  0.45594000000E+02  0.51100000000E-03 0.  1.
         11   -1    0    0    0    0 -0.00000000000E+00 -0.00000000000E+00 -0.45593999997E+02  0.45594000000E+02  0.51100000000E-03 0. -1.
    9900012    2    1    2    0    0  0.10707170151E+02 -0.31031849511E+02 -0.28390208682E+02  0.47787272752E+02  0.20000007783E+02 0.  0.
        -12    1    1    2    0    0 -0.10707170151E+02  0.31031849511E+02  0.28390208682E+02  0.43400727248E+02  0.00000000000E+00 0.  1.
         11    1    3    3    0    0  0.11767628842E+02 -0.81676878271E+01 -0.10425158379E+02  0.17716437014E+02  0.51100000000E-03 0. -1.
        -11    1    3    3    0    0  0.98764186039E+00  0.11906653377E+00 -0.40250367126E+00  0.10731368740E+01  0.51100000000E-03 0.  1.
        -12    1    3    3    0    0 -0.20481005512E+01 -0.22983228217E+02 -0.17562546632E+02  0.28997698863E+02  0.00000000000E+00 0.  1.
</event>
<event>
 7    1  0.4011333E-009  0.4778727E+02  0.7816164E-02  0.1312668E+00
        -11   -1    0    0    0    0  0.00000000000E+00  0.00000000000E+00  0.45593999997E+02  0.45594000000E+02  0.51100000000E-03 0. -1.
         11   -1    0    0    0    0 -0.00000000000E+00 -0.00000000000E+00 -0.45593999997E+02  0.45594000000E+02  0.51100000000E-03 0.  1.
    9900012    2    1    2    0    0  0.21538756592E+02  0.33960392150E+02  0.16321672594E+02  0.47787271126E+02  0.20000000373E+02 0.  0.
        -12    1    1    2    0    0 -0.21538756592E+02 -0.33960392150E+02 -0.16321672594E+02  0.43400728874E+02  0.00000000000E+00 0.  1.
         11    1    3    3    0    0  0.89554176591E+01  0.15728524567E+02  0.13661959791E+02  0.22676753209E+02  0.51100000000E-03 0.  1.
        -11    1    3    3    0    0  0.66089914021E+01  0.92319559496E+01  0.71440238642E+01  0.13414352584E+02  0.51100000000E-03 0. -1.
        -12    1    3    3    0    0  0.59743475307E+01  0.89999116331E+01 -0.44843110605E+01  0.11696165334E+02  0.00000000000E+00 0.  1.
</event>
<event>
 7    1  0.4011333E-009  0.4778727E+02  0.7816164E-02  0.1312668E+00
        -11   -1    0    0    0    0  0.00000000000E+00  0.00000000000E+00  0.45593999997E+02  0.45594000000E+02  0.51100000000E-03 0.  1.
         11   -1    0    0    0    0 -0.00000000000E+00 -0.00000000000E+00 -0.45593999997E+02  0.45594000000E+02  0.51100000000E-03 0. -1.
    9900012    2    1    2    0    0 -0.92100276772E+01  0.38947036384E+02 -0.16790676306E+02  0.47787273465E+02  0.20000011038E+02 0.  0.
        -12    1    1    2    0    0  0.92100276772E+01 -0.38947036384E+02  0.16790676306E+02  0.43400726535E+02  0.00000000000E+00 0.  1.
         11    1    3    3    0    0  0.12856680654E+01  0.24768382726E+01 -0.57231666993E+01  0.63672841567E+01  0.51100000000E-03 0. -1.
        -11    1    3    3    0    0 -0.81204154083E+00 -0.91429627470E+00 -0.79579996165E+00  0.14589883420E+01  0.51100000000E-03 0.  1.
        -12    1    3    3    0    0 -0.96836542018E+01  0.37384494386E+02 -0.10271709645E+02  0.39961000967E+02  0.00000000000E+00 0.  1.
</event>
<event>
 7    1  0.4011333E-009  0.4778727E+02  0.7816164E-02  0.1312668E+00
        -11   -1    0    0    0    0  0.00000000000E+00  0.00000000000E+00  0.45593999997E+02  0.45594000000E+02  0.51100000000E-03 0.  1.
         11   -1    0    0    0    0 -0.00000000000E+00 -0.00000000000E+00 -0.45593999997E+02  0.45594000000E+02  0.51100000000E-03 0. -1.
    9900012    2    1    2    0    0 -0.28515417596E+02 -0.18796815570E+02 -0.26780109884E+02  0.47787267269E+02  0.19999982785E+02 0.  0.
        -12    1    1    2    0    0  0.28515417596E+02  0.18796815570E+02  0.26780109884E+02  0.43400732731E+02  0.00000000000E+00 0.  1.
         11    1    3    3    0    0 -0.52000692894E+01 -0.17657510870E+01 -0.26696604763E+01  0.61062005237E+01  0.51100000000E-03 0. -1.
        -11    1    3    3    0    0 -0.12946329132E+02 -0.17127161899E+02 -0.88303772146E+01  0.23214708155E+02  0.51100000000E-03 0.  1.
         12    1    3    3    0    0 -0.10369019174E+02  0.96097416208E-01 -0.15280072193E+02  0.18466358590E+02  0.00000000000E+00 0. -1.
</event>
<event>
 7    1  0.4011333E-009  0.4778727E+02  0.7816164E-02  0.1312668E+00
        -11   -1    0    0    0    0  0.00000000000E+00  0.00000000000E+00  0.45593999997E+02  0.45594000000E+02  0.51100000000E-03 0.  1.
         11   -1    0    0    0    0 -0.00000000000E+00 -0.00000000000E+00 -0.45593999997E+02  0.45594000000E+02  0.51100000000E-03 0. -1.
    9900012    2    1    2    0    0  0.38724572382E+01  0.33179706703E+02 -0.27708017834E+02  0.47787272883E+02  0.20000008384E+02 0.  0.
        -12    1    1    2    0    0 -0.38724572382E+01 -0.33179706703E+02  0.27708017834E+02  0.43400727117E+02  0.00000000000E+00 0.  1.
         11    1    3    3    0    0 -0.12551147516E+01  0.68370675522E+01 -0.11231182907E+02  0.13208341134E+02  0.51100000000E-03 0. -1.
        -11    1    3    3    0    0  0.48100921546E+00  0.24129174128E+02 -0.16825708669E+02  0.29420280189E+02  0.51100000000E-03 0.  1.
        -12    1    3    3    0    0  0.46465627743E+01  0.22134650235E+01  0.34887374285E+00  0.51586515597E+01  0.00000000000E+00 0.  1.
</event>
<event>
 7    1  0.4011333E-009  0.4778727E+02  0.7816164E-02  0.1312668E+00
        -11   -1    0    0    0    0  0.00000000000E+00  0.00000000000E+00  0.45593999997E+02  0.45594000000E+02  0.51100000000E-03 0. -1.
         11   -1    0    0    0    0 -0.00000000000E+00 -0.00000000000E+00 -0.45593999997E+02  0.45594000000E+02  0.51100000000E-03 0.  1.
    9900012    2    1    2    0    0 -0.47567540370E+01 -0.40331307117E+02 -0.15309551020E+02  0.47787269647E+02  0.19999993630E+02 0.  0.
        -12    1    1    2    0    0  0.47567540370E+01  0.40331307117E+02  0.15309551020E+02  0.43400730353E+02  0.00000000000E+00 0.  1.
         11    1    3    3    0    0 -0.17302451880E+01 -0.26649352724E+02 -0.16263354703E+02  0.31267850189E+02  0.51100000000E-03 0. -1.
        -11    1    3    3    0    0  0.19596524006E+01 -0.55160675304E+01 -0.24752895899E+01  0.63556508201E+01  0.51100000000E-03 0.  1.
        -12    1    3    3    0    0 -0.49861612496E+01 -0.81658868624E+01  0.34290932724E+01  0.10163768638E+02  0.00000000000E+00 0.  1.
</event>
<event>
 7    1  0.4011333E-009  0.4778727E+02  0.7816164E-02  0.1312668E+00
        -11   -1    0    0    0    0  0.00000000000E+00  0.00000000000E+00  0.45593999997E+02  0.45594000000E+02  0.51100000000E-03 0.  1.
         11   -1    0    0    0    0 -0.00000000000E+00 -0.00000000000E+00 -0.45593999997E+02  0.45594000000E+02  0.51100000000E-03 0. -1.
    9900012    2    1    2    0    0  0.20659982566E+02 -0.28467142780E+02 -0.25424604144E+02  0.47787267362E+02  0.19999983209E+02 0.  0.
        -12    1    1    2    0    0 -0.20659982566E+02  0.28467142780E+02  0.25424604144E+02  0.43400732638E+02  0.00000000000E+00 0.  1.
         11    1    3    3    0    0  0.22211874786E+02 -0.27963823070E+02 -0.25962216502E+02  0.44151777634E+02  0.51100000000E-03 0. -1.
        -11    1    3    3    0    0  0.43852848542E+00 -0.13285406229E+01  0.48305683463E+00  0.14800917491E+01  0.51100000000E-03 0.  1.
         12    1    3    3    0    0 -0.19904207060E+01  0.82522091349E+00  0.54555523899E-01  0.21553979791E+01  0.00000000000E+00 0. -1.
</event>
<event>
 7    1  0.4011333E-009  0.4778727E+02  0.7816164E-02  0.1312668E+00
        -11   -1    0    0    0    0  0.00000000000E+00  0.00000000000E+00  0.45593999997E+02  0.45594000000E+02  0.51100000000E-03 0.  1.
         11   -1    0    0    0    0 -0.00000000000E+00 -0.00000000000E+00 -0.45593999997E+02  0.45594000000E+02  0.51100000000E-03 0. -1.
    9900012    2    1    2    0    0 -0.26541799939E+02 -0.26632037297E+02 -0.21676963138E+02  0.47787270911E+02  0.19999999390E+02 0.  0.
        -12    1    1    2    0    0  0.26541799939E+02  0.26632037297E+02  0.21676963138E+02  0.43400729089E+02  0.00000000000E+00 0.  1.
         11    1    3    3    0    0 -0.21574466121E+01  0.11992091645E+01 -0.28193181734E+01  0.37471634243E+01  0.51100000000E-03 0.  1.
        -11    1    3    3    0    0 -0.19798336990E+02 -0.13180867684E+02 -0.74834095516E+01  0.24934130008E+02  0.51100000000E-03 0. -1.
         12    1    3    3    0    0 -0.45860163368E+01 -0.14650378778E+02 -0.11374235413E+02  0.19105977478E+02  0.00000000000E+00 0. -1.
</event>
<event>
 7    1  0.4011333E-009  0.4778727E+02  0.7816164E-02  0.1312668E+00
        -11   -1    0    0    0    0  0.00000000000E+00  0.00000000000E+00  0.45593999997E+02  0.45594000000E+02  0.51100000000E-03 0.  1.
         11   -1    0    0    0    0 -0.00000000000E+00 -0.00000000000E+00 -0.45593999997E+02  0.45594000000E+02  0.51100000000E-03 0. -1.
    9900012    2    1    2    0    0 -0.27298580391E+02 -0.45508986951E+01 -0.33432020458E+02  0.47787272331E+02  0.20000005865E+02 0.  0.
        -12    1    1    2    0    0  0.27298580391E+02  0.45508986951E+01  0.33432020458E+02  0.43400727669E+02  0.00000000000E+00 0.  1.
         11    1    3    3    0    0 -0.13563451082E+02 -0.47083413790E+00 -0.11448949744E+02  0.17755769218E+02  0.51100000000E-03 0. -1.
        -11    1    3    3    0    0 -0.74158952717E+01 -0.27130417852E+01 -0.86256290980E+00  0.79435579839E+01  0.51100000000E-03 0.  1.
        -12    1    3    3    0    0 -0.63192340374E+01 -0.13670227719E+01 -0.21120507805E+02  0.22087945129E+02  0.00000000000E+00 0.  1.
</event>
<event>
 7    1  0.4011333E-009  0.4778727E+02  0.7816164E-02  0.1312668E+00
        -11   -1    0    0    0    0  0.00000000000E+00  0.00000000000E+00  0.45593999997E+02  0.45594000000E+02  0.51100000000E-03 0.  1.
         11   -1    0    0    0    0 -0.00000000000E+00 -0.00000000000E+00 -0.45593999997E+02  0.45594000000E+02  0.51100000000E-03 0. -1.
    9900012    2    1    2    0    0 -0.17913821482E+02 -0.44685600449E+01 -0.39277857284E+02  0.47787273027E+02  0.20000009041E+02 0.  0.
        -12    1    1    2    0    0  0.17913821482E+02  0.44685600449E+01  0.39277857284E+02  0.43400726973E+02  0.00000000000E+00 0.  1.
         11    1    3    3    0    0 -0.53946473174E+01  0.59647279899E+01 -0.10512470478E+02  0.13236020380E+02  0.51100000000E-03 0. -1.
        -11    1    3    3    0    0  0.95447151583E+00 -0.25006368197E+01 -0.13670650118E+01  0.30055061780E+01  0.51100000000E-03 0.  1.
        -12    1    3    3    0    0 -0.13473645680E+02 -0.79326512150E+01 -0.27398321794E+02  0.31545746470E+02  0.00000000000E+00 0.  1.
</event>
<event>
 7    1  0.4011333E-009  0.4778728E+02  0.7816164E-02  0.1312668E+00
        -11   -1    0    0    0    0  0.00000000000E+00  0.00000000000E+00  0.45593999997E+02  0.45594000000E+02  0.51100000000E-03 0. -1.
         11   -1    0    0    0    0 -0.00000000000E+00 -0.00000000000E+00 -0.45593999997E+02  0.45594000000E+02  0.51100000000E-03 0.  1.
    9900012    2    1    2    0    0 -0.43022640960E+02  0.36198033707E+01  0.44240379141E+01  0.47787277390E+02  0.20000028932E+02 0.  0.
        -12    1    1    2    0    0  0.43022640960E+02 -0.36198033707E+01 -0.44240379141E+01  0.43400722610E+02  0.00000000000E+00 0.  1.
         11    1    3    3    0    0 -0.22370868845E+02  0.37389417729E+01 -0.53870570977E+01  0.23312139389E+02  0.51100000000E-03 0. -1.
        -11    1    3    3    0    0 -0.12067512923E+02  0.31682298095E+01  0.24870958271E+01  0.12721957168E+02  0.51100000000E-03 0.  1.
        -12    1    3    3    0    0 -0.85842591917E+01 -0.32873682118E+01  0.73239991847E+01  0.11753180833E+02  0.00000000000E+00 0.  1.
</event>
<event>
 7    1  0.4011333E-009  0.4778727E+02  0.7816164E-02  0.1312668E+00
        -11   -1    0    0    0    0  0.00000000000E+00  0.00000000000E+00  0.45593999997E+02  0.45594000000E+02  0.51100000000E-03 0.  1.
         11   -1    0    0    0    0 -0.00000000000E+00 -0.00000000000E+00 -0.45593999997E+02  0.45594000000E+02  0.51100000000E-03 0. -1.
    9900012    2    1    2    0    0  0.17200388059E+02  0.22493767646E+02 -0.32890731182E+02  0.47787272702E+02  0.20000007560E+02 0.  0.
        -12    1    1    2    0    0 -0.17200388059E+02 -0.22493767646E+02  0.32890731182E+02  0.43400727298E+02  0.00000000000E+00 0.  1.
         11    1    3    3    0    0  0.33059706752E+01  0.78907981036E+01 -0.25408725244E+01  0.89246944073E+01  0.51100000000E-03 0. -1.
        -11    1    3    3    0    0  0.70856739879E+00  0.24068699744E+01  0.10249347236E+01  0.27102734698E+01  0.51100000000E-03 0.  1.
         12    1    3    3    0    0  0.13185849985E+02  0.12196099568E+02 -0.31374793381E+02  0.36152304825E+02  0.00000000000E+00 0. -1.
</event>
<event>
 7    1  0.4011333E-009  0.4778728E+02  0.7816164E-02  0.1312668E+00
        -11   -1    0    0    0    0  0.00000000000E+00  0.00000000000E+00  0.45593999997E+02  0.45594000000E+02  0.51100000000E-03 0. -1.
         11   -1    0    0    0    0 -0.00000000000E+00 -0.00000000000E+00 -0.45593999997E+02  0.45594000000E+02  0.51100000000E-03 0.  1.
    9900012    2    1    2    0    0 -0.18005516197E+02  0.37385442974E+02  0.12718183269E+02  0.47787284043E+02  0.20000059267E+02 0.  0.
        -12    1    1    2    0    0  0.18005516197E+02 -0.37385442974E+02 -0.12718183269E+02  0.43400715957E+02  0.00000000000E+00 0.  1.
         11    1    3    3    0    0 -0.42013387443E+01  0.42123993760E+01 -0.42646572254E+00  0.59646818038E+01  0.51100000000E-03 0. -1.
        -11    1    3    3    0    0 -0.38502019269E+01  0.12300610114E+01 -0.26404407036E+01  0.48279428683E+01  0.51100000000E-03 0.  1.
         12    1    3    3    0    0 -0.99539755258E+01  0.31942982587E+02  0.15785089695E+02  0.36994659371E+02  0.00000000000E+00 0. -1.
</event>
<event>
 7    1  0.4011333E-009  0.4778726E+02  0.7816164E-02  0.1312668E+00
        -11   -1    0    0    0    0  0.00000000000E+00  0.00000000000E+00  0.45593999997E+02  0.45594000000E+02  0.51100000000E-03 0.  1.
         11   -1    0    0    0    0 -0.00000000000E+00 -0.00000000000E+00 -0.45593999997E+02  0.45594000000E+02  0.51100000000E-03 0. -1.
    9900012    2    1    2    0    0  0.26085582260E+01 -0.67824210475E+01 -0.42788059716E+02  0.47787264228E+02  0.19999968921E+02 0.  0.
        -12    1    1    2    0    0 -0.26085582260E+01  0.67824210475E+01  0.42788059716E+02  0.43400735772E+02  0.00000000000E+00 0.  1.
         11    1    3    3    0    0 -0.65865804950E+00  0.27139641478E+01 -0.65306047634E+01  0.71026917896E+01  0.51100000000E-03 0. -1.
        -11    1    3    3    0    0 -0.30852904815E+01 -0.68667497229E+01 -0.59175405222E+01  0.95754141010E+01  0.51100000000E-03 0.  1.
         12    1    3    3    0    0  0.63525067570E+01 -0.26296354723E+01 -0.30339914431E+02  0.31109158337E+02  0.00000000000E+00 0. -1.
</event>
<event>
 7    1  0.4011333E-009  0.4778726E+02  0.7816164E-02  0.1312668E+00
        -11   -1    0    0    0    0  0.00000000000E+00  0.00000000000E+00  0.45593999997E+02  0.45594000000E+02  0.51100000000E-03 0.  1.
         11   -1    0    0    0    0 -0.00000000000E+00 -0.00000000000E+00 -0.45593999997E+02  0.45594000000E+02  0.51100000000E-03 0. -1.
    9900012    2    1    2    0    0 -0.61289022077E+01  0.18117843535E+02 -0.38959010317E+02  0.47787260588E+02  0.19999952326E+02 0.  0.
        -12    1    1    2    0    0  0.61289022077E+01 -0.18117843535E+02  0.38959010317E+02  0.43400739412E+02  0.00000000000E+00 0.  1.
         11    1    3    3    0    0  0.11507282632E+00  0.40219210709E+01 -0.82912872761E+01  0.92159934794E+01  0.51100000000E-03 0. -1.
        -11    1    3    3    0    0 -0.46605626139E+01 -0.30969801305E+00 -0.20098794447E+02  0.20634395926E+02  0.51100000000E-03 0.  1.
         12    1    3    3    0    0 -0.15834124202E+01  0.14405620477E+02 -0.10568928594E+02  0.17936871183E+02  0.00000000000E+00 0. -1.
</event>
<event>
 7    1  0.4011333E-009  0.4778728E+02  0.7816164E-02  0.1312668E+00
        -11   -1    0    0    0    0  0.00000000000E+00  0.00000000000E+00  0.45593999997E+02  0.45594000000E+02  0.51100000000E-03 0.  1.
         11   -1    0    0    0    0 -0.00000000000E+00 -0.00000000000E+00 -0.45593999997E+02  0.45594000000E+02  0.51100000000E-03 0. -1.
    9900012    2    1    2    0    0  0.39345552556E+02 -0.10714596561E+02 -0.14857582556E+02  0.47787275987E+02  0.20000022537E+02 0.  0.
        -12    1    1    2    0    0 -0.39345552556E+02  0.10714596561E+02  0.14857582556E+02  0.43400724013E+02  0.00000000000E+00 0.  1.
         11    1    3    3    0    0  0.30887880049E+02 -0.36280072818E+01 -0.13609364298E+02  0.33947582648E+02  0.51100000000E-03 0. -1.
        -11    1    3    3    0    0  0.33841253114E+01 -0.24530929826E+01 -0.45825695684E+01  0.62024119031E+01  0.51100000000E-03 0.  1.
        -12    1    3    3    0    0  0.50735471951E+01 -0.46334962966E+01  0.33343513109E+01  0.76372814362E+01  0.00000000000E+00 0.  1.
</event>
<event>
 7    1  0.4011333E-009  0.4778727E+02  0.7816164E-02  0.1312668E+00
        -11   -1    0    0    0    0  0.00000000000E+00  0.00000000000E+00  0.45593999997E+02  0.45594000000E+02  0.51100000000E-03 0.  1.
         11   -1    0    0    0    0 -0.00000000000E+00 -0.00000000000E+00 -0.45593999997E+02  0.45594000000E+02  0.51100000000E-03 0. -1.
    9900012    2    1    2    0    0 -0.22606423681E+02 -0.11208959391E+02 -0.35311932594E+02  0.47787265608E+02  0.19999975211E+02 0.  0.
        -12    1    1    2    0    0  0.22606423681E+02  0.11208959391E+02  0.35311932594E+02  0.43400734392E+02  0.00000000000E+00 0.  1.
         11    1    3    3    0    0 -0.12787322517E+01 -0.91055808707E+00  0.76605228563E+00  0.17467422726E+01  0.51100000000E-03 0. -1.
        -11    1    3    3    0    0 -0.13247719043E+02 -0.17635404400E+01 -0.79366631397E+01  0.15543576062E+02  0.51100000000E-03 0.  1.
         12    1    3    3    0    0 -0.80799723863E+01 -0.85348608638E+01 -0.28141321740E+02  0.30496947273E+02  0.00000000000E+00 0. -1.
</event>
<event>
 7    1  0.4011333E-009  0.4778727E+02  0.7816164E-02  0.1312668E+00
        -11   -1    0    0    0    0  0.00000000000E+00  0.00000000000E+00  0.45593999997E+02  0.45594000000E+02  0.51100000000E-03 0.  1.
         11   -1    0    0    0    0 -0.00000000000E+00 -0.00000000000E+00 -0.45593999997E+02  0.45594000000E+02  0.51100000000E-03 0. -1.
    9900012    2    1    2    0    0 -0.18056430387E+02 -0.13622874111E+02 -0.37040598313E+02  0.47787270734E+02  0.19999998587E+02 0.  0.
        -12    1    1    2    0    0  0.18056430387E+02  0.13622874111E+02  0.37040598313E+02  0.43400729266E+02  0.00000000000E+00 0.  1.
         11    1    3    3    0    0 -0.48615371450E+01 -0.83515530162E+01 -0.49557067693E+01  0.10860111005E+02  0.51100000000E-03 0. -1.
        -11    1    3    3    0    0  0.12668801715E+01 -0.32386009913E+01 -0.85399274150E+01  0.92208395640E+01  0.51100000000E-03 0.  1.
        -12    1    3    3    0    0 -0.14461773414E+02 -0.20327201040E+01 -0.23544964129E+02  0.27706320166E+02  0.00000000000E+00 0.  1.
</event>
<event>
 7    1  0.4011333E-009  0.4778727E+02  0.7816164E-02  0.1312668E+00
        -11   -1    0    0    0    0  0.00000000000E+00  0.00000000000E+00  0.45593999997E+02  0.45594000000E+02  0.51100000000E-03 0.  1.
         11   -1    0    0    0    0 -0.00000000000E+00 -0.00000000000E+00 -0.45593999997E+02  0.45594000000E+02  0.51100000000E-03 0. -1.
    9900012    2    1    2    0    0  0.63588592134E+01 -0.25583407143E+02 -0.34477205376E+02  0.47787268415E+02  0.19999988012E+02 0.  0.
        -12    1    1    2    0    0 -0.63588592134E+01  0.25583407143E+02  0.34477205376E+02  0.43400731585E+02  0.00000000000E+00 0.  1.
         11    1    3    3    0    0  0.29125446345E+01 -0.34194639349E+01 -0.57214842707E+01  0.72739970010E+01  0.51100000000E-03 0. -1.
        -11    1    3    3    0    0 -0.43826438522E+01 -0.12013743072E+02 -0.54216122310E+01  0.13889977292E+02  0.51100000000E-03 0.  1.
         12    1    3    3    0    0  0.78289584312E+01 -0.10150200136E+02 -0.23334108875E+02  0.26623294122E+02  0.00000000000E+00 0. -1.
</event>
<event>
 7    1  0.4011333E-009  0.4778726E+02  0.7816164E-02  0.1312668E+00
        -11   -1    0    0    0    0  0.00000000000E+00  0.00000000000E+00  0.45593999997E+02  0.45594000000E+02  0.51100000000E-03 0. -1.
         11   -1    0    0    0    0 -0.00000000000E+00 -0.00000000000E+00 -0.45593999997E+02  0.45594000000E+02  0.51100000000E-03 0.  1.
    9900012    2    1    2    0    0 -0.18486715128E+02 -0.37414533503E+02  0.11917139795E+02  0.47787260670E+02  0.19999952698E+02 0.  0.
        -12    1    1    2    0    0  0.18486715128E+02  0.37414533503E+02 -0.11917139795E+02  0.43400739330E+02  0.00000000000E+00 0.  1.
         11    1    3    3    0    0 -0.81191113290E+01 -0.95738632856E+01  0.63094606239E+00  0.12568886990E+02  0.51100000000E-03 0. -1.
        -11    1    3    3    0    0 -0.12309757986E+02 -0.28164355738E+02  0.86554201326E+01  0.31932387536E+02  0.51100000000E-03 0.  1.
        -12    1    3    3    0    0  0.19421541866E+01  0.32368551991E+00  0.26307736004E+01  0.32859861438E+01  0.00000000000E+00 0.  1.
</event>
<event>
 7    1  0.4011333E-009  0.4778727E+02  0.7816164E-02  0.1312668E+00
        -11   -1    0    0    0    0  0.00000000000E+00  0.00000000000E+00  0.45593999997E+02  0.45594000000E+02  0.51100000000E-03 0. -1.
         11   -1    0    0    0    0 -0.00000000000E+00 -0.00000000000E+00 -0.45593999997E+02  0.45594000000E+02  0.51100000000E-03 0.  1.
    9900012    2    1    2    0    0 -0.37505473654E+02 -0.25047307630E+01  0.21695369023E+02  0.47787271121E+02  0.20000000350E+02 0.  0.
        -12    1    1    2    0    0  0.37505473654E+02  0.25047307630E+01 -0.21695369023E+02  0.43400728879E+02  0.00000000000E+00 0.  1.
         11    1    3    3    0    0 -0.72949875780E+01 -0.22952167290E+01  0.10201762120E+02  0.12749933890E+02  0.51100000000E-03 0. -1.
        -11    1    3    3    0    0 -0.12214047272E+02 -0.98310327786E+00  0.11814373489E+02  0.17021423678E+02  0.51100000000E-03 0.  1.
        -12    1    3    3    0    0 -0.17996438804E+02  0.77358924389E+00 -0.32076658660E+00  0.18015913553E+02  0.00000000000E+00 0.  1.
</event>
<event>
 7    1  0.4011333E-009  0.4778727E+02  0.7816164E-02  0.1312668E+00
        -11   -1    0    0    0    0  0.00000000000E+00  0.00000000000E+00  0.45593999997E+02  0.45594000000E+02  0.51100000000E-03 0.  1.
         11   -1    0    0    0    0 -0.00000000000E+00 -0.00000000000E+00 -0.45593999997E+02  0.45594000000E+02  0.51100000000E-03 0. -1.
    9900012    2    1    2    0    0  0.24093831028E+02 -0.26102604997E+02 -0.24935205776E+02  0.47787272261E+02  0.20000005545E+02 0.  0.
        -12    1    1    2    0    0 -0.24093831028E+02  0.26102604997E+02  0.24935205776E+02  0.43400727739E+02  0.00000000000E+00 0.  1.
         11    1    3    3    0    0  0.97613873812E+01 -0.20884524496E+02 -0.19042219992E+02  0.29900738946E+02  0.51100000000E-03 0.  1.
        -11    1    3    3    0    0  0.34623364567E+00  0.12310896103E+01 -0.12792101103E+01  0.18088223057E+01  0.51100000000E-03 0. -1.
         12    1    3    3    0    0  0.13986210001E+02 -0.64491701109E+01 -0.46137756735E+01  0.16077711009E+02  0.00000000000E+00 0. -1.
</event>
<event>
 7    1  0.4011333E-009  0.4778727E+02  0.7816164E-02  0.1312668E+00
        -11   -1    0    0    0    0  0.00000000000E+00  0.00000000000E+00  0.45593999997E+02  0.45594000000E+02  0.51100000000E-03 0.  1.
         11   -1    0    0    0    0 -0.00000000000E+00 -0.00000000000E+00 -0.45593999997E+02  0.45594000000E+02  0.51100000000E-03 0. -1.
    9900012    2    1    2    0    0 -0.15596231231E+02  0.12291301293E+02 -0.38591515400E+02  0.47787267553E+02  0.19999984082E+02 0.  0.
        -12    1    1    2    0    0  0.15596231231E+02 -0.12291301293E+02  0.38591515400E+02  0.43400732447E+02  0.00000000000E+00 0.  1.
         11    1    3    3    0    0 -0.12361632485E+02  0.63461564274E+01 -0.13267465847E+02  0.19212217710E+02  0.51100000000E-03 0.  1.
        -11    1    3    3    0    0 -0.67499768467E+01  0.66463248285E+01 -0.16116190925E+02  0.18694048020E+02  0.51100000000E-03 0. -1.
        -12    1    3    3    0    0  0.35153781001E+01 -0.70117996310E+00 -0.92078586275E+01  0.98810018233E+01  0.00000000000E+00 0.  1.
</event>
<event>
 7    1  0.4011333E-009  0.4778727E+02  0.7816164E-02  0.1312668E+00
        -11   -1    0    0    0    0  0.00000000000E+00  0.00000000000E+00  0.45593999997E+02  0.45594000000E+02  0.51100000000E-03 0.  1.
         11   -1    0    0    0    0 -0.00000000000E+00 -0.00000000000E+00 -0.45593999997E+02  0.45594000000E+02  0.51100000000E-03 0. -1.
    9900012    2    1    2    0    0 -0.36179575625E+01 -0.24390007546E+01 -0.43180839255E+02  0.47787271661E+02  0.20000002810E+02 0.  0.
        -12    1    1    2    0    0  0.36179575625E+01  0.24390007546E+01  0.43180839255E+02  0.43400728339E+02  0.00000000000E+00 0.  1.
         11    1    3    3    0    0 -0.93633182719E+00  0.13464083796E+01 -0.10561006163E+02  0.10687580842E+02  0.51100000000E-03 0. -1.
        -11    1    3    3    0    0  0.18054615485E+01 -0.68085469488E+01 -0.42675358891E+01  0.82357674678E+01  0.51100000000E-03 0.  1.
        -12    1    3    3    0    0 -0.44870872839E+01  0.30231378146E+01 -0.28352297203E+02  0.28863923351E+02  0.00000000000E+00 0.  1.
</event>
<event>
 7    1  0.4011333E-009  0.4778727E+02  0.7816164E-02  0.1312668E+00
        -11   -1    0    0    0    0  0.00000000000E+00  0.00000000000E+00  0.45593999997E+02  0.45594000000E+02  0.51100000000E-03 0.  1.
         11   -1    0    0    0    0 -0.00000000000E+00 -0.00000000000E+00 -0.45593999997E+02  0.45594000000E+02  0.51100000000E-03 0. -1.
    9900012    2    1    2    0    0 -0.10233950740E+02  0.40906687048E+00 -0.42174898237E+02  0.47787272763E+02  0.20000007834E+02 0.  0.
        -12    1    1    2    0    0  0.10233950740E+02 -0.40906687048E+00  0.42174898237E+02  0.43400727237E+02  0.00000000000E+00 0.  1.
         11    1    3    3    0    0 -0.45226175942E+01 -0.61276186928E+01 -0.18570116475E+02  0.20071148619E+02  0.51100000000E-03 0. -1.
        -11    1    3    3    0    0 -0.89202887673E+01  0.48433396946E+01 -0.12909063778E+02  0.16421736174E+02  0.51100000000E-03 0.  1.
         12    1    3    3    0    0  0.32089556211E+01  0.16933458687E+01 -0.10695717984E+02  0.11294387970E+02  0.00000000000E+00 0. -1.
</event>
<event>
 7    1  0.4011333E-009  0.4778729E+02  0.7816164E-02  0.1312668E+00
        -11   -1    0    0    0    0  0.00000000000E+00  0.00000000000E+00  0.45593999997E+02  0.45594000000E+02  0.51100000000E-03 0.  1.
         11   -1    0    0    0    0 -0.00000000000E+00 -0.00000000000E+00 -0.45593999997E+02  0.45594000000E+02  0.51100000000E-03 0. -1.
    9900012    2    1    2    0    0 -0.14965584517E+02  0.12986998597E+02 -0.38613352369E+02  0.47787287636E+02  0.20000075650E+02 0.  0.
        -12    1    1    2    0    0  0.14965584517E+02 -0.12986998597E+02  0.38613352369E+02  0.43400712364E+02  0.00000000000E+00 0.  1.
         11    1    3    3    0    0  0.12245549819E+01  0.36483420336E+01 -0.47183771824E+00  0.38771852666E+01  0.51100000000E-03 0. -1.
        -11    1    3    3    0    0 -0.46084211883E+01  0.90598366254E+01 -0.18354550792E+02  0.20981127724E+02  0.51100000000E-03 0.  1.
         12    1    3    3    0    0 -0.11581718310E+02  0.27881993844E+00 -0.19786963859E+02  0.22928974646E+02  0.00000000000E+00 0. -1.
</event>
<event>
 7    1  0.4011333E-009  0.4778727E+02  0.7816164E-02  0.1312668E+00
        -11   -1    0    0    0    0  0.00000000000E+00  0.00000000000E+00  0.45593999997E+02  0.45594000000E+02  0.51100000000E-03 0.  1.
         11   -1    0    0    0    0 -0.00000000000E+00 -0.00000000000E+00 -0.45593999997E+02  0.45594000000E+02  0.51100000000E-03 0. -1.
    9900012    2    1    2    0    0  0.30173183231E+02 -0.18055290005E+02 -0.25440293616E+02  0.47787273938E+02  0.20000013192E+02 0.  0.
        -12    1    1    2    0    0 -0.30173183231E+02  0.18055290005E+02  0.25440293616E+02  0.43400726062E+02  0.00000000000E+00 0.  1.
         11    1    3    3    0    0  0.58821879869E+01 -0.21222399124E+01 -0.13450337825E+02  0.14832923705E+02  0.51100000000E-03 0. -1.
        -11    1    3    3    0    0  0.14449270285E+01 -0.71683281890E+00  0.16459222802E+01  0.23045007749E+01  0.51100000000E-03 0.  1.
         12    1    3    3    0    0  0.22846068216E+02 -0.15216217274E+02 -0.13635878071E+02  0.30649849458E+02  0.00000000000E+00 0. -1.
</event>
<event>
 7    1  0.4011333E-009  0.4778727E+02  0.7816164E-02  0.1312668E+00
        -11   -1    0    0    0    0  0.00000000000E+00  0.00000000000E+00  0.45593999997E+02  0.45594000000E+02  0.51100000000E-03 0.  1.
         11   -1    0    0    0    0 -0.00000000000E+00 -0.00000000000E+00 -0.45593999997E+02  0.45594000000E+02  0.51100000000E-03 0. -1.
    9900012    2    1    2    0    0 -0.35122178954E+02 -0.97960349593E+01 -0.23539196892E+02  0.47787267913E+02  0.19999985722E+02 0.  0.
        -12    1    1    2    0    0  0.35122178954E+02  0.97960349593E+01  0.23539196892E+02  0.43400732087E+02  0.00000000000E+00 0.  1.
         11    1    3    3    0    0 -0.10456437138E+01  0.24680872864E+00  0.18478949878E+01  0.21375222740E+01  0.51100000000E-03 0. -1.
        -11    1    3    3    0    0 -0.51188631108E+01  0.18933870613E+01 -0.84032812921E+01  0.10020120301E+02  0.51100000000E-03 0.  1.
         12    1    3    3    0    0 -0.28957672129E+02 -0.11936230749E+02 -0.16983810588E+02  0.35629625338E+02  0.00000000000E+00 0. -1.
</event>
<event>
 7    1  0.4011333E-009  0.4778727E+02  0.7816164E-02  0.1312668E+00
        -11   -1    0    0    0    0  0.00000000000E+00  0.00000000000E+00  0.45593999997E+02  0.45594000000E+02  0.51100000000E-03 0.  1.
         11   -1    0    0    0    0 -0.00000000000E+00 -0.00000000000E+00 -0.45593999997E+02  0.45594000000E+02  0.51100000000E-03 0. -1.
    9900012    2    1    2    0    0 -0.33673439115E+02 -0.13282911418E+02 -0.23943419413E+02  0.47787267624E+02  0.19999984405E+02 0.  0.
        -12    1    1    2    0    0  0.33673439115E+02  0.13282911418E+02  0.23943419413E+02  0.43400732376E+02  0.00000000000E+00 0.  1.
         11    1    3    3    0    0 -0.60534050292E+01 -0.26493923045E+01 -0.94256900529E+01  0.11511152213E+02  0.51100000000E-03 0. -1.
        -11    1    3    3    0    0 -0.47333509939E+01 -0.26645195637E+01 -0.10346124472E+02  0.11685314202E+02  0.51100000000E-03 0.  1.
         12    1    3    3    0    0 -0.22886683092E+02 -0.79689995494E+01 -0.41716048875E+01  0.24590801209E+02  0.00000000000E+00 0. -1.
</event>
<event>
 7    1  0.4011333E-009  0.4778731E+02  0.7816164E-02  0.1312668E+00
        -11   -1    0    0    0    0  0.00000000000E+00  0.00000000000E+00  0.45593999997E+02  0.45594000000E+02  0.51100000000E-03 0.  1.
         11   -1    0    0    0    0 -0.00000000000E+00 -0.00000000000E+00 -0.45593999997E+02  0.45594000000E+02  0.51100000000E-03 0. -1.
    9900012    2    1    2    0    0 -0.35671262046E+01 -0.46307245572E+01 -0.43005253449E+02  0.47787310794E+02  0.20000181235E+02 0.  0.
        -12    1    1    2    0    0  0.35671262046E+01  0.46307245572E+01  0.43005253449E+02  0.43400689206E+02  0.00000000000E+00 0.  1.
         11    1    3    3    0    0 -0.48401540518E+01 -0.75830121704E+01 -0.20985769794E+02  0.22832689262E+02  0.51100000000E-03 0. -1.
        -11    1    3    3    0    0 -0.24904836225E+01 -0.16732075631E+01 -0.10900053377E+01  0.31922161770E+01  0.51100000000E-03 0.  1.
         12    1    3    3    0    0  0.37635114697E+01  0.46254951763E+01 -0.20929478318E+02  0.21762405355E+02  0.00000000000E+00 0. -1.
</event>
<event>
 7    1  0.4011333E-009  0.4778727E+02  0.7816164E-02  0.1312668E+00
        -11   -1    0    0    0    0  0.00000000000E+00  0.00000000000E+00  0.45593999997E+02  0.45594000000E+02  0.51100000000E-03 0. -1.
         11   -1    0    0    0    0 -0.00000000000E+00 -0.00000000000E+00 -0.45593999997E+02  0.45594000000E+02  0.51100000000E-03 0.  1.
    9900012    2    1    2    0    0 -0.94066024397E+01 -0.16404268651E+02  0.39064552060E+02  0.47787269280E+02  0.19999991953E+02 0.  0.
        -12    1    1    2    0    0  0.94066024397E+01  0.16404268651E+02 -0.39064552060E+02  0.43400730720E+02  0.00000000000E+00 0.  1.
         11    1    3    3    0    0 -0.54869764547E+01 -0.39648355740E+01  0.26948816469E+02  0.27786067391E+02  0.51100000000E-03 0. -1.
        -11    1    3    3    0    0 -0.21669051964E+00  0.14760113426E+01  0.84021457586E+00  0.17121696936E+01  0.51100000000E-03 0.  1.
        -12    1    3    3    0    0 -0.37029354654E+01 -0.13915444420E+02  0.11275521015E+02  0.18289032195E+02  0.00000000000E+00 0.  1.
</event>
<event>
 7    1  0.4062898E-009  0.4778727E+02  0.7816164E-02  0.1312668E+00
        -11   -1    0    0    0    0  0.00000000000E+00  0.00000000000E+00  0.45593999997E+02  0.45594000000E+02  0.51100000000E-03 0. -1.
         11   -1    0    0    0    0 -0.00000000000E+00 -0.00000000000E+00 -0.45593999997E+02  0.45594000000E+02  0.51100000000E-03 0.  1.
    9900012    2    1    2    0    0 -0.17167346943E+02 -0.23160569708E+02  0.32442157333E+02  0.47787270021E+02  0.19999995336E+02 0.  0.
        -12    1    1    2    0    0  0.17167346943E+02  0.23160569708E+02 -0.32442157333E+02  0.43400729979E+02  0.00000000000E+00 0.  1.
         11    1    3    3    0    0 -0.11260909957E+02 -0.79865479128E+01  0.95410122788E+01  0.16781655347E+02  0.51100000000E-03 0. -1.
        -11    1    3    3    0    0 -0.32987086802E+01 -0.10130868502E+02  0.41842285641E+01  0.11446560379E+02  0.51100000000E-03 0.  1.
        -12    1    3    3    0    0 -0.26077283066E+01 -0.50431532926E+01  0.18716916490E+02  0.19559054296E+02  0.00000000000E+00 0.  1.
</event>
<event>
 7    1  0.4011333E-009  0.4778726E+02  0.7816164E-02  0.1312668E+00
        -11   -1    0    0    0    0  0.00000000000E+00  0.00000000000E+00  0.45593999997E+02  0.45594000000E+02  0.51100000000E-03 0. -1.
         11   -1    0    0    0    0 -0.00000000000E+00 -0.00000000000E+00 -0.45593999997E+02  0.45594000000E+02  0.51100000000E-03 0.  1.
    9900012    2    1    2    0    0 -0.17297904001E+02  0.16028433427E+02  0.36434816456E+02  0.47787262551E+02  0.19999961273E+02 0.  0.
        -12    1    1    2    0    0  0.17297904001E+02 -0.16028433427E+02 -0.36434816456E+02  0.43400737449E+02  0.00000000000E+00 0.  1.
         11    1    3    3    0    0 -0.49149735103E+01  0.17202088987E+01  0.16477608828E+02  0.17280847092E+02  0.51100000000E-03 0. -1.
        -11    1    3    3    0    0  0.49303930497E+00 -0.21240699507E+01  0.15647118019E+01  0.26838562174E+01  0.51100000000E-03 0.  1.
        -12    1    3    3    0    0 -0.12875969795E+02  0.16432294479E+02  0.18392495827E+02  0.27822559242E+02  0.00000000000E+00 0.  1.
</event>
<event>
 7    1  0.4011333E-009  0.4778727E+02  0.7816164E-02  0.1312668E+00
        -11   -1    0    0    0    0  0.00000000000E+00  0.00000000000E+00  0.45593999997E+02  0.45594000000E+02  0.51100000000E-03 0.  1.
         11   -1    0    0    0    0 -0.00000000000E+00 -0.00000000000E+00 -0.45593999997E+02  0.45594000000E+02  0.51100000000E-03 0. -1.
    9900012    2    1    2    0    0 -0.16506404315E+02  0.39621754808E+02 -0.64248249133E+01  0.47787271750E+02  0.20000003217E+02 0.  0.
        -12    1    1    2    0    0  0.16506404315E+02 -0.39621754808E+02  0.64248249133E+01  0.43400728250E+02  0.00000000000E+00 0.  1.
         11    1    3    3    0    0 -0.97327143027E+01  0.36681309105E+02 -0.61981120611E+01  0.38453358224E+02  0.51100000000E-03 0. -1.
        -11    1    3    3    0    0  0.77455950927E+00 -0.86696555840E-01 -0.87947175637E+00  0.11751295918E+01  0.51100000000E-03 0.  1.
         12    1    3    3    0    0 -0.75482495218E+01  0.30271422590E+01  0.65275890413E+00  0.81587839343E+01  0.00000000000E+00 0. -1.
</event>
<event>
 7    1  0.4011333E-009  0.4778728E+02  0.7816164E-02  0.1312668E+00
        -11   -1    0    0    0    0  0.00000000000E+00  0.00000000000E+00  0.45593999997E+02  0.45594000000E+02  0.51100000000E-03 0.  1.
         11   -1    0    0    0    0 -0.00000000000E+00 -0.00000000000E+00 -0.45593999997E+02  0.45594000000E+02  0.51100000000E-03 0. -1.
    9900012    2    1    2    0    0 -0.67789477459E+01  0.36112387472E+02 -0.23098994484E+02  0.47787283328E+02  0.20000056006E+02 0.  0.
        -12    1    1    2    0    0  0.67789477459E+01 -0.36112387472E+02  0.23098994484E+02  0.43400716672E+02  0.00000000000E+00 0.  1.
         11    1    3    3    0    0  0.64055998390E+00  0.94502425706E+00 -0.66919455827E+00  0.13233327463E+01  0.51100000000E-03 0. -1.
        -11    1    3    3    0    0 -0.10242144529E+01  0.28121319903E+01  0.34309543197E+01  0.45528616694E+01  0.51100000000E-03 0.  1.
         12    1    3    3    0    0 -0.63952932770E+01  0.32355231225E+02 -0.25860754245E+02  0.41911088912E+02  0.00000000000E+00 0. -1.
</event>
<event>
 7    1  0.4011333E-009  0.4778727E+02  0.7816164E-02  0.1312668E+00
        -11   -1    0    0    0    0  0.00000000000E+00  0.00000000000E+00  0.45593999997E+02  0.45594000000E+02  0.51100000000E-03 0.  1.
         11   -1    0    0    0    0 -0.00000000000E+00 -0.00000000000E+00 -0.45593999997E+02  0.45594000000E+02  0.51100000000E-03 0. -1.
    9900012    2    1    2    0    0 -0.17306361544E+02 -0.30779413595E+02 -0.25233722967E+02  0.47787271597E+02  0.20000002519E+02 0.  0.
        -12    1    1    2    0    0  0.17306361544E+02  0.30779413595E+02  0.25233722967E+02  0.43400728403E+02  0.00000000000E+00 0.  1.
         11    1    3    3    0    0 -0.51163164389E+01 -0.29706766574E+00 -0.11713892665E+01  0.52570995972E+01  0.51100000000E-03 0.  1.
        -11    1    3    3    0    0 -0.11863448377E+02 -0.13278918470E+02 -0.11038071089E+02  0.20950181306E+02  0.51100000000E-03 0. -1.
        -12    1    3    3    0    0 -0.32659672839E+00 -0.17203427459E+02 -0.13024262612E+02  0.21579990694E+02  0.00000000000E+00 0.  1.
</event>
<event>
 7    1  0.4011333E-009  0.4778727E+02  0.7816164E-02  0.1312668E+00
        -11   -1    0    0    0    0  0.00000000000E+00  0.00000000000E+00  0.45593999997E+02  0.45594000000E+02  0.51100000000E-03 0.  1.
         11   -1    0    0    0    0 -0.00000000000E+00 -0.00000000000E+00 -0.45593999997E+02  0.45594000000E+02  0.51100000000E-03 0. -1.
    9900012    2    1    2    0    0 -0.34611765519E+02  0.25803795056E+02 -0.44512297251E+01  0.47787267314E+02  0.19999982990E+02 0.  0.
        -12    1    1    2    0    0  0.34611765519E+02 -0.25803795056E+02  0.44512297251E+01  0.43400732686E+02  0.00000000000E+00 0.  1.
         11    1    3    3    0    0 -0.53482390392E-01  0.50376911083E+00  0.20031211379E+01  0.20661893034E+01  0.51100000000E-03 0. -1.
        -11    1    3    3    0    0 -0.90495819196E+01  0.14185889099E+02  0.11801782010E+01  0.16867934174E+02  0.51100000000E-03 0.  1.
         12    1    3    3    0    0 -0.25508701209E+02  0.11114136846E+02 -0.76345290640E+01  0.28853143836E+02  0.00000000000E+00 0. -1.
</event>
<event>
 7    1  0.4011333E-009  0.4778728E+02  0.7816164E-02  0.1312668E+00
        -11   -1    0    0    0    0  0.00000000000E+00  0.00000000000E+00  0.45593999997E+02  0.45594000000E+02  0.51100000000E-03 0. -1.
         11   -1    0    0    0    0 -0.00000000000E+00 -0.00000000000E+00 -0.45593999997E+02  0.45594000000E+02  0.51100000000E-03 0.  1.
    9900012    2    1    2    0    0  0.74147153928E+01 -0.30942787959E+02  0.29515900974E+02  0.47787279483E+02  0.20000038476E+02 0.  0.
        -12    1    1    2    0    0 -0.74147153928E+01  0.30942787959E+02 -0.29515900974E+02  0.43400720517E+02  0.00000000000E+00 0.  1.
         11    1    3    3    0    0 -0.12437594376E+01 -0.11272567822E+02  0.18395032974E+02  0.21610066201E+02  0.51100000000E-03 0. -1.
        -11    1    3    3    0    0 -0.17998806771E+00 -0.44889486014E+01  0.66931259098E+01  0.80610787092E+01  0.51100000000E-03 0.  1.
        -12    1    3    3    0    0  0.88384628981E+01 -0.15181271536E+02  0.44277420902E+01  0.18116134573E+02  0.00000000000E+00 0.  1.
</event>
<event>
 7    1  0.4011333E-009  0.4778727E+02  0.7816164E-02  0.1312668E+00
        -11   -1    0    0    0    0  0.00000000000E+00  0.00000000000E+00  0.45593999997E+02  0.45594000000E+02  0.51100000000E-03 0.  1.
         11   -1    0    0    0    0 -0.00000000000E+00 -0.00000000000E+00 -0.45593999997E+02  0.45594000000E+02  0.51100000000E-03 0. -1.
    9900012    2    1    2    0    0 -0.12276864472E+02 -0.39910019943E+01 -0.41436383810E+02  0.47787269575E+02  0.19999993301E+02 0.  0.
        -12    1    1    2    0    0  0.12276864472E+02  0.39910019943E+01  0.41436383810E+02  0.43400730425E+02  0.00000000000E+00 0.  1.
         11    1    3    3    0    0 -0.84632180727E+01 -0.72419936018E-01 -0.19555406506E+02  0.21308337070E+02  0.51100000000E-03 0. -1.
        -11    1    3    3    0    0  0.23663137497E+01  0.12787991068E+01  0.45515011962E+00  0.27279900678E+01  0.51100000000E-03 0.  1.
         12    1    3    3    0    0 -0.61799601491E+01 -0.51973811651E+01 -0.22336127423E+02  0.23750942438E+02  0.00000000000E+00 0. -1.
</event>
<event>
 7    1  0.4011333E-009  0.4778727E+02  0.7816164E-02  0.1312668E+00
        -11   -1    0    0    0    0  0.00000000000E+00  0.00000000000E+00  0.45593999997E+02  0.45594000000E+02  0.51100000000E-03 0. -1.
         11   -1    0    0    0    0 -0.00000000000E+00 -0.00000000000E+00 -0.45593999997E+02  0.45594000000E+02  0.51100000000E-03 0.  1.
    9900012    2    1    2    0    0  0.15912011654E+02  0.40245481159E+02 -0.32760016835E+01  0.47787273558E+02  0.20000011461E+02 0.  0.
        -12    1    1    2    0    0 -0.15912011654E+02 -0.40245481159E+02  0.32760016835E+01  0.43400726442E+02  0.00000000000E+00 0.  1.
         11    1    3    3    0    0  0.66859436762E+01  0.83077675679E+01 -0.19424796651E+01  0.10839468267E+02  0.51100000000E-03 0. -1.
        -11    1    3    3    0    0  0.11941756867E+02  0.27480434296E+02 -0.52538103241E+01  0.30420097787E+02  0.51100000000E-03 0.  1.
         12    1    3    3    0    0 -0.27156888893E+01  0.44572792953E+01  0.39202883056E+01  0.65277075041E+01  0.00000000000E+00 0. -1.
</event>
<event>
 7    1  0.4011333E-009  0.4778727E+02  0.7816164E-02  0.1312668E+00
        -11   -1    0    0    0    0  0.00000000000E+00  0.00000000000E+00  0.45593999997E+02  0.45594000000E+02  0.51100000000E-03 0.  1.
         11   -1    0    0    0    0 -0.00000000000E+00 -0.00000000000E+00 -0.45593999997E+02  0.45594000000E+02  0.51100000000E-03 0. -1.
    9900012    2    1    2    0    0 -0.25715037564E+01  0.42800639242E+02 -0.67168514112E+01  0.47787269085E+02  0.19999991064E+02 0.  0.
        -12    1    1    2    0    0  0.25715037564E+01 -0.42800639242E+02  0.67168514112E+01  0.43400730915E+02  0.00000000000E+00 0.  1.
         11    1    3    3    0    0  0.72721915700E+00  0.17534426075E+02  0.38624337506E+01  0.17969511407E+02  0.51100000000E-03 0. -1.
        -11    1    3    3    0    0  0.19697497129E+01  0.14247776020E+01  0.11968450766E+01  0.27096759115E+01  0.51100000000E-03 0.  1.
         12    1    3    3    0    0 -0.52684726263E+01  0.23841435566E+02 -0.11776130238E+02  0.27108081766E+02  0.00000000000E+00 0. -1.
</event>
<event>
 7    1  0.4011333E-009  0.4778727E+02  0.7816164E-02  0.1312668E+00
        -11   -1    0    0    0    0  0.00000000000E+00  0.00000000000E+00  0.45593999997E+02  0.45594000000E+02  0.51100000000E-03 0.  1.
         11   -1    0    0    0    0 -0.00000000000E+00 -0.00000000000E+00 -0.45593999997E+02  0.45594000000E+02  0.51100000000E-03 0. -1.
    9900012    2    1    2    0    0  0.30919842618E+02  0.30221541342E+02 -0.37742770612E+01  0.47787269638E+02  0.19999993588E+02 0.  0.
        -12    1    1    2    0    0 -0.30919842618E+02 -0.30221541342E+02  0.37742770612E+01  0.43400730362E+02  0.00000000000E+00 0.  1.
         11    1    3    3    0    0  0.50040837680E+01  0.12541669689E+01  0.32778562930E+01  0.61121298482E+01  0.51100000000E-03 0. -1.
        -11    1    3    3    0    0  0.28216284890E+01 -0.10741868638E+01 -0.15226653352E+01  0.33814160839E+01  0.51100000000E-03 0.  1.
         12    1    3    3    0    0  0.23094130361E+02  0.30041561237E+02 -0.55294680190E+01  0.38293723706E+02  0.00000000000E+00 0. -1.
</event>
<event>
 7    1  0.4011333E-009  0.4778730E+02  0.7816164E-02  0.1312668E+00
        -11   -1    0    0    0    0  0.00000000000E+00  0.00000000000E+00  0.45593999997E+02  0.45594000000E+02  0.51100000000E-03 0. -1.
         11   -1    0    0    0    0 -0.00000000000E+00 -0.00000000000E+00 -0.45593999997E+02  0.45594000000E+02  0.51100000000E-03 0.  1.
    9900012    2    1    2    0    0 -0.24793547151E+02  0.32639920134E+02 -0.14266622181E+02  0.47787298679E+02  0.20000125997E+02 0.  0.
        -12    1    1    2    0    0  0.24793547151E+02 -0.32639920134E+02  0.14266622181E+02  0.43400701321E+02  0.00000000000E+00 0.  1.
         11    1    3    3    0    0 -0.76678576262E+01  0.14704405856E+02  0.35001007363E+01  0.16948932049E+02  0.51100000000E-03 0.  1.
        -11    1    3    3    0    0 -0.11014904100E+02  0.11422088831E+02 -0.86356304356E+01  0.18065612054E+02  0.51100000000E-03 0. -1.
        -12    1    3    3    0    0 -0.61107854241E+01  0.65134254471E+01 -0.91310924820E+01  0.12772754576E+02  0.00000000000E+00 0.  1.
</event>
<event>
 7    1  0.4011333E-009  0.4778727E+02  0.7816164E-02  0.1312668E+00
        -11   -1    0    0    0    0  0.00000000000E+00  0.00000000000E+00  0.45593999997E+02  0.45594000000E+02  0.51100000000E-03 0. -1.
         11   -1    0    0    0    0 -0.00000000000E+00 -0.00000000000E+00 -0.45593999997E+02  0.45594000000E+02  0.51100000000E-03 0.  1.
    9900012    2    1    2    0    0 -0.36488971815E+02 -0.25626260050E+01  0.23358322092E+02  0.47787270431E+02  0.19999997202E+02 0.  0.
        -12    1    1    2    0    0  0.36488971815E+02  0.25626260050E+01 -0.23358322092E+02  0.43400729569E+02  0.00000000000E+00 0.  1.
         11    1    3    3    0    0 -0.30808334772E+02 -0.55413087444E+01  0.21353626524E+02  0.37892439351E+02  0.51100000000E-03 0. -1.
        -11    1    3    3    0    0 -0.59330641186E+01  0.24798965018E-01 -0.58035322353E+00  0.59614322901E+01  0.51100000000E-03 0.  1.
        -12    1    3    3    0    0  0.25242707485E+00  0.29538837744E+01  0.25850487922E+01  0.39333987897E+01  0.00000000000E+00 0.  1.
</event>
<event>
 7    1  0.4011333E-009  0.4778727E+02  0.7816164E-02  0.1312668E+00
        -11   -1    0    0    0    0  0.00000000000E+00  0.00000000000E+00  0.45593999997E+02  0.45594000000E+02  0.51100000000E-03 0.  1.
         11   -1    0    0    0    0 -0.00000000000E+00 -0.00000000000E+00 -0.45593999997E+02  0.45594000000E+02  0.51100000000E-03 0. -1.
    9900012    2    1    2    0    0  0.15191338021E+02  0.23841083009E+02 -0.32930976245E+02  0.47787272053E+02  0.20000004597E+02 0.  0.
        -12    1    1    2    0    0 -0.15191338021E+02 -0.23841083009E+02  0.32930976245E+02  0.43400727947E+02  0.00000000000E+00 0.  1.
         11    1    3    3    0    0  0.91917074918E+01  0.77130233275E+01 -0.15079230528E+02  0.19270739712E+02  0.51100000000E-03 0. -1.
        -11    1    3    3    0    0  0.83822420438E+01  0.30690594818E+01 -0.79846003395E+01  0.11976433135E+02  0.51100000000E-03 0.  1.
         12    1    3    3    0    0 -0.23826115146E+01  0.13059000200E+02 -0.98671453778E+01  0.16540099206E+02  0.00000000000E+00 0. -1.
</event>
<event>
 7    1  0.4011333E-009  0.4778727E+02  0.7816164E-02  0.1312668E+00
        -11   -1    0    0    0    0  0.00000000000E+00  0.00000000000E+00  0.45593999997E+02  0.45594000000E+02  0.51100000000E-03 0.  1.
         11   -1    0    0    0    0 -0.00000000000E+00 -0.00000000000E+00 -0.45593999997E+02  0.45594000000E+02  0.51100000000E-03 0. -1.
    9900012    2    1    2    0    0  0.30091364761E+02  0.28942261512E+02 -0.11852359463E+02  0.47787272363E+02  0.20000006011E+02 0.  0.
        -12    1    1    2    0    0 -0.30091364761E+02 -0.28942261512E+02  0.11852359463E+02  0.43400727637E+02  0.00000000000E+00 0.  1.
         11    1    3    3    0    0  0.90445330580E+01  0.10641427787E+02 -0.80091065761E+00  0.13988746253E+02  0.51100000000E-03 0. -1.
        -11    1    3    3    0    0  0.33024100152E+01  0.79520898734E+01  0.27638459246E+01  0.90432565937E+01  0.51100000000E-03 0.  1.
        -12    1    3    3    0    0  0.17744421688E+02  0.10348743851E+02 -0.13815294730E+02  0.24755269516E+02  0.00000000000E+00 0.  1.
</event>
<event>
 7    1  0.4011333E-009  0.4778727E+02  0.7816164E-02  0.1312668E+00
        -11   -1    0    0    0    0  0.00000000000E+00  0.00000000000E+00  0.45593999997E+02  0.45594000000E+02  0.51100000000E-03 0.  1.
         11   -1    0    0    0    0 -0.00000000000E+00 -0.00000000000E+00 -0.45593999997E+02  0.45594000000E+02  0.51100000000E-03 0. -1.
    9900012    2    1    2    0    0 -0.29033476739E+02  0.31671364022E+02 -0.61322893225E+01  0.47787273705E+02  0.20000012131E+02 0.  0.
        -12    1    1    2    0    0  0.29033476739E+02 -0.31671364022E+02  0.61322893225E+01  0.43400726295E+02  0.00000000000E+00 0.  1.
         11    1    3    3    0    0 -0.80396185033E+01  0.10450444421E+01  0.33757385317E+01  0.87819812378E+01  0.51100000000E-03 0. -1.
        -11    1    3    3    0    0 -0.45945264385E+01  0.53713650890E+01 -0.47582382574E+01  0.85206846960E+01  0.51100000000E-03 0.  1.
         12    1    3    3    0    0 -0.16399331797E+02  0.25254954491E+02 -0.47497895968E+01  0.30484607771E+02  0.00000000000E+00 0. -1.
</event>
<event>
 7    1  0.4011333E-009  0.4778727E+02  0.7816164E-02  0.1312668E+00
        -11   -1    0    0    0    0  0.00000000000E+00  0.00000000000E+00  0.45593999997E+02  0.45594000000E+02  0.51100000000E-03 0.  1.
         11   -1    0    0    0    0 -0.00000000000E+00 -0.00000000000E+00 -0.45593999997E+02  0.45594000000E+02  0.51100000000E-03 0. -1.
    9900012    2    1    2    0    0  0.23604330718E+02 -0.33133990837E+02 -0.15119453379E+02  0.47787266735E+02  0.19999980350E+02 0.  0.
        -12    1    1    2    0    0 -0.23604330718E+02  0.33133990837E+02  0.15119453379E+02  0.43400733265E+02  0.00000000000E+00 0.  1.
         11    1    3    3    0    0 -0.14819593567E+01 -0.98511955264E+00  0.34218499077E+00  0.18121133786E+01  0.51100000000E-03 0. -1.
        -11    1    3    3    0    0  0.39469297051E+01 -0.13756848593E+02 -0.99158098297E+01  0.17411272847E+02  0.51100000000E-03 0.  1.
         12    1    3    3    0    0  0.21139360370E+02 -0.18392022692E+02 -0.55458285402E+01  0.28563880509E+02  0.00000000000E+00 0. -1.
</event>
<event>
 7    1  0.4011333E-009  0.4778722E+02  0.7816164E-02  0.1312668E+00
        -11   -1    0    0    0    0  0.00000000000E+00  0.00000000000E+00  0.45593999997E+02  0.45594000000E+02  0.51100000000E-03 0.  1.
         11   -1    0    0    0    0 -0.00000000000E+00 -0.00000000000E+00 -0.45593999997E+02  0.45594000000E+02  0.51100000000E-03 0. -1.
    9900012    2    1    2    0    0 -0.19855480364E+02  0.20940466256E+02 -0.32417342989E+02  0.47787224040E+02  0.19999785686E+02 0.  0.
        -12    1    1    2    0    0  0.19855480364E+02 -0.20940466256E+02  0.32417342989E+02  0.43400775960E+02  0.00000000000E+00 0.  1.
         11    1    3    3    0    0 -0.10500073064E+02  0.14910608959E+02 -0.75453729869E+01  0.19736019043E+02  0.51100000000E-03 0. -1.
        -11    1    3    3    0    0 -0.98781882198E+00 -0.14409200735E+01 -0.30474391818E+01  0.35126802461E+01  0.51100000000E-03 0.  1.
         12    1    3    3    0    0 -0.83675884775E+01  0.74707773712E+01 -0.21824530820E+02  0.24538524751E+02  0.00000000000E+00 0. -1.
</event>
<event>
 7    1  0.4011333E-009  0.4778727E+02  0.7816164E-02  0.1312668E+00
        -11   -1    0    0    0    0  0.00000000000E+00  0.00000000000E+00  0.45593999997E+02  0.45594000000E+02  0.51100000000E-03 0.  1.
         11   -1    0    0    0    0 -0.00000000000E+00 -0.00000000000E+00 -0.45593999997E+02  0.45594000000E+02  0.51100000000E-03 0. -1.
    9900012    2    1    2    0    0 -0.35457163808E+02  0.20963543318E+02 -0.13672694877E+02  0.47787271908E+02  0.20000003936E+02 0.  0.
        -12    1    1    2    0    0  0.35457163808E+02 -0.20963543318E+02  0.13672694877E+02  0.43400728092E+02  0.00000000000E+00 0.  1.
         11    1    3    3    0    0 -0.29989202795E+02  0.17901733421E+02 -0.10214547008E+02  0.36389027393E+02  0.51100000000E-03 0. -1.
        -11    1    3    3    0    0 -0.59120983754E+01  0.33044232564E+01 -0.58523765861E+01  0.89511134628E+01  0.51100000000E-03 0.  1.
        -12    1    3    3    0    0  0.44413736257E+00 -0.24261335908E+00  0.23942287168E+01  0.24471310523E+01  0.00000000000E+00 0.  1.
</event>
<event>
 7    1  0.4011333E-009  0.4778727E+02  0.7816164E-02  0.1312668E+00
        -11   -1    0    0    0    0  0.00000000000E+00  0.00000000000E+00  0.45593999997E+02  0.45594000000E+02  0.51100000000E-03 0. -1.
         11   -1    0    0    0    0 -0.00000000000E+00 -0.00000000000E+00 -0.45593999997E+02  0.45594000000E+02  0.51100000000E-03 0.  1.
    9900012    2    1    2    0    0  0.83463677452E+01  0.30032316693E+02  0.30199690964E+02  0.47787271494E+02  0.20000002051E+02 0.  0.
        -12    1    1    2    0    0 -0.83463677452E+01 -0.30032316693E+02 -0.30199690964E+02  0.43400728506E+02  0.00000000000E+00 0.  1.
         11    1    3    3    0    0 -0.15814916084E+01  0.98718692062E+00  0.23783798731E+01  0.30219769697E+01  0.51100000000E-03 0. -1.
        -11    1    3    3    0    0  0.44726866763E+01 -0.68969786441E+00  0.17746598162E+01  0.48610726154E+01  0.51100000000E-03 0.  1.
         12    1    3    3    0    0  0.54551726773E+01  0.29734827637E+02  0.26046651275E+02  0.39904221909E+02  0.00000000000E+00 0. -1.
</event>
<event>
 7    1  0.4011333E-009  0.4778728E+02  0.7816164E-02  0.1312668E+00
        -11   -1    0    0    0    0  0.00000000000E+00  0.00000000000E+00  0.45593999997E+02  0.45594000000E+02  0.51100000000E-03 0.  1.
         11   -1    0    0    0    0 -0.00000000000E+00 -0.00000000000E+00 -0.45593999997E+02  0.45594000000E+02  0.51100000000E-03 0. -1.
    9900012    2    1    2    0    0  0.30371154904E+02  0.83200201856E+01 -0.29866254101E+02  0.47787275120E+02  0.20000018583E+02 0.  0.
        -12    1    1    2    0    0 -0.30371154904E+02 -0.83200201856E+01  0.29866254101E+02  0.43400724880E+02  0.00000000000E+00 0.  1.
         11    1    3    3    0    0  0.55855594609E+01 -0.27672128115E+01 -0.14297449547E+02  0.15597211451E+02  0.51100000000E-03 0. -1.
        -11    1    3    3    0    0  0.32401935945E+01 -0.80517097039E+00 -0.61956551309E+00  0.33957350467E+01  0.51100000000E-03 0.  1.
         12    1    3    3    0    0  0.21545401848E+02  0.11892403967E+02 -0.14949239041E+02  0.28794328623E+02  0.00000000000E+00 0. -1.
</event>
<event>
 7    1  0.4011333E-009  0.4778727E+02  0.7816164E-02  0.1312668E+00
        -11   -1    0    0    0    0  0.00000000000E+00  0.00000000000E+00  0.45593999997E+02  0.45594000000E+02  0.51100000000E-03 0.  1.
         11   -1    0    0    0    0 -0.00000000000E+00 -0.00000000000E+00 -0.45593999997E+02  0.45594000000E+02  0.51100000000E-03 0. -1.
    9900012    2    1    2    0    0 -0.12429262280E+02 -0.11564262414E+02 -0.39942521384E+02  0.47787265669E+02  0.19999975489E+02 0.  0.
        -12    1    1    2    0    0  0.12429262280E+02  0.11564262414E+02  0.39942521384E+02  0.43400734331E+02  0.00000000000E+00 0.  1.
         11    1    3    3    0    0 -0.24010027699E+01  0.28788848554E+00 -0.93682528000E+01  0.96753219516E+01  0.51100000000E-03 0. -1.
        -11    1    3    3    0    0  0.35940896220E+01  0.82102601302E+00 -0.25845304503E+01  0.45023729116E+01  0.51100000000E-03 0.  1.
         12    1    3    3    0    0 -0.13622349132E+02 -0.12673176913E+02 -0.27989738134E+02  0.33609570805E+02  0.00000000000E+00 0. -1.
</event>
<event>
 7    1  0.4011333E-009  0.4778727E+02  0.7816164E-02  0.1312668E+00
        -11   -1    0    0    0    0  0.00000000000E+00  0.00000000000E+00  0.45593999997E+02  0.45594000000E+02  0.51100000000E-03 0. -1.
         11   -1    0    0    0    0 -0.00000000000E+00 -0.00000000000E+00 -0.45593999997E+02  0.45594000000E+02  0.51100000000E-03 0.  1.
    9900012    2    1    2    0    0  0.84487430591E+01 -0.25265922191E+01  0.42495393779E+02  0.47787269362E+02  0.19999992329E+02 0.  0.
        -12    1    1    2    0    0 -0.84487430591E+01  0.25265922191E+01 -0.42495393779E+02  0.43400730638E+02  0.00000000000E+00 0.  1.
         11    1    3    3    0    0  0.74083189163E-01  0.25276177802E+00  0.16275993690E+00  0.30962540840E+00  0.51100000000E-03 0. -1.
        -11    1    3    3    0    0 -0.19303519215E+01 -0.73486091276E+00 -0.14036174049E+01  0.24972827599E+01  0.51100000000E-03 0.  1.
         12    1    3    3    0    0  0.10305011791E+02 -0.20444930844E+01  0.43736251247E+02  0.44980361194E+02  0.00000000000E+00 0. -1.
</event>
<event>
 7    1  0.4011333E-009  0.4778728E+02  0.7816164E-02  0.1312668E+00
        -11   -1    0    0    0    0  0.00000000000E+00  0.00000000000E+00  0.45593999997E+02  0.45594000000E+02  0.51100000000E-03 0.  1.
         11   -1    0    0    0    0 -0.00000000000E+00 -0.00000000000E+00 -0.45593999997E+02  0.45594000000E+02  0.51100000000E-03 0. -1.
    9900012    2    1    2    0    0  0.14417938636E+02  0.48535636576E+01 -0.40647125951E+02  0.47787275550E+02  0.20000020542E+02 0.  0.
        -12    1    1    2    0    0 -0.14417938636E+02 -0.48535636576E+01  0.40647125951E+02  0.43400724450E+02  0.00000000000E+00 0.  1.
         11    1    3    3    0    0  0.20732069112E+01 -0.78951910743E+00 -0.59308962664E+00  0.22963629687E+01  0.51100000000E-03 0. -1.
        -11    1    3    3    0    0  0.31613506420E+01 -0.58506723614E+01 -0.15506482612E+02  0.16872329662E+02  0.51100000000E-03 0.  1.
         12    1    3    3    0    0  0.91833810830E+01  0.11493755126E+02 -0.24547553713E+02  0.28618582919E+02  0.00000000000E+00 0. -1.
</event>
<event>
 7    1  0.4011333E-009  0.4778727E+02  0.7816164E-02  0.1312668E+00
        -11   -1    0    0    0    0  0.00000000000E+00  0.00000000000E+00  0.45593999997E+02  0.45594000000E+02  0.51100000000E-03 0. -1.
         11   -1    0    0    0    0 -0.00000000000E+00 -0.00000000000E+00 -0.45593999997E+02  0.45594000000E+02  0.51100000000E-03 0.  1.
    9900012    2    1    2    0    0  0.38771172398E+02  0.19092573591E+02 -0.39866664258E+01  0.47787266312E+02  0.19999978423E+02 0.  0.
        -12    1    1    2    0    0 -0.38771172398E+02 -0.19092573591E+02  0.39866664258E+01  0.43400733688E+02  0.00000000000E+00 0.  1.
         11    1    3    3    0    0  0.35516356504E+02  0.13898350543E+02 -0.72196827756E+01  0.38816227879E+02  0.51100000000E-03 0.  1.
        -11    1    3    3    0    0  0.27193155426E+01 -0.39977316009E+00  0.10404475837E+01  0.29388819363E+01  0.51100000000E-03 0. -1.
        -12    1    3    3    0    0  0.53550035160E+00  0.55939962079E+01  0.21925687661E+01  0.60321564962E+01  0.00000000000E+00 0.  1.
</event>
<event>
 7    1  0.4011333E-009  0.4778727E+02  0.7816164E-02  0.1312668E+00
        -11   -1    0    0    0    0  0.00000000000E+00  0.00000000000E+00  0.45593999997E+02  0.45594000000E+02  0.51100000000E-03 0. -1.
         11   -1    0    0    0    0 -0.00000000000E+00 -0.00000000000E+00 -0.45593999997E+02  0.45594000000E+02  0.51100000000E-03 0.  1.
    9900012    2    1    2    0    0  0.28956381399E+02  0.31805815854E+02 -0.57915299686E+01  0.47787265384E+02  0.19999974190E+02 0.  0.
        -12    1    1    2    0    0 -0.28956381399E+02 -0.31805815854E+02  0.57915299686E+01  0.43400734616E+02  0.00000000000E+00 0.  1.
         11    1    3    3    0    0  0.94797008075E+01  0.76764501656E+01 -0.41870360194E+01  0.12896661794E+02  0.51100000000E-03 0. -1.
        -11    1    3    3    0    0  0.14406485597E+02  0.77051011308E+01 -0.55500854860E+01  0.17254531574E+02  0.51100000000E-03 0.  1.
        -12    1    3    3    0    0  0.50701949946E+01  0.16424264558E+02  0.39455915368E+01  0.17636072015E+02  0.00000000000E+00 0.  1.
</event>
<event>
 7    1  0.4011333E-009  0.4778727E+02  0.7816164E-02  0.1312668E+00
        -11   -1    0    0    0    0  0.00000000000E+00  0.00000000000E+00  0.45593999997E+02  0.45594000000E+02  0.51100000000E-03 0.  1.
         11   -1    0    0    0    0 -0.00000000000E+00 -0.00000000000E+00 -0.45593999997E+02  0.45594000000E+02  0.51100000000E-03 0. -1.
    9900012    2    1    2    0    0 -0.10401276051E+02  0.42085722840E+02 -0.20563648703E+01  0.47787271354E+02  0.20000001414E+02 0.  0.
        -12    1    1    2    0    0  0.10401276051E+02 -0.42085722840E+02  0.20563648703E+01  0.43400728646E+02  0.00000000000E+00 0.  1.
         11    1    3    3    0    0  0.25651208876E+01 -0.11680646291E+00 -0.43198425561E+00  0.26038624341E+01  0.51100000000E-03 0. -1.
        -11    1    3    3    0    0 -0.70542981691E+00  0.16587371716E+02  0.11956373526E+01  0.16645362135E+02  0.51100000000E-03 0.  1.
         12    1    3    3    0    0 -0.12260967121E+02  0.25615157587E+02 -0.28200179673E+01  0.28538046785E+02  0.00000000000E+00 0. -1.
</event>
<event>
 7    1  0.4011333E-009  0.4778727E+02  0.7816164E-02  0.1312668E+00
        -11   -1    0    0    0    0  0.00000000000E+00  0.00000000000E+00  0.45593999997E+02  0.45594000000E+02  0.51100000000E-03 0. -1.
         11   -1    0    0    0    0 -0.00000000000E+00 -0.00000000000E+00 -0.45593999997E+02  0.45594000000E+02  0.51100000000E-03 0.  1.
    9900012    2    1    2    0    0  0.29173542787E+02  0.22475886896E+02  0.22964367437E+02  0.47787271178E+02  0.20000000609E+02 0.  0.
        -12    1    1    2    0    0 -0.29173542787E+02 -0.22475886896E+02 -0.22964367437E+02  0.43400728822E+02  0.00000000000E+00 0.  1.
         11    1    3    3    0    0  0.88851378472E+01  0.53505991612E+01  0.15959833448E+02  0.19033939947E+02  0.51100000000E-03 0. -1.
        -11    1    3    3    0    0 -0.66593488277E+00  0.19893223799E-01 -0.30621207663E+00  0.73323332264E+00  0.51100000000E-03 0.  1.
        -12    1    3    3    0    0  0.20954339823E+02  0.17105394511E+02  0.73107460652E+01  0.28020097908E+02  0.00000000000E+00 0.  1.
</event>
<event>
 7    1  0.4011333E-009  0.4778727E+02  0.7816164E-02  0.1312668E+00
        -11   -1    0    0    0    0  0.00000000000E+00  0.00000000000E+00  0.45593999997E+02  0.45594000000E+02  0.51100000000E-03 0. -1.
         11   -1    0    0    0    0 -0.00000000000E+00 -0.00000000000E+00 -0.45593999997E+02  0.45594000000E+02  0.51100000000E-03 0.  1.
    9900012    2    1    2    0    0 -0.32565089831E+02  0.26359639158E+02  0.11327300250E+02  0.47787269785E+02  0.19999994259E+02 0.  0.
        -12    1    1    2    0    0  0.32565089831E+02 -0.26359639158E+02 -0.11327300250E+02  0.43400730215E+02  0.00000000000E+00 0.  1.
         11    1    3    3    0    0  0.74901951424E+00  0.66554611327E+00  0.23146324774E+01  0.25222025351E+01  0.51100000000E-03 0. -1.
        -11    1    3    3    0    0 -0.92235022235E+01  0.75656275646E+01 -0.37795957612E+01  0.12513874623E+02  0.51100000000E-03 0.  1.
         12    1    3    3    0    0 -0.24090607122E+02  0.18128465480E+02  0.12792263534E+02  0.32751192627E+02  0.00000000000E+00 0. -1.
</event>
<event>
 7    1  0.4011333E-009  0.4778727E+02  0.7816164E-02  0.1312668E+00
        -11   -1    0    0    0    0  0.00000000000E+00  0.00000000000E+00  0.45593999997E+02  0.45594000000E+02  0.51100000000E-03 0.  1.
         11   -1    0    0    0    0 -0.00000000000E+00 -0.00000000000E+00 -0.45593999997E+02  0.45594000000E+02  0.51100000000E-03 0. -1.
    9900012    2    1    2    0    0 -0.40113802872E+02 -0.87349332044E+01 -0.14078596672E+02  0.47787272780E+02  0.20000007913E+02 0.  0.
        -12    1    1    2    0    0  0.40113802872E+02  0.87349332044E+01  0.14078596672E+02  0.43400727220E+02  0.00000000000E+00 0.  1.
         11    1    3    3    0    0 -0.14562948091E+02 -0.14921797222E+01  0.13595302458E+01  0.14702189639E+02  0.51100000000E-03 0. -1.
        -11    1    3    3    0    0 -0.83693491185E+01 -0.17898803952E+01  0.10911476636E+01  0.86278780694E+01  0.51100000000E-03 0.  1.
         12    1    3    3    0    0 -0.17181505663E+02 -0.54528730870E+01 -0.16529274581E+02  0.24457205072E+02  0.00000000000E+00 0. -1.
</event>
<event>
 7    1  0.4011333E-009  0.4778726E+02  0.7816164E-02  0.1312668E+00
        -11   -1    0    0    0    0  0.00000000000E+00  0.00000000000E+00  0.45593999997E+02  0.45594000000E+02  0.51100000000E-03 0. -1.
         11   -1    0    0    0    0 -0.00000000000E+00 -0.00000000000E+00 -0.45593999997E+02  0.45594000000E+02  0.51100000000E-03 0.  1.
    9900012    2    1    2    0    0 -0.22765513319E+02 -0.36552100679E+02  0.54128764009E+01  0.47787263927E+02  0.19999967548E+02 0.  0.
        -12    1    1    2    0    0  0.22765513319E+02  0.36552100679E+02 -0.54128764009E+01  0.43400736073E+02  0.00000000000E+00 0.  1.
         11    1    3    3    0    0 -0.41164795616E+01 -0.11995647807E+02  0.53146242980E+01  0.13750861863E+02  0.51100000000E-03 0. -1.
        -11    1    3    3    0    0 -0.14615830017E+01 -0.12082274508E+02  0.31747933714E+01  0.12577634729E+02  0.51100000000E-03 0.  1.
         12    1    3    3    0    0 -0.17187450756E+02 -0.12474178364E+02 -0.30765412685E+01  0.21458767335E+02  0.00000000000E+00 0. -1.
</event>
<event>
 7    1  0.4011333E-009  0.4778726E+02  0.7816164E-02  0.1312668E+00
        -11   -1    0    0    0    0  0.00000000000E+00  0.00000000000E+00  0.45593999997E+02  0.45594000000E+02  0.51100000000E-03 0.  1.
         11   -1    0    0    0    0 -0.00000000000E+00 -0.00000000000E+00 -0.45593999997E+02  0.45594000000E+02  0.51100000000E-03 0. -1.
    9900012    2    1    2    0    0  0.51980496307E+01 -0.21294441903E+02 -0.37458664295E+02  0.47787256842E+02  0.19999935243E+02 0.  0.
        -12    1    1    2    0    0 -0.51980496307E+01  0.21294441903E+02  0.37458664295E+02  0.43400743158E+02  0.00000000000E+00 0.  1.
         11    1    3    3    0    0  0.52983128645E+01 -0.25253075046E+01 -0.60097816120E+01  0.84004031146E+01  0.51100000000E-03 0. -1.
        -11    1    3    3    0    0  0.66944000275E+01 -0.73470275952E+01 -0.96332659120E+01  0.13841734667E+02  0.51100000000E-03 0.  1.
         12    1    3    3    0    0 -0.67946632613E+01 -0.11422106803E+02 -0.21815616771E+02  0.25545119060E+02  0.00000000000E+00 0. -1.
</event>
<event>
 7    1  0.4011333E-009  0.4778730E+02  0.7816164E-02  0.1312668E+00
        -11   -1    0    0    0    0  0.00000000000E+00  0.00000000000E+00  0.45593999997E+02  0.45594000000E+02  0.51100000000E-03 0.  1.
         11   -1    0    0    0    0 -0.00000000000E+00 -0.00000000000E+00 -0.45593999997E+02  0.45594000000E+02  0.51100000000E-03 0. -1.
    9900012    2    1    2    0    0  0.19405129348E+02 -0.17705964742E+02 -0.34547950514E+02  0.47787295891E+02  0.20000113283E+02 0.  0.
        -12    1    1    2    0    0 -0.19405129348E+02  0.17705964742E+02  0.34547950514E+02  0.43400704109E+02  0.00000000000E+00 0.  1.
         11    1    3    3    0    0  0.15357706695E+02 -0.19212825139E+02 -0.31260247987E+02  0.39776813714E+02  0.51100000000E-03 0. -1.
        -11    1    3    3    0    0  0.13678709475E+01 -0.17751053302E+01  0.53498904715E+00  0.23039712247E+01  0.51100000000E-03 0.  1.
         12    1    3    3    0    0  0.26795517051E+01  0.32819657270E+01 -0.38226915742E+01  0.57065109520E+01  0.00000000000E+00 0. -1.
</event>
<event>
 7    1  0.4011333E-009  0.4778727E+02  0.7816164E-02  0.1312668E+00
        -11   -1    0    0    0    0  0.00000000000E+00  0.00000000000E+00  0.45593999997E+02  0.45594000000E+02  0.51100000000E-03 0.  1.
         11   -1    0    0    0    0 -0.00000000000E+00 -0.00000000000E+00 -0.45593999997E+02  0.45594000000E+02  0.51100000000E-03 0. -1.
    9900012    2    1    2    0    0 -0.23954953686E+02  0.86887263393E+01 -0.35132456841E+02  0.47787270799E+02  0.19999998880E+02 0.  0.
        -12    1    1    2    0    0  0.23954953686E+02 -0.86887263393E+01  0.35132456841E+02  0.43400729201E+02  0.00000000000E+00 0.  1.
         11    1    3    3    0    0 -0.73490312819E+01  0.34796454297E+01 -0.21315590518E+02  0.22813824591E+02  0.51100000000E-03 0. -1.
        -11    1    3    3    0    0  0.16030650893E+01  0.20250778886E+00 -0.73964872985E-01  0.16174974957E+01  0.51100000000E-03 0.  1.
        -12    1    3    3    0    0 -0.18208987494E+02  0.50065731208E+01 -0.13742901450E+02  0.23355948712E+02  0.00000000000E+00 0.  1.
</event>
<event>
 7    1  0.4011333E-009  0.4778727E+02  0.7816164E-02  0.1312668E+00
        -11   -1    0    0    0    0  0.00000000000E+00  0.00000000000E+00  0.45593999997E+02  0.45594000000E+02  0.51100000000E-03 0. -1.
         11   -1    0    0    0    0 -0.00000000000E+00 -0.00000000000E+00 -0.45593999997E+02  0.45594000000E+02  0.51100000000E-03 0.  1.
    9900012    2    1    2    0    0  0.37709410584E+02 -0.35068850408E+01  0.21197289560E+02  0.47787274499E+02  0.20000015750E+02 0.  0.
        -12    1    1    2    0    0 -0.37709410584E+02  0.35068850408E+01 -0.21197289560E+02  0.43400725501E+02  0.00000000000E+00 0.  1.
         11    1    3    3    0    0  0.20519652900E+02  0.51993163476E+01  0.90799275061E+01  0.23033326494E+02  0.51100000000E-03 0. -1.
        -11    1    3    3    0    0  0.99800104350E+01 -0.78809214856E+01  0.29360672218E+01  0.13051054468E+02  0.51100000000E-03 0.  1.
         12    1    3    3    0    0  0.72097472495E+01 -0.82527990278E+00  0.91812948325E+01  0.11702893536E+02  0.00000000000E+00 0. -1.
</event>
<event>
 7    1  0.4305343E-009  0.4778726E+02  0.7816164E-02  0.1312668E+00
        -11   -1    0    0    0    0  0.00000000000E+00  0.00000000000E+00  0.45593999997E+02  0.45594000000E+02  0.51100000000E-03 0. -1.
         11   -1    0    0    0    0 -0.00000000000E+00 -0.00000000000E+00 -0.45593999997E+02  0.45594000000E+02  0.51100000000E-03 0.  1.
    9900012    2    1    2    0    0  0.30292687525E+02 -0.19771725760E+02  0.23980337442E+02  0.47787255296E+02  0.19999928197E+02 0.  0.
        -12    1    1    2    0    0 -0.30292687525E+02  0.19771725760E+02 -0.23980337442E+02  0.43400744704E+02  0.00000000000E+00 0.  1.
         11    1    3    3    0    0  0.26553287823E+02 -0.14064084400E+02  0.18118699600E+02  0.35087930114E+02  0.51100000000E-03 0. -1.
        -11    1    3    3    0    0  0.47752963010E+01 -0.16769779211E+01  0.67571271615E+01  0.84424213024E+01  0.51100000000E-03 0.  1.
        -12    1    3    3    0    0 -0.10358965994E+01 -0.40306634386E+01 -0.89548931880E+00  0.42569038795E+01  0.00000000000E+00 0.  1.
</event>
<event>
 7    1  0.4011333E-009  0.4778727E+02  0.7816164E-02  0.1312668E+00
        -11   -1    0    0    0    0  0.00000000000E+00  0.00000000000E+00  0.45593999997E+02  0.45594000000E+02  0.51100000000E-03 0.  1.
         11   -1    0    0    0    0 -0.00000000000E+00 -0.00000000000E+00 -0.45593999997E+02  0.45594000000E+02  0.51100000000E-03 0. -1.
    9900012    2    1    2    0    0  0.72909722780E+01 -0.38500354305E+02 -0.18659789369E+02  0.47787270770E+02  0.19999998750E+02 0.  0.
        -12    1    1    2    0    0 -0.72909722780E+01  0.38500354305E+02  0.18659789369E+02  0.43400729230E+02  0.00000000000E+00 0.  1.
         11    1    3    3    0    0  0.58847371632E+01 -0.20334124957E+02 -0.47677975053E+01  0.21698817077E+02  0.51100000000E-03 0. -1.
        -11    1    3    3    0    0  0.28470331764E+01 -0.19229988505E+02 -0.10127139581E+02  0.21919329647E+02  0.51100000000E-03 0.  1.
        -12    1    3    3    0    0 -0.14407980615E+01  0.10637591571E+01 -0.37648522829E+01  0.41691240460E+01  0.00000000000E+00 0.  1.
</event>
<event>
 7    1  0.4011333E-009  0.4778728E+02  0.7816164E-02  0.1312668E+00
        -11   -1    0    0    0    0  0.00000000000E+00  0.00000000000E+00  0.45593999997E+02  0.45594000000E+02  0.51100000000E-03 0.  1.
         11   -1    0    0    0    0 -0.00000000000E+00 -0.00000000000E+00 -0.45593999997E+02  0.45594000000E+02  0.51100000000E-03 0. -1.
    9900012    2    1    2    0    0 -0.88175973753E+01 -0.13084577454E+02 -0.40431010278E+02  0.47787276702E+02  0.20000025797E+02 0.  0.
        -12    1    1    2    0    0  0.88175973753E+01  0.13084577454E+02  0.40431010278E+02  0.43400723298E+02  0.00000000000E+00 0.  1.
         11    1    3    3    0    0 -0.39540983845E+01 -0.94119071952E+00 -0.28256534098E+02  0.28547372094E+02  0.51100000000E-03 0. -1.
        -11    1    3    3    0    0 -0.46761305333E+01 -0.33905868108E+01 -0.28198597601E+01  0.64275878068E+01  0.51100000000E-03 0.  1.
        -12    1    3    3    0    0 -0.18736845746E+00 -0.87527999242E+01 -0.93546164203E+01  0.12812316802E+02  0.00000000000E+00 0.  1.
</event>
<event>
 7    1  0.4011333E-009  0.4778727E+02  0.7816164E-02  0.1312668E+00
        -11   -1    0    0    0    0  0.00000000000E+00  0.00000000000E+00  0.45593999997E+02  0.45594000000E+02  0.51100000000E-03 0.  1.
         11   -1    0    0    0    0 -0.00000000000E+00 -0.00000000000E+00 -0.45593999997E+02  0.45594000000E+02  0.51100000000E-03 0. -1.
    9900012    2    1    2    0    0  0.17745137072E+01 -0.31657946884E+02 -0.29635267912E+02  0.47787267241E+02  0.19999982659E+02 0.  0.
        -12    1    1    2    0    0 -0.17745137072E+01  0.31657946884E+02  0.29635267912E+02  0.43400732759E+02  0.00000000000E+00 0.  1.
         11    1    3    3    0    0  0.85479023478E+00  0.85642158904E+00 -0.39233073644E+01  0.41056625799E+01  0.51100000000E-03 0. -1.
        -11    1    3    3    0    0  0.12390371038E+01 -0.35737049516E+01  0.13911200435E+01  0.40301110732E+01  0.51100000000E-03 0.  1.
         12    1    3    3    0    0 -0.31931363133E+00 -0.28940663521E+02 -0.27103080591E+02  0.39651493588E+02  0.00000000000E+00 0. -1.
</event>
<event>
 7    1  0.4011333E-009  0.4778727E+02  0.7816164E-02  0.1312668E+00
        -11   -1    0    0    0    0  0.00000000000E+00  0.00000000000E+00  0.45593999997E+02  0.45594000000E+02  0.51100000000E-03 0.  1.
         11   -1    0    0    0    0 -0.00000000000E+00 -0.00000000000E+00 -0.45593999997E+02  0.45594000000E+02  0.51100000000E-03 0. -1.
    9900012    2    1    2    0    0  0.11330128638E+02 -0.39291001987E+01 -0.41711072820E+02  0.47787271445E+02  0.20000001826E+02 0.  0.
        -12    1    1    2    0    0 -0.11330128638E+02  0.39291001987E+01  0.41711072820E+02  0.43400728555E+02  0.00000000000E+00 0.  1.
         11    1    3    3    0    0  0.36880249770E+01 -0.14607858409E+01 -0.14970080114E+02  0.15486727298E+02  0.51100000000E-03 0. -1.
        -11    1    3    3    0    0  0.79057547668E+00 -0.85603531362E+01 -0.97882017918E+01  0.13027415322E+02  0.51100000000E-03 0.  1.
        -12    1    3    3    0    0  0.68515281846E+01  0.60920387784E+01 -0.16952790914E+02  0.19273128825E+02  0.00000000000E+00 0.  1.
</event>
<event>
 7    1  0.4011333E-009  0.4778727E+02  0.7816164E-02  0.1312668E+00
        -11   -1    0    0    0    0  0.00000000000E+00  0.00000000000E+00  0.45593999997E+02  0.45594000000E+02  0.51100000000E-03 0.  1.
         11   -1    0    0    0    0 -0.00000000000E+00 -0.00000000000E+00 -0.45593999997E+02  0.45594000000E+02  0.51100000000E-03 0. -1.
    9900012    2    1    2    0    0 -0.33773918807E+02 -0.81247440225E+01 -0.26017959043E+02  0.47787271322E+02  0.20000001265E+02 0.  0.
        -12    1    1    2    0    0  0.33773918807E+02  0.81247440225E+01  0.26017959043E+02  0.43400728678E+02  0.00000000000E+00 0.  1.
         11    1    3    3    0    0 -0.83448082720E+01  0.47393161811E+00 -0.13389258941E+02  0.15783937770E+02  0.51100000000E-03 0. -1.
        -11    1    3    3    0    0 -0.35821279870E+01  0.29971749856E+01 -0.18704573549E+01  0.50312334261E+01  0.51100000000E-03 0.  1.
        -12    1    3    3    0    0 -0.21846982548E+02 -0.11595850626E+02 -0.10758242747E+02  0.26972100126E+02  0.00000000000E+00 0.  1.
</event>
<event>
 7    1  0.4011333E-009  0.4778726E+02  0.7816164E-02  0.1312668E+00
        -11   -1    0    0    0    0  0.00000000000E+00  0.00000000000E+00  0.45593999997E+02  0.45594000000E+02  0.51100000000E-03 0.  1.
         11   -1    0    0    0    0 -0.00000000000E+00 -0.00000000000E+00 -0.45593999997E+02  0.45594000000E+02  0.51100000000E-03 0. -1.
    9900012    2    1    2    0    0 -0.24954530018E+02 -0.31304928618E+02 -0.16759986711E+02  0.47787259468E+02  0.19999947217E+02 0.  0.
        -12    1    1    2    0    0  0.24954530018E+02  0.31304928618E+02  0.16759986711E+02  0.43400740532E+02  0.00000000000E+00 0.  1.
         11    1    3    3    0    0 -0.17840966693E+02 -0.14157652241E+02 -0.92982356982E+01  0.24600739762E+02  0.51100000000E-03 0. -1.
        -11    1    3    3    0    0 -0.63062401706E+01 -0.17696292264E+01 -0.20146667444E+01  0.68526735688E+01  0.51100000000E-03 0.  1.
        -12    1    3    3    0    0 -0.80732315453E+00 -0.15377647151E+02 -0.54470842686E+01  0.16333846137E+02  0.00000000000E+00 0.  1.
</event>
<event>
 7    1  0.4011333E-009  0.4778727E+02  0.7816164E-02  0.1312668E+00
        -11   -1    0    0    0    0  0.00000000000E+00  0.00000000000E+00  0.45593999997E+02  0.45594000000E+02  0.51100000000E-03 0. -1.
         11   -1    0    0    0    0 -0.00000000000E+00 -0.00000000000E+00 -0.45593999997E+02  0.45594000000E+02  0.51100000000E-03 0.  1.
    9900012    2    1    2    0    0  0.19962715779E+02 -0.38536971744E+02  0.12226523032E+00  0.47787272342E+02  0.20000005915E+02 0.  0.
        -12    1    1    2    0    0 -0.19962715779E+02  0.38536971744E+02 -0.12226523032E+00  0.43400727658E+02  0.00000000000E+00 0.  1.
         11    1    3    3    0    0  0.17970695034E+02 -0.16446302822E+02  0.15090747008E+01  0.24407049458E+02  0.51100000000E-03 0. -1.
        -11    1    3    3    0    0  0.19067887937E+01 -0.29725824649E+01 -0.23428680613E+01  0.42380562795E+01  0.51100000000E-03 0.  1.
        -12    1    3    3    0    0  0.85231950591E-01 -0.19118086457E+02  0.95605859079E+00  0.19142166604E+02  0.00000000000E+00 0.  1.
</event>
<event>
 7    1  0.4011333E-009  0.4778727E+02  0.7816164E-02  0.1312668E+00
        -11   -1    0    0    0    0  0.00000000000E+00  0.00000000000E+00  0.45593999997E+02  0.45594000000E+02  0.51100000000E-03 0.  1.
         11   -1    0    0    0    0 -0.00000000000E+00 -0.00000000000E+00 -0.45593999997E+02  0.45594000000E+02  0.51100000000E-03 0. -1.
    9900012    2    1    2    0    0  0.35783634274E+02 -0.24419708996E+02 -0.26138777507E+01  0.47787273897E+02  0.20000013007E+02 0.  0.
        -12    1    1    2    0    0 -0.35783634274E+02  0.24419708996E+02  0.26138777507E+01  0.43400726103E+02  0.00000000000E+00 0.  1.
         11    1    3    3    0    0  0.82458842152E+01 -0.47145685907E+01  0.10443944953E+01  0.95557586622E+01  0.51100000000E-03 0. -1.
        -11    1    3    3    0    0  0.22915072368E+02 -0.22007633267E+02 -0.63618104347E+01  0.32402300781E+02  0.51100000000E-03 0.  1.
        -12    1    3    3    0    0  0.46226776915E+01  0.23024928613E+01  0.27035381887E+01  0.58292144542E+01  0.00000000000E+00 0.  1.
</event>
<event>
 7    1  0.4011333E-009  0.4778726E+02  0.7816164E-02  0.1312668E+00
        -11   -1    0    0    0    0  0.00000000000E+00  0.00000000000E+00  0.45593999997E+02  0.45594000000E+02  0.51100000000E-03 0.  1.
         11   -1    0    0    0    0 -0.00000000000E+00 -0.00000000000E+00 -0.45593999997E+02  0.45594000000E+02  0.51100000000E-03 0. -1.
    9900012    2    1    2    0    0  0.24389473777E+02  0.35718933703E+02  0.35966412046E+01  0.47787257104E+02  0.19999936438E+02 0.  0.
        -12    1    1    2    0    0 -0.24389473777E+02 -0.35718933703E+02 -0.35966412046E+01  0.43400742896E+02  0.00000000000E+00 0.  1.
         11    1    3    3    0    0 -0.10510020297E+00  0.84549277372E+01  0.46711793454E+01  0.96600603430E+01  0.51100000000E-03 0. -1.
        -11    1    3    3    0    0  0.37528836456E+01  0.11084602085E+02  0.96587795193E+00  0.11742463946E+02  0.51100000000E-03 0.  1.
        -12    1    3    3    0    0  0.20741690334E+02  0.16179403881E+02 -0.20404160927E+01  0.26384732814E+02  0.00000000000E+00 0.  1.
</event>
<event>
 7    1  0.4011333E-009  0.4778727E+02  0.7816164E-02  0.1312668E+00
        -11   -1    0    0    0    0  0.00000000000E+00  0.00000000000E+00  0.45593999997E+02  0.45594000000E+02  0.51100000000E-03 0.  1.
         11   -1    0    0    0    0 -0.00000000000E+00 -0.00000000000E+00 -0.45593999997E+02  0.45594000000E+02  0.51100000000E-03 0. -1.
    9900012    2    1    2    0    0 -0.88298233259E+01 -0.20900488473E+02 -0.36997659612E+02  0.47787274025E+02  0.20000013590E+02 0.  0.
        -12    1    1    2    0    0  0.88298233259E+01  0.20900488473E+02  0.36997659612E+02  0.43400725975E+02  0.00000000000E+00 0.  1.
         11    1    3    3    0    0 -0.32728559773E+01  0.11169811648E+01 -0.33044442767E+01  0.47831564274E+01  0.51100000000E-03 0. -1.
        -11    1    3    3    0    0 -0.13813042597E+01  0.16239820126E+01 -0.59243851151E+01  0.62963210121E+01  0.51100000000E-03 0.  1.
         12    1    3    3    0    0 -0.41756630889E+01 -0.23641451650E+02 -0.27768830221E+02  0.36707796586E+02  0.00000000000E+00 0. -1.
</event>
<event>
 7    1  0.4011333E-009  0.4778727E+02  0.7816164E-02  0.1312668E+00
        -11   -1    0    0    0    0  0.00000000000E+00  0.00000000000E+00  0.45593999997E+02  0.45594000000E+02  0.51100000000E-03 0.  1.
         11   -1    0    0    0    0 -0.00000000000E+00 -0.00000000000E+00 -0.45593999997E+02  0.45594000000E+02  0.51100000000E-03 0. -1.
    9900012    2    1    2    0    0 -0.12730057626E+02  0.40222753029E+02  0.10183274426E+02  0.47787270669E+02  0.19999998288E+02 0.  0.
        -12    1    1    2    0    0  0.12730057626E+02 -0.40222753029E+02 -0.10183274426E+02  0.43400729331E+02  0.00000000000E+00 0.  1.
         11    1    3    3    0    0  0.44657856571E+01  0.49142976635E+01  0.16465665717E+00  0.66423395830E+01  0.51100000000E-03 0. -1.
        -11    1    3    3    0    0 -0.45327821581E+01  0.41383050258E+01  0.39025425192E+00  0.61501204233E+01  0.51100000000E-03 0.  1.
         12    1    3    3    0    0 -0.12663061125E+02  0.31170150340E+02  0.96283635174E+01  0.34994810663E+02  0.00000000000E+00 0. -1.
</event>
<event>
 7    1  0.4088791E-009  0.4778727E+02  0.7816164E-02  0.1312668E+00
        -11   -1    0    0    0    0  0.00000000000E+00  0.00000000000E+00  0.45593999997E+02  0.45594000000E+02  0.51100000000E-03 0. -1.
         11   -1    0    0    0    0 -0.00000000000E+00 -0.00000000000E+00 -0.45593999997E+02  0.45594000000E+02  0.51100000000E-03 0.  1.
    9900012    2    1    2    0    0 -0.34405074550E+02 -0.82758328279E+01  0.25128166644E+02  0.47787270483E+02  0.19999997438E+02 0.  0.
        -12    1    1    2    0    0  0.34405074550E+02  0.82758328279E+01 -0.25128166644E+02  0.43400729517E+02  0.00000000000E+00 0.  1.
         11    1    3    3    0    0 -0.10900488222E+02 -0.83412023301E+01  0.15278873269E+02  0.20538750410E+02  0.51100000000E-03 0. -1.
        -11    1    3    3    0    0  0.53548663208E-01  0.27458775253E+00 -0.11963390557E+01  0.12286143782E+01  0.51100000000E-03 0.  1.
         12    1    3    3    0    0 -0.23558134991E+02 -0.20921825030E+00  0.11045632431E+02  0.26019905694E+02  0.00000000000E+00 0. -1.
</event>
<event>
 7    1  0.4011333E-009  0.4778727E+02  0.7816164E-02  0.1312668E+00
        -11   -1    0    0    0    0  0.00000000000E+00  0.00000000000E+00  0.45593999997E+02  0.45594000000E+02  0.51100000000E-03 0.  1.
         11   -1    0    0    0    0 -0.00000000000E+00 -0.00000000000E+00 -0.45593999997E+02  0.45594000000E+02  0.51100000000E-03 0. -1.
    9900012    2    1    2    0    0 -0.38773897617E+02 -0.14439148013E+02 -0.13104153050E+02  0.47787274673E+02  0.20000016544E+02 0.  0.
        -12    1    1    2    0    0  0.38773897617E+02  0.14439148013E+02  0.13104153050E+02  0.43400725327E+02  0.00000000000E+00 0.  1.
         11    1    3    3    0    0 -0.85625704436E+01 -0.53158422395E+01 -0.34131705233E+00  0.10084259463E+02  0.51100000000E-03 0. -1.
        -11    1    3    3    0    0 -0.14534232039E+02  0.35235253445E+01 -0.27377202966E+01  0.15203757578E+02  0.51100000000E-03 0.  1.
        -12    1    3    3    0    0 -0.15677095134E+02 -0.12646831118E+02 -0.10025115701E+02  0.22499257632E+02  0.00000000000E+00 0.  1.
</event>
<event>
 7    1  0.4011333E-009  0.4778727E+02  0.7816164E-02  0.1312668E+00
        -11   -1    0    0    0    0  0.00000000000E+00  0.00000000000E+00  0.45593999997E+02  0.45594000000E+02  0.51100000000E-03 0.  1.
         11   -1    0    0    0    0 -0.00000000000E+00 -0.00000000000E+00 -0.45593999997E+02  0.45594000000E+02  0.51100000000E-03 0. -1.
    9900012    2    1    2    0    0 -0.38484870261E+02  0.15583738890E+02 -0.12636660161E+02  0.47787270320E+02  0.19999996696E+02 0.  0.
        -12    1    1    2    0    0  0.38484870261E+02 -0.15583738890E+02  0.12636660161E+02  0.43400729680E+02  0.00000000000E+00 0.  1.
         11    1    3    3    0    0 -0.25622763036E+02  0.12858733132E+02 -0.60808947485E+01  0.29306147555E+02  0.51100000000E-03 0. -1.
        -11    1    3    3    0    0 -0.14514243551E+02  0.27290760978E+01 -0.75150588857E+01  0.16570673870E+02  0.51100000000E-03 0.  1.
        -12    1    3    3    0    0  0.16521363262E+01 -0.40703396387E-02  0.95929347339E+00  0.19104488939E+01  0.00000000000E+00 0.  1.
</event>
<event>
 7    1  0.4011333E-009  0.4778727E+02  0.7816164E-02  0.1312668E+00
        -11   -1    0    0    0    0  0.00000000000E+00  0.00000000000E+00  0.45593999997E+02  0.45594000000E+02  0.51100000000E-03 0. -1.
         11   -1    0    0    0    0 -0.00000000000E+00 -0.00000000000E+00 -0.45593999997E+02  0.45594000000E+02  0.51100000000E-03 0.  1.
    9900012    2    1    2    0    0  0.35219539236E+02 -0.23220413001E+01  0.25255011442E+02  0.47787269329E+02  0.19999992180E+02 0.  0.
        -12    1    1    2    0    0 -0.35219539236E+02  0.23220413001E+01 -0.25255011442E+02  0.43400730671E+02  0.00000000000E+00 0.  1.
         11    1    3    3    0    0  0.45600171078E+01  0.49053030111E+01  0.49772283030E+01  0.83443726844E+01  0.51100000000E-03 0. -1.
        -11    1    3    3    0    0  0.47788984301E+01 -0.35071935604E+01  0.94233612113E+01  0.11132745109E+02  0.51100000000E-03 0.  1.
        -12    1    3    3    0    0  0.25880623698E+02 -0.37201507509E+01  0.10854421928E+02  0.28310151536E+02  0.00000000000E+00 0.  1.
</event>
<event>
 7    1  0.4125258E-009  0.4778727E+02  0.7816164E-02  0.1312668E+00
        -11   -1    0    0    0    0  0.00000000000E+00  0.00000000000E+00  0.45593999997E+02  0.45594000000E+02  0.51100000000E-03 0.  1.
         11   -1    0    0    0    0 -0.00000000000E+00 -0.00000000000E+00 -0.45593999997E+02  0.45594000000E+02  0.51100000000E-03 0. -1.
    9900012    2    1    2    0    0 -0.32583283895E+02  0.19827455809E+02  0.20708086277E+02  0.47787271544E+02  0.20000002279E+02 0.  0.
        -12    1    1    2    0    0  0.32583283895E+02 -0.19827455809E+02 -0.20708086277E+02  0.43400728456E+02  0.00000000000E+00 0.  1.
         11    1    3    3    0    0 -0.20391572056E+02  0.14141153602E+02  0.10342417498E+02  0.26884085182E+02  0.51100000000E-03 0.  1.
        -11    1    3    3    0    0 -0.57728854871E+01  0.86294939651E+01  0.32519467431E+01  0.10879776230E+02  0.51100000000E-03 0. -1.
        -12    1    3    3    0    0 -0.64188263521E+01 -0.29431917585E+01  0.71137220366E+01  0.10023410132E+02  0.00000000000E+00 0.  1.
</event>
<event>
 7    1  0.4011333E-009  0.4778727E+02  0.7816164E-02  0.1312668E+00
        -11   -1    0    0    0    0  0.00000000000E+00  0.00000000000E+00  0.45593999997E+02  0.45594000000E+02  0.51100000000E-03 0. -1.
         11   -1    0    0    0    0 -0.00000000000E+00 -0.00000000000E+00 -0.45593999997E+02  0.45594000000E+02  0.51100000000E-03 0.  1.
    9900012    2    1    2    0    0  0.32087467540E+02 -0.31647028656E+00  0.29221862736E+02  0.47787274333E+02  0.20000014996E+02 0.  0.
        -12    1    1    2    0    0 -0.32087467540E+02  0.31647028656E+00 -0.29221862736E+02  0.43400725667E+02  0.00000000000E+00 0.  1.
         11    1    3    3    0    0  0.55536320151E+01 -0.48407362750E+01  0.44194056162E+01  0.85910827318E+01  0.51100000000E-03 0. -1.
        -11    1    3    3    0    0  0.24423049857E+02 -0.37715907193E+00  0.17064302048E+02  0.29796275236E+02  0.51100000000E-03 0.  1.
        -12    1    3    3    0    0  0.21107856680E+01  0.49014250603E+01  0.77381550724E+01  0.93999163658E+01  0.00000000000E+00 0.  1.
</event>
<event>
 7    1  0.4011333E-009  0.4778727E+02  0.7816164E-02  0.1312668E+00
        -11   -1    0    0    0    0  0.00000000000E+00  0.00000000000E+00  0.45593999997E+02  0.45594000000E+02  0.51100000000E-03 0.  1.
         11   -1    0    0    0    0 -0.00000000000E+00 -0.00000000000E+00 -0.45593999997E+02  0.45594000000E+02  0.51100000000E-03 0. -1.
    9900012    2    1    2    0    0 -0.51745503595E+01 -0.43070359028E+02 -0.13384328743E+01  0.47787271886E+02  0.20000003837E+02 0.  0.
        -12    1    1    2    0    0  0.51745503595E+01  0.43070359028E+02  0.13384328743E+01  0.43400728114E+02  0.00000000000E+00 0.  1.
         11    1    3    3    0    0 -0.27833668299E+01 -0.47992078509E+01 -0.15296999162E+01  0.57549551693E+01  0.51100000000E-03 0. -1.
        -11    1    3    3    0    0  0.33631484478E+01 -0.30214891451E+02 -0.50692462542E+01  0.30821221435E+02  0.51100000000E-03 0.  1.
        -12    1    3    3    0    0 -0.57543319773E+01 -0.80562597266E+01  0.52605132961E+01  0.11211095282E+02  0.00000000000E+00 0.  1.
</event>
<event>
 7    1  0.4011333E-009  0.4778727E+02  0.7816164E-02  0.1312668E+00
        -11   -1    0    0    0    0  0.00000000000E+00  0.00000000000E+00  0.45593999997E+02  0.45594000000E+02  0.51100000000E-03 0.  1.
         11   -1    0    0    0    0 -0.00000000000E+00 -0.00000000000E+00 -0.45593999997E+02  0.45594000000E+02  0.51100000000E-03 0. -1.
    9900012    2    1    2    0    0 -0.10006216028E+01  0.29997995731E+02 -0.31348715291E+02  0.47787274869E+02  0.20000017438E+02 0.  0.
        -12    1    1    2    0    0  0.10006216028E+01 -0.29997995731E+02  0.31348715291E+02  0.43400725131E+02  0.00000000000E+00 0.  1.
         11    1    3    3    0    0 -0.62655031525E-01  0.86584161551E+01 -0.85640252644E+01  0.12178449202E+02  0.51100000000E-03 0. -1.
        -11    1    3    3    0    0  0.79940137176E+01  0.11336681565E+02 -0.10198705271E+02  0.17217380570E+02  0.51100000000E-03 0.  1.
         12    1    3    3    0    0 -0.89319802889E+01  0.10002898010E+02 -0.12585984756E+02  0.18391445097E+02  0.00000000000E+00 0. -1.
</event>
<event>
 7    1  0.4011333E-009  0.4778726E+02  0.7816164E-02  0.1312668E+00
        -11   -1    0    0    0    0  0.00000000000E+00  0.00000000000E+00  0.45593999997E+02  0.45594000000E+02  0.51100000000E-03 0.  1.
         11   -1    0    0    0    0 -0.00000000000E+00 -0.00000000000E+00 -0.45593999997E+02  0.45594000000E+02  0.51100000000E-03 0. -1.
    9900012    2    1    2    0    0 -0.21272274966E+02  0.63786033692E+01 -0.37288439983E+02  0.47787262454E+02  0.19999960831E+02 0.  0.
        -12    1    1    2    0    0  0.21272274966E+02 -0.63786033692E+01  0.37288439983E+02  0.43400737546E+02  0.00000000000E+00 0.  1.
         11    1    3    3    0    0 -0.12307344251E+02  0.12050433931E+02 -0.16151448180E+02  0.23612559349E+02  0.51100000000E-03 0. -1.
        -11    1    3    3    0    0 -0.18826417862E+01 -0.21080319267E+01 -0.20058655482E+01  0.34657806563E+01  0.51100000000E-03 0.  1.
         12    1    3    3    0    0 -0.70822889291E+01 -0.35637986349E+01 -0.19131126255E+02  0.20708922449E+02  0.00000000000E+00 0. -1.
</event>
<event>
 7    1  0.4011333E-009  0.4778727E+02  0.7816164E-02  0.1312668E+00
        -11   -1    0    0    0    0  0.00000000000E+00  0.00000000000E+00  0.45593999997E+02  0.45594000000E+02  0.51100000000E-03 0.  1.
         11   -1    0    0    0    0 -0.00000000000E+00 -0.00000000000E+00 -0.45593999997E+02  0.45594000000E+02  0.51100000000E-03 0. -1.
    9900012    2    1    2    0    0  0.38326591816E+02  0.74766552414E+01 -0.18941895450E+02  0.47787269395E+02  0.19999992479E+02 0.  0.
        -12    1    1    2    0    0 -0.38326591816E+02 -0.74766552414E+01  0.18941895450E+02  0.43400730605E+02  0.00000000000E+00 0.  1.
         11    1    3    3    0    0  0.42047278178E+01 -0.11450212925E+01 -0.52171945739E+01  0.67977885570E+01  0.51100000000E-03 0. -1.
        -11    1    3    3    0    0  0.45711649346E+01 -0.26234492861E+00  0.33961952562E+01  0.57007469862E+01  0.51100000000E-03 0.  1.
         12    1    3    3    0    0  0.29550699063E+02  0.88840214625E+01 -0.17120896133E+02  0.35288733852E+02  0.00000000000E+00 0. -1.
</event>
<event>
 7    1  0.4011333E-009  0.4778729E+02  0.7816164E-02  0.1312668E+00
        -11   -1    0    0    0    0  0.00000000000E+00  0.00000000000E+00  0.45593999997E+02  0.45594000000E+02  0.51100000000E-03 0. -1.
         11   -1    0    0    0    0 -0.00000000000E+00 -0.00000000000E+00 -0.45593999997E+02  0.45594000000E+02  0.51100000000E-03 0.  1.
    9900012    2    1    2    0    0  0.39916045623E+02 -0.15777149686E+02  0.64352637800E+01  0.47787288366E+02  0.20000078976E+02 0.  0.
        -12    1    1    2    0    0 -0.39916045623E+02  0.15777149686E+02 -0.64352637800E+01  0.43400711634E+02  0.00000000000E+00 0.  1.
         11    1    3    3    0    0  0.16851007009E+02 -0.15278479371E+02  0.69010515872E+01  0.23769999629E+02  0.51100000000E-03 0. -1.
        -11    1    3    3    0    0  0.76485487592E+00  0.39300171832E+00  0.13768793853E+01  0.16233454452E+01  0.51100000000E-03 0.  1.
        -12    1    3    3    0    0  0.22300183738E+02 -0.89167203372E+00 -0.18426671924E+01  0.22393943291E+02  0.00000000000E+00 0.  1.
</event>
<event>
 7    1  0.4011333E-009  0.4778726E+02  0.7816164E-02  0.1312668E+00
        -11   -1    0    0    0    0  0.00000000000E+00  0.00000000000E+00  0.45593999997E+02  0.45594000000E+02  0.51100000000E-03 0.  1.
         11   -1    0    0    0    0 -0.00000000000E+00 -0.00000000000E+00 -0.45593999997E+02  0.45594000000E+02  0.51100000000E-03 0. -1.
    9900012    2    1    2    0    0  0.66901776052E+01  0.37692370818E+01 -0.42716019074E+02  0.47787263715E+02  0.19999966582E+02 0.  0.
        -12    1    1    2    0    0 -0.66901776052E+01 -0.37692370818E+01  0.42716019074E+02  0.43400736285E+02  0.00000000000E+00 0.  1.
         11    1    3    3    0    0  0.23410947728E+01 -0.14211626005E+01 -0.51237259619E+01  0.58097328567E+01  0.51100000000E-03 0. -1.
        -11    1    3    3    0    0 -0.66840761693E+01  0.19248038379E+01 -0.17369703227E+02  0.18710647624E+02  0.51100000000E-03 0.  1.
        -12    1    3    3    0    0  0.11033159002E+02  0.32655958444E+01 -0.20222589885E+02  0.23266883234E+02  0.00000000000E+00 0.  1.
</event>
<event>
 7    1  0.4011333E-009  0.4778727E+02  0.7816164E-02  0.1312668E+00
        -11   -1    0    0    0    0  0.00000000000E+00  0.00000000000E+00  0.45593999997E+02  0.45594000000E+02  0.51100000000E-03 0. -1.
         11   -1    0    0    0    0 -0.00000000000E+00 -0.00000000000E+00 -0.45593999997E+02  0.45594000000E+02  0.51100000000E-03 0.  1.
    9900012    2    1    2    0    0  0.31841630759E+01 -0.31676612220E+02 -0.29497057657E+02  0.47787273432E+02  0.20000010887E+02 0.  0.
        -12    1    1    2    0    0 -0.31841630759E+01  0.31676612220E+02  0.29497057657E+02  0.43400726568E+02  0.00000000000E+00 0.  1.
         11    1    3    3    0    0 -0.11072931119E+01 -0.71393884229E+00 -0.96586064271E+01  0.97480503221E+01  0.51100000000E-03 0.  1.
        -11    1    3    3    0    0 -0.19895104462E+01 -0.44963035842E+01 -0.11887471590E+01  0.50584600231E+01  0.51100000000E-03 0. -1.
        -12    1    3    3    0    0  0.62809666340E+01 -0.26466369793E+02 -0.18649704071E+02  0.32980763087E+02  0.00000000000E+00 0.  1.
</event>
<event>
 7    1  0.4011333E-009  0.4778730E+02  0.7816164E-02  0.1312668E+00
        -11   -1    0    0    0    0  0.00000000000E+00  0.00000000000E+00  0.45593999997E+02  0.45594000000E+02  0.51100000000E-03 0.  1.
         11   -1    0    0    0    0 -0.00000000000E+00 -0.00000000000E+00 -0.45593999997E+02  0.45594000000E+02  0.51100000000E-03 0. -1.
    9900012    2    1    2    0    0 -0.28075748774E+01 -0.31178542630E+02 -0.30060554332E+02  0.47787298116E+02  0.20000123432E+02 0.  0.
        -12    1    1    2    0    0  0.28075748774E+01  0.31178542630E+02  0.30060554332E+02  0.43400701884E+02  0.00000000000E+00 0.  1.
         11    1    3    3    0    0 -0.14103031048E+01 -0.13765895817E+02 -0.10014240816E+02  0.17081389343E+02  0.51100000000E-03 0.  1.
        -11    1    3    3    0    0 -0.37152912204E+01 -0.19432467537E+01  0.11641472894E+01  0.43514176966E+01  0.51100000000E-03 0. -1.
         12    1    3    3    0    0  0.23180194478E+01 -0.15469400060E+02 -0.21210460805E+02  0.26354491077E+02  0.00000000000E+00 0. -1.
</event>
<event>
 7    1  0.4011333E-009  0.4778727E+02  0.7816164E-02  0.1312668E+00
        -11   -1    0    0    0    0  0.00000000000E+00  0.00000000000E+00  0.45593999997E+02  0.45594000000E+02  0.51100000000E-03 0.  1.
         11   -1    0    0    0    0 -0.00000000000E+00 -0.00000000000E+00 -0.45593999997E+02  0.45594000000E+02  0.51100000000E-03 0. -1.
    9900012    2    1    2    0    0 -0.76772100132E+01  0.39637991505E+02 -0.15922102201E+02  0.47787271173E+02  0.20000000588E+02 0.  0.
        -12    1    1    2    0    0  0.76772100132E+01 -0.39637991505E+02  0.15922102201E+02  0.43400728827E+02  0.00000000000E+00 0.  1.
         11    1    3    3    0    0 -0.39054243727E+01  0.10014941919E+02 -0.17475123813E+01  0.10890601497E+02  0.51100000000E-03 0. -1.
        -11    1    3    3    0    0 -0.20464122561E+01  0.70394888016E-01 -0.57717670625E+01  0.61242186316E+01  0.51100000000E-03 0.  1.
         12    1    3    3    0    0 -0.17253733844E+01  0.29552654698E+02 -0.84028227577E+01  0.30772451045E+02  0.00000000000E+00 0. -1.
</event>
<event>
 7    1  0.4011333E-009  0.4778727E+02  0.7816164E-02  0.1312668E+00
        -11   -1    0    0    0    0  0.00000000000E+00  0.00000000000E+00  0.45593999997E+02  0.45594000000E+02  0.51100000000E-03 0.  1.
         11   -1    0    0    0    0 -0.00000000000E+00 -0.00000000000E+00 -0.45593999997E+02  0.45594000000E+02  0.51100000000E-03 0. -1.
    9900012    2    1    2    0    0  0.74240546608E+01 -0.73152019318E+00 -0.42754784639E+02  0.47787270526E+02  0.19999997635E+02 0.  0.
        -12    1    1    2    0    0 -0.74240546608E+01  0.73152019318E+00  0.42754784639E+02  0.43400729474E+02  0.00000000000E+00 0.  1.
         11    1    3    3    0    0  0.48671506976E+01 -0.61013979572E+01 -0.22439542344E+02  0.23758141212E+02  0.51100000000E-03 0. -1.
        -11    1    3    3    0    0  0.66670473350E+01  0.30345783228E+01 -0.16130042745E+02  0.17715430138E+02  0.51100000000E-03 0.  1.
         12    1    3    3    0    0 -0.41101433717E+01  0.23352994412E+01 -0.41851995491E+01  0.63136991757E+01  0.00000000000E+00 0. -1.
</event>
<event>
 7    1  0.4011333E-009  0.4778727E+02  0.7816164E-02  0.1312668E+00
        -11   -1    0    0    0    0  0.00000000000E+00  0.00000000000E+00  0.45593999997E+02  0.45594000000E+02  0.51100000000E-03 0.  1.
         11   -1    0    0    0    0 -0.00000000000E+00 -0.00000000000E+00 -0.45593999997E+02  0.45594000000E+02  0.51100000000E-03 0. -1.
    9900012    2    1    2    0    0  0.47826658150E+01 -0.32375250341E+02 -0.28506015252E+02  0.47787266913E+02  0.19999981162E+02 0.  0.
        -12    1    1    2    0    0 -0.47826658150E+01  0.32375250341E+02  0.28506015252E+02  0.43400733087E+02  0.00000000000E+00 0.  1.
         11    1    3    3    0    0 -0.11559959671E+01 -0.37245291995E+01 -0.25726358342E+01  0.46719267792E+01  0.51100000000E-03 0. -1.
        -11    1    3    3    0    0  0.10598999391E+01 -0.43140133263E+00 -0.10540969950E+02  0.10602902562E+02  0.51100000000E-03 0.  1.
         12    1    3    3    0    0  0.48787618429E+01 -0.28219319809E+02 -0.15392409467E+02  0.32512437571E+02  0.00000000000E+00 0. -1.
</event>
<event>
 7    1  0.4937212E-009  0.4778727E+02  0.7816164E-02  0.1312668E+00
        -11   -1    0    0    0    0  0.00000000000E+00  0.00000000000E+00  0.45593999997E+02  0.45594000000E+02  0.51100000000E-03 0. -1.
         11   -1    0    0    0    0 -0.00000000000E+00 -0.00000000000E+00 -0.45593999997E+02  0.45594000000E+02  0.51100000000E-03 0.  1.
    9900012    2    1    2    0    0  0.35457083856E+02 -0.25028344757E+02 -0.24481636257E-01  0.47787269174E+02  0.19999991472E+02 0.  0.
        -12    1    1    2    0    0 -0.35457083856E+02  0.25028344757E+02  0.24481636257E-01  0.43400730826E+02  0.00000000000E+00 0.  1.
         11    1    3    3    0    0  0.20661691414E+02 -0.10161725695E+02 -0.10053848063E+01  0.23047276630E+02  0.51100000000E-03 0. -1.
        -11    1    3    3    0    0  0.10357890633E+02 -0.57503557954E+01 -0.51210558156E+01  0.12906498482E+02  0.51100000000E-03 0.  1.
        -12    1    3    3    0    0  0.44375018094E+01 -0.91162632668E+01  0.61019589856E+01  0.11833494062E+02  0.00000000000E+00 0.  1.
</event>
<event>
 7    1  0.4011333E-009  0.4778727E+02  0.7816164E-02  0.1312668E+00
        -11   -1    0    0    0    0  0.00000000000E+00  0.00000000000E+00  0.45593999997E+02  0.45594000000E+02  0.51100000000E-03 0.  1.
         11   -1    0    0    0    0 -0.00000000000E+00 -0.00000000000E+00 -0.45593999997E+02  0.45594000000E+02  0.51100000000E-03 0. -1.
    9900012    2    1    2    0    0 -0.60387824215E+01 -0.31088513931E+02 -0.29675934994E+02  0.47787266028E+02  0.19999977129E+02 0.  0.
        -12    1    1    2    0    0  0.60387824215E+01  0.31088513931E+02  0.29675934994E+02  0.43400733972E+02  0.00000000000E+00 0.  1.
         11    1    3    3    0    0 -0.21612594237E+01 -0.63559038427E+01 -0.70397216126E+01  0.97276017907E+01  0.51100000000E-03 0. -1.
        -11    1    3    3    0    0  0.32441505829E+01  0.11855324130E+01 -0.11239130082E+01  0.36322418446E+01  0.51100000000E-03 0.  1.
        -12    1    3    3    0    0 -0.71216735807E+01 -0.25918142501E+02 -0.21512300373E+02  0.34427422393E+02  0.00000000000E+00 0.  1.
</event>
<event>
 7    1  0.4011333E-009  0.4778727E+02  0.7816164E-02  0.1312668E+00
        -11   -1    0    0    0    0  0.00000000000E+00  0.00000000000E+00  0.45593999997E+02  0.45594000000E+02  0.51100000000E-03 0.  1.
         11   -1    0    0    0    0 -0.00000000000E+00 -0.00000000000E+00 -0.45593999997E+02  0.45594000000E+02  0.51100000000E-03 0. -1.
    9900012    2    1    2    0    0 -0.34926548972E+02 -0.20867232397E+02 -0.15110195101E+02  0.47787271815E+02  0.20000003513E+02 0.  0.
        -12    1    1    2    0    0  0.34926548972E+02  0.20867232397E+02  0.15110195101E+02  0.43400728185E+02  0.00000000000E+00 0.  1.
         11    1    3    3    0    0 -0.21475882998E+00  0.19778035424E+01 -0.40936640521E+01  0.45514738096E+01  0.51100000000E-03 0. -1.
        -11    1    3    3    0    0 -0.14265378582E+02 -0.97433637066E+01 -0.22653187782E+01  0.17423140700E+02  0.51100000000E-03 0.  1.
         12    1    3    3    0    0 -0.20446411560E+02 -0.13101672233E+02 -0.87512122702E+01  0.25812657305E+02  0.00000000000E+00 0. -1.
</event>
<event>
 7    1  0.4011333E-009  0.4778727E+02  0.7816164E-02  0.1312668E+00
        -11   -1    0    0    0    0  0.00000000000E+00  0.00000000000E+00  0.45593999997E+02  0.45594000000E+02  0.51100000000E-03 0. -1.
         11   -1    0    0    0    0 -0.00000000000E+00 -0.00000000000E+00 -0.45593999997E+02  0.45594000000E+02  0.51100000000E-03 0.  1.
    9900012    2    1    2    0    0  0.13786488755E+02 -0.40093385346E+02  0.92777459042E+01  0.47787269710E+02  0.19999993914E+02 0.  0.
        -12    1    1    2    0    0 -0.13786488755E+02  0.40093385346E+02 -0.92777459042E+01  0.43400730290E+02  0.00000000000E+00 0.  1.
         11    1    3    3    0    0  0.69045348380E+00 -0.18236678341E+02  0.17366553378E+01  0.18332188494E+02  0.51100000000E-03 0. -1.
        -11    1    3    3    0    0  0.19965189028E+01 -0.15493736182E+02  0.32131012629E+01  0.15948854774E+02  0.51100000000E-03 0.  1.
        -12    1    3    3    0    0  0.11099516368E+02 -0.63629708223E+01  0.43279893035E+01  0.13506226442E+02  0.00000000000E+00 0.  1.
</event>
<event>
 7    1  0.4011333E-009  0.4778727E+02  0.7816164E-02  0.1312668E+00
        -11   -1    0    0    0    0  0.00000000000E+00  0.00000000000E+00  0.45593999997E+02  0.45594000000E+02  0.51100000000E-03 0.  1.
         11   -1    0    0    0    0 -0.00000000000E+00 -0.00000000000E+00 -0.45593999997E+02  0.45594000000E+02  0.51100000000E-03 0. -1.
    9900012    2    1    2    0    0 -0.28541036993E+02  0.17650713373E+02 -0.27522448737E+02  0.47787266600E+02  0.19999979736E+02 0.  0.
        -12    1    1    2    0    0  0.28541036993E+02 -0.17650713373E+02  0.27522448737E+02  0.43400733400E+02  0.00000000000E+00 0.  1.
         11    1    3    3    0    0 -0.73858651309E+00  0.51286715813E+01 -0.48001642654E+01  0.70633108003E+01  0.51100000000E-03 0. -1.
        -11    1    3    3    0    0 -0.33940581305E+01  0.52586865595E+01 -0.11073778862E+02  0.12720141252E+02  0.51100000000E-03 0.  1.
         12    1    3    3    0    0 -0.24408392349E+02  0.72633552322E+01 -0.11648505609E+02  0.28003814548E+02  0.00000000000E+00 0. -1.
</event>
<event>
 7    1  0.4011333E-009  0.4778727E+02  0.7816164E-02  0.1312668E+00
        -11   -1    0    0    0    0  0.00000000000E+00  0.00000000000E+00  0.45593999997E+02  0.45594000000E+02  0.51100000000E-03 0.  1.
         11   -1    0    0    0    0 -0.00000000000E+00 -0.00000000000E+00 -0.45593999997E+02  0.45594000000E+02  0.51100000000E-03 0. -1.
    9900012    2    1    2    0    0  0.14635656791E+02 -0.35569677086E+02 -0.20105197831E+02  0.47787270081E+02  0.19999995607E+02 0.  0.
        -12    1    1    2    0    0 -0.14635656791E+02  0.35569677086E+02  0.20105197831E+02  0.43400729919E+02  0.00000000000E+00 0.  1.
         11    1    3    3    0    0  0.76933510618E+01 -0.13251212805E+02 -0.54897104003E+01  0.16276339020E+02  0.51100000000E-03 0. -1.
        -11    1    3    3    0    0  0.18865137346E+01 -0.22752618462E+02 -0.11607716446E+02  0.25612099919E+02  0.51100000000E-03 0.  1.
        -12    1    3    3    0    0  0.50557919942E+01  0.43415418038E+00 -0.30077709847E+01  0.58988311416E+01  0.00000000000E+00 0.  1.
</event>
<event>
 7    1  0.4011333E-009  0.4778727E+02  0.7816164E-02  0.1312668E+00
        -11   -1    0    0    0    0  0.00000000000E+00  0.00000000000E+00  0.45593999997E+02  0.45594000000E+02  0.51100000000E-03 0.  1.
         11   -1    0    0    0    0 -0.00000000000E+00 -0.00000000000E+00 -0.45593999997E+02  0.45594000000E+02  0.51100000000E-03 0. -1.
    9900012    2    1    2    0    0  0.27776891180E+02  0.15433939725E+02 -0.29561139644E+02  0.47787272401E+02  0.20000006185E+02 0.  0.
        -12    1    1    2    0    0 -0.27776891180E+02 -0.15433939725E+02  0.29561139644E+02  0.43400727599E+02  0.00000000000E+00 0.  1.
         11    1    3    3    0    0  0.75773171909E+01  0.21138189522E+01 -0.18591720687E+00  0.78688329403E+01  0.51100000000E-03 0.  1.
        -11    1    3    3    0    0  0.73390926107E+01  0.15564533339E+01 -0.25413698537E+01  0.79210724225E+01  0.51100000000E-03 0. -1.
         12    1    3    3    0    0  0.12860481378E+02  0.11763667439E+02 -0.26833852584E+02  0.31997367038E+02  0.00000000000E+00 0. -1.
</event>
<event>
 7    1  0.4011333E-009  0.4778725E+02  0.7816164E-02  0.1312668E+00
        -11   -1    0    0    0    0  0.00000000000E+00  0.00000000000E+00  0.45593999997E+02  0.45594000000E+02  0.51100000000E-03 0.  1.
         11   -1    0    0    0    0 -0.00000000000E+00 -0.00000000000E+00 -0.45593999997E+02  0.45594000000E+02  0.51100000000E-03 0. -1.
    9900012    2    1    2    0    0 -0.40279868359E+02 -0.11500401579E+01 -0.16119388640E+02  0.47787250266E+02  0.19999905261E+02 0.  0.
        -12    1    1    2    0    0  0.40279868359E+02  0.11500401579E+01  0.16119388640E+02  0.43400749734E+02  0.00000000000E+00 0.  1.
         11    1    3    3    0    0 -0.22461943291E+02  0.40991145394E+01 -0.12520555192E+02  0.26040467334E+02  0.51100000000E-03 0. -1.
        -11    1    3    3    0    0 -0.77526967760E+01 -0.31095863244E+01 -0.70112853254E+01  0.10905592904E+02  0.51100000000E-03 0.  1.
        -12    1    3    3    0    0 -0.10065228292E+02 -0.21395683728E+01  0.34124518776E+01  0.10841190028E+02  0.00000000000E+00 0.  1.
</event>
<event>
 7    1  0.4011333E-009  0.4778727E+02  0.7816164E-02  0.1312668E+00
        -11   -1    0    0    0    0  0.00000000000E+00  0.00000000000E+00  0.45593999997E+02  0.45594000000E+02  0.51100000000E-03 0. -1.
         11   -1    0    0    0    0 -0.00000000000E+00 -0.00000000000E+00 -0.45593999997E+02  0.45594000000E+02  0.51100000000E-03 0.  1.
    9900012    2    1    2    0    0  0.39027899945E+02 -0.18131105828E+02  0.56311065911E+01  0.47787270350E+02  0.19999996835E+02 0.  0.
        -12    1    1    2    0    0 -0.39027899945E+02  0.18131105828E+02 -0.56311065911E+01  0.43400729650E+02  0.00000000000E+00 0.  1.
         11    1    3    3    0    0  0.13250612551E+01 -0.36363055332E+01 -0.16779647076E+01  0.42183019192E+01  0.51100000000E-03 0. -1.
        -11    1    3    3    0    0  0.28816028723E+02 -0.15525102970E+02  0.12348618096E+01  0.32755415088E+02  0.51100000000E-03 0.  1.
         12    1    3    3    0    0  0.88868099672E+01  0.10303026756E+01  0.60742094890E+01  0.10813553344E+02  0.00000000000E+00 0. -1.
</event>
<event>
 7    1  0.4011333E-009  0.4778727E+02  0.7816164E-02  0.1312668E+00
        -11   -1    0    0    0    0  0.00000000000E+00  0.00000000000E+00  0.45593999997E+02  0.45594000000E+02  0.51100000000E-03 0.  1.
         11   -1    0    0    0    0 -0.00000000000E+00 -0.00000000000E+00 -0.45593999997E+02  0.45594000000E+02  0.51100000000E-03 0. -1.
    9900012    2    1    2    0    0  0.22704975009E+02  0.26006028249E+02 -0.26301974418E+02  0.47787271277E+02  0.20000001059E+02 0.  0.
        -12    1    1    2    0    0 -0.22704975009E+02 -0.26006028249E+02  0.26301974418E+02  0.43400728723E+02  0.00000000000E+00 0.  1.
         11    1    3    3    0    0  0.10836558953E+02  0.11343564097E+02 -0.68614825957E+01  0.17122715907E+02  0.51100000000E-03 0. -1.
        -11    1    3    3    0    0  0.18428334419E+01  0.37512048661E+01 -0.14429166910E+02  0.15022264510E+02  0.51100000000E-03 0.  1.
         12    1    3    3    0    0  0.10025582614E+02  0.10911259286E+02 -0.50113249126E+01  0.15642290860E+02  0.00000000000E+00 0. -1.
</event>
<event>
 7    1  0.4011333E-009  0.4778728E+02  0.7816164E-02  0.1312668E+00
        -11   -1    0    0    0    0  0.00000000000E+00  0.00000000000E+00  0.45593999997E+02  0.45594000000E+02  0.51100000000E-03 0.  1.
         11   -1    0    0    0    0 -0.00000000000E+00 -0.00000000000E+00 -0.45593999997E+02  0.45594000000E+02  0.51100000000E-03 0. -1.
    9900012    2    1    2    0    0 -0.18411460711E+01  0.16714037900E+02 -0.40010923473E+02  0.47787275594E+02  0.20000020743E+02 0.  0.
        -12    1    1    2    0    0  0.18411460711E+01 -0.16714037900E+02  0.40010923473E+02  0.43400724406E+02  0.00000000000E+00 0.  1.
         11    1    3    3    0    0  0.18719251218E+01 -0.16434337036E+01 -0.10929634717E+02  0.11209901575E+02  0.51100000000E-03 0.  1.
        -11    1    3    3    0    0 -0.44693305809E+01  0.12432862900E+01 -0.35958648594E+01  0.58694906924E+01  0.51100000000E-03 0. -1.
         12    1    3    3    0    0  0.75625938799E+00  0.17114185314E+02 -0.25485423897E+02  0.30707883327E+02  0.00000000000E+00 0. -1.
</event>
