<event>
 7    1  0.5946946E-013  0.5052886E+02  0.7816164E-02  0.1300439E+00
        -11   -1    0    0    0    0  0.00000000000E+00  0.00000000000E+00  0.45593999997E+02  0.45594000000E+02  0.51100000000E-03 0. -1.
         11   -1    0    0    0    0 -0.00000000000E+00 -0.00000000000E+00 -0.45593999997E+02  0.45594000000E+02  0.51100000000E-03 0.  1.
    9900012    2    1    2    0    0 -0.12691157818E+02  0.11065373763E+02 -0.37008887148E+02  0.50528859439E+02  0.29999998749E+02 0.  0.
         12    1    1    2    0    0  0.12691157818E+02 -0.11065373763E+02  0.37008887148E+02  0.40659140561E+02  0.00000000000E+00 0. -1.
         11    1    3    3    0    0  0.41852120056E+01  0.89434267012E+01 -0.74412937204E+01  0.12364211790E+02  0.51100000000E-03 0. -1.
        -11    1    3    3    0    0 -0.11832252240E+02 -0.36412388894E+01 -0.27611767740E+02  0.30260048442E+02  0.51100000000E-03 0.  1.
        -12    1    3    3    0    0 -0.50441175829E+01  0.57631859510E+01 -0.19558256877E+01  0.79045992066E+01  0.00000000000E+00 0.  1.
</event>
<event>
 7    1  0.5946946E-013  0.5052886E+02  0.7816164E-02  0.1300439E+00
        -11   -1    0    0    0    0  0.00000000000E+00  0.00000000000E+00  0.45593999997E+02  0.45594000000E+02  0.51100000000E-03 0.  1.
         11   -1    0    0    0    0 -0.00000000000E+00 -0.00000000000E+00 -0.45593999997E+02  0.45594000000E+02  0.51100000000E-03 0. -1.
    9900012    2    1    2    0    0  0.25035443307E+02  0.26133625086E+02  0.18531746060E+02  0.50528863343E+02  0.30000010617E+02 0.  0.
         12    1    1    2    0    0 -0.25035443307E+02 -0.26133625086E+02 -0.18531746060E+02  0.40659136657E+02  0.00000000000E+00 0. -1.
         11    1    3    3    0    0  0.95573770355E+00 -0.30827701283E+01  0.11745851396E+01  0.34346115841E+01  0.51100000000E-03 0. -1.
        -11    1    3    3    0    0  0.20896244320E+02  0.32468504658E+02  0.17809376427E+02  0.42520944373E+02  0.51100000000E-03 0.  1.
        -12    1    3    3    0    0  0.31834612829E+01 -0.32521094441E+01 -0.45221550703E+00  0.45733073854E+01  0.00000000000E+00 0.  1.
</event>
<event>
 7    1  0.5946946E-013  0.5052886E+02  0.7816164E-02  0.1300439E+00
        -11   -1    0    0    0    0  0.00000000000E+00  0.00000000000E+00  0.45593999997E+02  0.45594000000E+02  0.51100000000E-03 0.  1.
         11   -1    0    0    0    0 -0.00000000000E+00 -0.00000000000E+00 -0.45593999997E+02  0.45594000000E+02  0.51100000000E-03 0. -1.
    9900012    2    1    2    0    0 -0.40401117913E+02 -0.17022084428E+00 -0.45701755989E+01  0.50528858239E+02  0.29999995102E+02 0.  0.
         12    1    1    2    0    0  0.40401117913E+02  0.17022084428E+00  0.45701755989E+01  0.40659141761E+02  0.00000000000E+00 0. -1.
         11    1    3    3    0    0 -0.19701455938E+02 -0.34065150194E+01 -0.11696343561E+02  0.23163681996E+02  0.51100000000E-03 0. -1.
        -11    1    3    3    0    0 -0.21383503448E+02 -0.11793476105E+00  0.92908231763E+01  0.23314963519E+02  0.51100000000E-03 0.  1.
        -12    1    3    3    0    0  0.68384147242E+00  0.33542289361E+01 -0.21646552142E+01  0.40502127243E+01  0.00000000000E+00 0.  1.
</event>
<event>
 7    1  0.5946946E-013  0.5052886E+02  0.7816164E-02  0.1300439E+00
        -11   -1    0    0    0    0  0.00000000000E+00  0.00000000000E+00  0.45593999997E+02  0.45594000000E+02  0.51100000000E-03 0. -1.
         11   -1    0    0    0    0 -0.00000000000E+00 -0.00000000000E+00 -0.45593999997E+02  0.45594000000E+02  0.51100000000E-03 0.  1.
    9900012    2    1    2    0    0 -0.87507267798E+01 -0.37239831015E+02 -0.13776275207E+02  0.50528855988E+02  0.29999988262E+02 0.  0.
         12    1    1    2    0    0  0.87507267798E+01  0.37239831015E+02  0.13776275207E+02  0.40659144012E+02  0.00000000000E+00 0. -1.
         11    1    3    3    0    0 -0.54615005440E+01 -0.77072993263E+01  0.52764060175E+00  0.94609120048E+01  0.51100000000E-03 0. -1.
        -11    1    3    3    0    0  0.27313713711E+01 -0.31872837940E+02 -0.12650799723E+02  0.34400304094E+02  0.51100000000E-03 0.  1.
        -12    1    3    3    0    0 -0.60205976070E+01  0.23403062512E+01 -0.16531160859E+01  0.66676398889E+01  0.00000000000E+00 0.  1.
</event>
<event>
 7    1  0.5946946E-013  0.5052886E+02  0.7816164E-02  0.1300439E+00
        -11   -1    0    0    0    0  0.00000000000E+00  0.00000000000E+00  0.45593999997E+02  0.45594000000E+02  0.51100000000E-03 0.  1.
         11   -1    0    0    0    0 -0.00000000000E+00 -0.00000000000E+00 -0.45593999997E+02  0.45594000000E+02  0.51100000000E-03 0. -1.
    9900012    2    1    2    0    0 -0.23169099716E+02  0.29081029770E+02  0.16451513906E+02  0.50528858544E+02  0.29999996030E+02 0.  0.
         12    1    1    2    0    0  0.23169099716E+02 -0.29081029770E+02 -0.16451513906E+02  0.40659141456E+02  0.00000000000E+00 0. -1.
         11    1    3    3    0    0  0.10240178953E+01 -0.26972630577E+01 -0.56709994151E+00  0.29403134624E+01  0.51100000000E-03 0. -1.
        -11    1    3    3    0    0 -0.23070388775E+02  0.34476018159E+02  0.16365034213E+02  0.44594315909E+02  0.51100000000E-03 0.  1.
         12    1    3    3    0    0 -0.11227288360E+01 -0.26977253308E+01  0.65357963507E+00  0.29942291728E+01  0.00000000000E+00 0. -1.
</event>
<event>
 7    1  0.5946946E-013  0.5052886E+02  0.7816164E-02  0.1300439E+00
        -11   -1    0    0    0    0  0.00000000000E+00  0.00000000000E+00  0.45593999997E+02  0.45594000000E+02  0.51100000000E-03 0.  1.
         11   -1    0    0    0    0 -0.00000000000E+00 -0.00000000000E+00 -0.45593999997E+02  0.45594000000E+02  0.51100000000E-03 0. -1.
    9900012    2    1    2    0    0 -0.16520055837E+01  0.40623076404E+02  0.44952756584E+00  0.50528861617E+02  0.30000005371E+02 0.  0.
         12    1    1    2    0    0  0.16520055837E+01 -0.40623076404E+02 -0.44952756584E+00  0.40659138383E+02  0.00000000000E+00 0. -1.
         11    1    3    3    0    0 -0.79698587202E+01  0.45116140457E+01 -0.53092707812E+01  0.10585918279E+02  0.51100000000E-03 0. -1.
        -11    1    3    3    0    0  0.57402705001E+01  0.10344724145E+02  0.76693089383E+01  0.14099018509E+02  0.51100000000E-03 0.  1.
         12    1    3    3    0    0  0.57758263639E+00  0.25766738214E+02 -0.19105105913E+01  0.25843924830E+02  0.00000000000E+00 0. -1.
</event>
<event>
 7    1  0.5946946E-013  0.5052876E+02  0.7816164E-02  0.1300439E+00
        -11   -1    0    0    0    0  0.00000000000E+00  0.00000000000E+00  0.45593999997E+02  0.45594000000E+02  0.51100000000E-03 0. -1.
         11   -1    0    0    0    0 -0.00000000000E+00 -0.00000000000E+00 -0.45593999997E+02  0.45594000000E+02  0.51100000000E-03 0.  1.
    9900012    2    1    2    0    0 -0.38447068123E+02 -0.13076466172E+02 -0.20007387813E+01  0.50528757871E+02  0.29999690023E+02 0.  0.
         12    1    1    2    0    0  0.38447068123E+02  0.13076466172E+02  0.20007387813E+01  0.40659242129E+02  0.00000000000E+00 0. -1.
         11    1    3    3    0    0 -0.18694576482E+02 -0.27880340980E+01  0.55437722231E+01  0.19697556567E+02  0.51100000000E-03 0. -1.
        -11    1    3    3    0    0 -0.91913037345E+01 -0.66653421773E+01 -0.13928424808E+02  0.17969637408E+02  0.51100000000E-03 0.  1.
        -12    1    3    3    0    0 -0.10561187907E+02 -0.36230898966E+01  0.63839138039E+01  0.12861563896E+02  0.00000000000E+00 0.  1.
</event>
<event>
 7    1  0.5946946E-013  0.5052886E+02  0.7816164E-02  0.1300439E+00
        -11   -1    0    0    0    0  0.00000000000E+00  0.00000000000E+00  0.45593999997E+02  0.45594000000E+02  0.51100000000E-03 0.  1.
         11   -1    0    0    0    0 -0.00000000000E+00 -0.00000000000E+00 -0.45593999997E+02  0.45594000000E+02  0.51100000000E-03 0. -1.
    9900012    2    1    2    0    0 -0.14203724545E+01 -0.52989900625E+01  0.40287329144E+02  0.50528860276E+02  0.30000001294E+02 0.  0.
         12    1    1    2    0    0  0.14203724545E+01  0.52989900625E+01 -0.40287329144E+02  0.40659139724E+02  0.00000000000E+00 0. -1.
         11    1    3    3    0    0 -0.90525227839E+01 -0.11776997501E+02  0.13839161992E+02  0.20301927095E+02  0.51100000000E-03 0. -1.
        -11    1    3    3    0    0  0.36222991607E+01  0.82172742953E+01  0.22897941951E+02  0.24595942631E+02  0.51100000000E-03 0.  1.
        -12    1    3    3    0    0  0.40098511686E+01 -0.17392668567E+01  0.35502252011E+01  0.56309905498E+01  0.00000000000E+00 0.  1.
</event>
<event>
 7    1  0.5946946E-013  0.5052878E+02  0.7816164E-02  0.1300439E+00
        -11   -1    0    0    0    0  0.00000000000E+00  0.00000000000E+00  0.45593999997E+02  0.45594000000E+02  0.51100000000E-03 0. -1.
         11   -1    0    0    0    0 -0.00000000000E+00 -0.00000000000E+00 -0.45593999997E+02  0.45594000000E+02  0.51100000000E-03 0.  1.
    9900012    2    1    2    0    0  0.33191362657E+02  0.11229006807E+02 -0.20625586080E+02  0.50528782717E+02  0.29999765545E+02 0.  0.
         12    1    1    2    0    0 -0.33191362657E+02 -0.11229006807E+02  0.20625586080E+02  0.40659217283E+02  0.00000000000E+00 0. -1.
         11    1    3    3    0    0  0.12027152677E+02 -0.34181218073E+01  0.42118939795E+01  0.13193786771E+02  0.51100000000E-03 0. -1.
        -11    1    3    3    0    0  0.70436483805E+01  0.77920171194E+01 -0.16505091285E+02  0.19563909423E+02  0.51100000000E-03 0.  1.
        -12    1    3    3    0    0  0.14120561600E+02  0.68551114953E+01 -0.83323887745E+01  0.17771086523E+02  0.00000000000E+00 0.  1.
</event>
<event>
 7    1  0.5946946E-013  0.5052891E+02  0.7816164E-02  0.1300439E+00
        -11   -1    0    0    0    0  0.00000000000E+00  0.00000000000E+00  0.45593999997E+02  0.45594000000E+02  0.51100000000E-03 0.  1.
         11   -1    0    0    0    0 -0.00000000000E+00 -0.00000000000E+00 -0.45593999997E+02  0.45594000000E+02  0.51100000000E-03 0. -1.
    9900012    2    1    2    0    0 -0.28439995431E+02 -0.11766513120E+02  0.26568349580E+02  0.50528912817E+02  0.30000160999E+02 0.  0.
         12    1    1    2    0    0  0.28439995431E+02  0.11766513120E+02 -0.26568349580E+02  0.40659087183E+02  0.00000000000E+00 0. -1.
         11    1    3    3    0    0 -0.82934910079E+01  0.48904644808E+00 -0.51255525193E+01  0.97617851039E+01  0.51100000000E-03 0. -1.
        -11    1    3    3    0    0 -0.20043416150E+02 -0.10794696912E+02  0.31999328626E+02  0.39271122280E+02  0.51100000000E-03 0.  1.
        -12    1    3    3    0    0 -0.10308827323E+00 -0.14608626563E+01 -0.30542652679E+00  0.14960054331E+01  0.00000000000E+00 0.  1.
</event>
<event>
 7    1  0.5946946E-013  0.5052885E+02  0.7816164E-02  0.1300439E+00
        -11   -1    0    0    0    0  0.00000000000E+00  0.00000000000E+00  0.45593999997E+02  0.45594000000E+02  0.51100000000E-03 0.  1.
         11   -1    0    0    0    0 -0.00000000000E+00 -0.00000000000E+00 -0.45593999997E+02  0.45594000000E+02  0.51100000000E-03 0. -1.
    9900012    2    1    2    0    0  0.69206207936E+01  0.29534110824E+01  0.39956837754E+02  0.50528849585E+02  0.29999968797E+02 0.  0.
         12    1    1    2    0    0 -0.69206207936E+01 -0.29534110824E+01 -0.39956837754E+02  0.40659150415E+02  0.00000000000E+00 0. -1.
         11    1    3    3    0    0  0.11239783388E+01 -0.94129490382E+01  0.14258671095E+01  0.95864505515E+01  0.51100000000E-03 0. -1.
        -11    1    3    3    0    0  0.54271660229E+01  0.10614539870E+02  0.31310764463E+02  0.33503530548E+02  0.51100000000E-03 0.  1.
         12    1    3    3    0    0  0.36947643197E+00  0.17518202504E+01  0.72202061819E+01  0.74388684847E+01  0.00000000000E+00 0. -1.
</event>
<event>
 7    1  0.5946946E-013  0.5052887E+02  0.7816164E-02  0.1300439E+00
        -11   -1    0    0    0    0  0.00000000000E+00  0.00000000000E+00  0.45593999997E+02  0.45594000000E+02  0.51100000000E-03 0. -1.
         11   -1    0    0    0    0 -0.00000000000E+00 -0.00000000000E+00 -0.45593999997E+02  0.45594000000E+02  0.51100000000E-03 0.  1.
    9900012    2    1    2    0    0 -0.32152580376E+02  0.19632593380E+02 -0.15295021646E+02  0.50528870216E+02  0.30000031507E+02 0.  0.
         12    1    1    2    0    0  0.32152580376E+02 -0.19632593380E+02  0.15295021646E+02  0.40659129784E+02  0.00000000000E+00 0. -1.
         11    1    3    3    0    0 -0.87328126892E+01  0.18537903926E+02 -0.13773397245E+02  0.24690532019E+02  0.51100000000E-03 0. -1.
        -11    1    3    3    0    0 -0.11661640709E+02  0.59238212265E+01 -0.94605183205E+00  0.13114134980E+02  0.51100000000E-03 0.  1.
         12    1    3    3    0    0 -0.11758126978E+02 -0.48291317727E+01 -0.57557256866E+00  0.12724203217E+02  0.00000000000E+00 0. -1.
</event>
<event>
 7    1  0.5946946E-013  0.5052878E+02  0.7816164E-02  0.1300439E+00
        -11   -1    0    0    0    0  0.00000000000E+00  0.00000000000E+00  0.45593999997E+02  0.45594000000E+02  0.51100000000E-03 0.  1.
         11   -1    0    0    0    0 -0.00000000000E+00 -0.00000000000E+00 -0.45593999997E+02  0.45594000000E+02  0.51100000000E-03 0. -1.
    9900012    2    1    2    0    0 -0.12828849987E+02 -0.10379610482E+02  0.37159878486E+02  0.50528778723E+02  0.29999753405E+02 0.  0.
         12    1    1    2    0    0  0.12828849987E+02  0.10379610482E+02 -0.37159878486E+02  0.40659221277E+02  0.00000000000E+00 0. -1.
         11    1    3    3    0    0  0.64472608990E+01 -0.83233789145E+01  0.12197494626E+02  0.16112873272E+02  0.51100000000E-03 0. -1.
        -11    1    3    3    0    0 -0.14997098281E+02 -0.45389761022E+01  0.24957846321E+02  0.29468786099E+02  0.51100000000E-03 0.  1.
        -12    1    3    3    0    0 -0.42790126047E+01  0.24827445346E+01  0.45375390372E-02  0.49471193522E+01  0.00000000000E+00 0.  1.
</event>
<event>
 7    1  0.5946946E-013  0.5052884E+02  0.7816164E-02  0.1300439E+00
        -11   -1    0    0    0    0  0.00000000000E+00  0.00000000000E+00  0.45593999997E+02  0.45594000000E+02  0.51100000000E-03 0.  1.
         11   -1    0    0    0    0 -0.00000000000E+00 -0.00000000000E+00 -0.45593999997E+02  0.45594000000E+02  0.51100000000E-03 0. -1.
    9900012    2    1    2    0    0 -0.16091453991E+02  0.15525544379E+02  0.33958649349E+02  0.50528840080E+02  0.29999939908E+02 0.  0.
         12    1    1    2    0    0  0.16091453991E+02 -0.15525544379E+02 -0.33958649349E+02  0.40659159920E+02  0.00000000000E+00 0. -1.
         11    1    3    3    0    0 -0.20891395757E+02  0.65971441962E+01  0.28743285698E+02  0.36140686230E+02  0.51100000000E-03 0. -1.
        -11    1    3    3    0    0  0.39324093440E+01  0.23562766972E+01  0.61742013774E+01  0.76900355026E+01  0.51100000000E-03 0.  1.
         12    1    3    3    0    0  0.86753242281E+00  0.65721234854E+01 -0.95883772656E+00  0.66981183475E+01  0.00000000000E+00 0. -1.
</event>
<event>
 7    1  0.5946946E-013  0.5052884E+02  0.7816164E-02  0.1300439E+00
        -11   -1    0    0    0    0  0.00000000000E+00  0.00000000000E+00  0.45593999997E+02  0.45594000000E+02  0.51100000000E-03 0. -1.
         11   -1    0    0    0    0 -0.00000000000E+00 -0.00000000000E+00 -0.45593999997E+02  0.45594000000E+02  0.51100000000E-03 0.  1.
    9900012    2    1    2    0    0 -0.28851864936E+02  0.16529292143E+02  0.23399138973E+02  0.50528839732E+02  0.29999938848E+02 0.  0.
         12    1    1    2    0    0  0.28851864936E+02 -0.16529292143E+02 -0.23399138973E+02  0.40659160268E+02  0.00000000000E+00 0. -1.
         11    1    3    3    0    0 -0.45394011437E+01 -0.19263305938E+01  0.87113493896E+01  0.10010220814E+02  0.51100000000E-03 0. -1.
        -11    1    3    3    0    0 -0.91803135320E+00 -0.65450235843E+00 -0.45617785184E+01  0.46990401589E+01  0.51100000000E-03 0.  1.
        -12    1    3    3    0    0 -0.23394432439E+02  0.19110125095E+02  0.19249568102E+02  0.35819578758E+02  0.00000000000E+00 0.  1.
</event>
<event>
 7    1  0.5946946E-013  0.5052884E+02  0.7816164E-02  0.1300439E+00
        -11   -1    0    0    0    0  0.00000000000E+00  0.00000000000E+00  0.45593999997E+02  0.45594000000E+02  0.51100000000E-03 0.  1.
         11   -1    0    0    0    0 -0.00000000000E+00 -0.00000000000E+00 -0.45593999997E+02  0.45594000000E+02  0.51100000000E-03 0. -1.
    9900012    2    1    2    0    0 -0.31972415619E+02  0.12619505388E+02  0.21718198990E+02  0.50528838128E+02  0.29999933974E+02 0.  0.
         12    1    1    2    0    0  0.31972415619E+02 -0.12619505388E+02 -0.21718198990E+02  0.40659161872E+02  0.00000000000E+00 0. -1.
         11    1    3    3    0    0  0.35964188468E+01  0.87082900772E+00 -0.11414092407E+01  0.38723877644E+01  0.51100000000E-03 0. -1.
        -11    1    3    3    0    0 -0.37013958491E+02  0.99906839734E+01  0.20972156791E+02  0.43699865562E+02  0.51100000000E-03 0.  1.
        -12    1    3    3    0    0  0.14451240250E+01  0.17579924073E+01  0.18874514399E+01  0.29565848017E+01  0.00000000000E+00 0.  1.
</event>
<event>
 7    1  0.5946946E-013  0.5052886E+02  0.7816164E-02  0.1300439E+00
        -11   -1    0    0    0    0  0.00000000000E+00  0.00000000000E+00  0.45593999997E+02  0.45594000000E+02  0.51100000000E-03 0. -1.
         11   -1    0    0    0    0 -0.00000000000E+00 -0.00000000000E+00 -0.45593999997E+02  0.45594000000E+02  0.51100000000E-03 0.  1.
    9900012    2    1    2    0    0 -0.12661581730E+02  0.38636465947E+02  0.27113511809E+00  0.50528859981E+02  0.30000000400E+02 0.  0.
         12    1    1    2    0    0  0.12661581730E+02 -0.38636465947E+02 -0.27113511809E+00  0.40659140019E+02  0.00000000000E+00 0. -1.
         11    1    3    3    0    0 -0.97895080649E+01  0.35922964372E+02  0.56760644354E+01  0.37663132440E+02  0.51100000000E-03 0. -1.
        -11    1    3    3    0    0  0.39619956122E+01  0.27540505033E+01 -0.19065186069E+01  0.51881612220E+01  0.51100000000E-03 0.  1.
         12    1    3    3    0    0 -0.68340692770E+01 -0.40548927931E-01 -0.34984107104E+01  0.76775663199E+01  0.00000000000E+00 0. -1.
</event>
<event>
 7    1  0.5946946E-013  0.5052886E+02  0.7816164E-02  0.1300439E+00
        -11   -1    0    0    0    0  0.00000000000E+00  0.00000000000E+00  0.45593999997E+02  0.45594000000E+02  0.51100000000E-03 0.  1.
         11   -1    0    0    0    0 -0.00000000000E+00 -0.00000000000E+00 -0.45593999997E+02  0.45594000000E+02  0.51100000000E-03 0. -1.
    9900012    2    1    2    0    0  0.17026699183E+02  0.19285049958E+02  0.31485621011E+02  0.50528856288E+02  0.29999989172E+02 0.  0.
         12    1    1    2    0    0 -0.17026699183E+02 -0.19285049958E+02 -0.31485621011E+02  0.40659143712E+02  0.00000000000E+00 0. -1.
         11    1    3    3    0    0 -0.39484507615E+01  0.64744891736E+01  0.81764683329E+01  0.11151856712E+02  0.51100000000E-03 0. -1.
        -11    1    3    3    0    0  0.24126119040E+02  0.12457517834E+02  0.23874953065E+02  0.36156227052E+02  0.51100000000E-03 0.  1.
        -12    1    3    3    0    0 -0.31509690955E+01  0.35304295083E+00 -0.56580038702E+00  0.32207725228E+01  0.00000000000E+00 0.  1.
</event>
<event>
 7    1  0.5946946E-013  0.5052887E+02  0.7816164E-02  0.1300439E+00
        -11   -1    0    0    0    0  0.00000000000E+00  0.00000000000E+00  0.45593999997E+02  0.45594000000E+02  0.51100000000E-03 0. -1.
         11   -1    0    0    0    0 -0.00000000000E+00 -0.00000000000E+00 -0.45593999997E+02  0.45594000000E+02  0.51100000000E-03 0.  1.
    9900012    2    1    2    0    0  0.32839129847E+02 -0.19744932368E+02  0.13597582892E+02  0.50528867399E+02  0.30000022947E+02 0.  0.
         12    1    1    2    0    0 -0.32839129847E+02  0.19744932368E+02 -0.13597582892E+02  0.40659132601E+02  0.00000000000E+00 0. -1.
         11    1    3    3    0    0  0.48233112447E+01  0.29762659572E+01  0.57540498965E+01  0.80766070156E+01  0.51100000000E-03 0. -1.
        -11    1    3    3    0    0  0.25852251274E+02 -0.26105679224E+02  0.41121432405E+01  0.36969651147E+02  0.51100000000E-03 0.  1.
        -12    1    3    3    0    0  0.21635673288E+01  0.33844808982E+01  0.37313897551E+01  0.54826092366E+01  0.00000000000E+00 0.  1.
</event>
<event>
 7    1  0.5946946E-013  0.5052886E+02  0.7816164E-02  0.1300439E+00
        -11   -1    0    0    0    0  0.00000000000E+00  0.00000000000E+00  0.45593999997E+02  0.45594000000E+02  0.51100000000E-03 0. -1.
         11   -1    0    0    0    0 -0.00000000000E+00 -0.00000000000E+00 -0.45593999997E+02  0.45594000000E+02  0.51100000000E-03 0.  1.
    9900012    2    1    2    0    0  0.11364085097E+02  0.27075053698E+02 -0.28124088498E+02  0.50528864290E+02  0.30000013495E+02 0.  0.
         12    1    1    2    0    0 -0.11364085097E+02 -0.27075053698E+02  0.28124088498E+02  0.40659135710E+02  0.00000000000E+00 0. -1.
         11    1    3    3    0    0  0.62707515548E+01 -0.20907717572E+01  0.20430504397E+01  0.69186492152E+01  0.51100000000E-03 0. -1.
        -11    1    3    3    0    0 -0.28752698326E+01  0.90521898348E+01 -0.12371952700E+02  0.15597260378E+02  0.51100000000E-03 0.  1.
         12    1    3    3    0    0  0.79686033752E+01  0.20113635620E+02 -0.17795186238E+02  0.28012954697E+02  0.00000000000E+00 0. -1.
</event>
<event>
 7    1  0.5946946E-013  0.5052886E+02  0.7816164E-02  0.1300439E+00
        -11   -1    0    0    0    0  0.00000000000E+00  0.00000000000E+00  0.45593999997E+02  0.45594000000E+02  0.51100000000E-03 0. -1.
         11   -1    0    0    0    0 -0.00000000000E+00 -0.00000000000E+00 -0.45593999997E+02  0.45594000000E+02  0.51100000000E-03 0.  1.
    9900012    2    1    2    0    0 -0.19727311232E+02  0.34118924415E+02 -0.99948816070E+01  0.50528862405E+02  0.30000007765E+02 0.  0.
         12    1    1    2    0    0  0.19727311232E+02 -0.34118924415E+02  0.99948816070E+01  0.40659137595E+02  0.00000000000E+00 0. -1.
         11    1    3    3    0    0 -0.65142503498E+01  0.21538207510E+02  0.38582013097E+01  0.22830145816E+02  0.51100000000E-03 0. -1.
        -11    1    3    3    0    0  0.54894059942E+00  0.29061565146E+01 -0.10017118021E+02  0.10444603160E+02  0.51100000000E-03 0.  1.
        -12    1    3    3    0    0 -0.13762001482E+02  0.96745603899E+01 -0.38359648960E+01  0.17254113429E+02  0.00000000000E+00 0.  1.
</event>
<event>
 7    1  0.5946946E-013  0.5052889E+02  0.7816164E-02  0.1300439E+00
        -11   -1    0    0    0    0  0.00000000000E+00  0.00000000000E+00  0.45593999997E+02  0.45594000000E+02  0.51100000000E-03 0. -1.
         11   -1    0    0    0    0 -0.00000000000E+00 -0.00000000000E+00 -0.45593999997E+02  0.45594000000E+02  0.51100000000E-03 0.  1.
    9900012    2    1    2    0    0 -0.13655204571E+02  0.80230895722E+01 -0.37447675676E+02  0.50528892882E+02  0.30000100403E+02 0.  0.
         12    1    1    2    0    0  0.13655204571E+02 -0.80230895722E+01  0.37447675676E+02  0.40659107118E+02  0.00000000000E+00 0. -1.
         11    1    3    3    0    0 -0.34591554730E+01  0.73369438732E+01 -0.38121697345E+00  0.81204574149E+01  0.51100000000E-03 0. -1.
        -11    1    3    3    0    0 -0.11585421922E+02  0.34029531382E+00 -0.38604635358E+02  0.40307017669E+02  0.51100000000E-03 0.  1.
        -12    1    3    3    0    0  0.13893728243E+01  0.34585038515E+00  0.15381766558E+01  0.21014177972E+01  0.00000000000E+00 0.  1.
</event>
<event>
 7    1  0.5946946E-013  0.5052886E+02  0.7816164E-02  0.1300439E+00
        -11   -1    0    0    0    0  0.00000000000E+00  0.00000000000E+00  0.45593999997E+02  0.45594000000E+02  0.51100000000E-03 0.  1.
         11   -1    0    0    0    0 -0.00000000000E+00 -0.00000000000E+00 -0.45593999997E+02  0.45594000000E+02  0.51100000000E-03 0. -1.
    9900012    2    1    2    0    0 -0.23558047940E+02  0.22089347095E+02  0.24703139046E+02  0.50528856421E+02  0.29999989578E+02 0.  0.
         12    1    1    2    0    0  0.23558047940E+02 -0.22089347095E+02 -0.24703139046E+02  0.40659143579E+02  0.00000000000E+00 0. -1.
         11    1    3    3    0    0 -0.39528294996E+01  0.27807070852E+01 -0.60471522031E+01  0.77411396432E+01  0.51100000000E-03 0. -1.
        -11    1    3    3    0    0 -0.13640946413E+02  0.10325491981E+02  0.11161316003E+02  0.20427094235E+02  0.51100000000E-03 0.  1.
         12    1    3    3    0    0 -0.59642720275E+01  0.89831480286E+01  0.19588975246E+02  0.22360622543E+02  0.00000000000E+00 0. -1.
</event>
<event>
 7    1  0.5946946E-013  0.5052887E+02  0.7816164E-02  0.1300439E+00
        -11   -1    0    0    0    0  0.00000000000E+00  0.00000000000E+00  0.45593999997E+02  0.45594000000E+02  0.51100000000E-03 0. -1.
         11   -1    0    0    0    0 -0.00000000000E+00 -0.00000000000E+00 -0.45593999997E+02  0.45594000000E+02  0.51100000000E-03 0.  1.
    9900012    2    1    2    0    0 -0.15622577530E+02 -0.37511518067E+02 -0.14093726564E+01  0.50528865139E+02  0.30000016076E+02 0.  0.
         12    1    1    2    0    0  0.15622577530E+02  0.37511518067E+02  0.14093726564E+01  0.40659134861E+02  0.00000000000E+00 0. -1.
         11    1    3    3    0    0 -0.74220006482E+01 -0.24754271080E+02  0.93405637268E+01  0.27479195063E+02  0.51100000000E-03 0. -1.
        -11    1    3    3    0    0 -0.77805054486E+01 -0.14169382989E+02 -0.12734149901E+02  0.20578295685E+02  0.51100000000E-03 0.  1.
        -12    1    3    3    0    0 -0.42007143268E+00  0.14121360019E+01  0.19842135178E+01  0.24713743910E+01  0.00000000000E+00 0.  1.
</event>
<event>
 7    1  0.5946946E-013  0.5052886E+02  0.7816164E-02  0.1300439E+00
        -11   -1    0    0    0    0  0.00000000000E+00  0.00000000000E+00  0.45593999997E+02  0.45594000000E+02  0.51100000000E-03 0.  1.
         11   -1    0    0    0    0 -0.00000000000E+00 -0.00000000000E+00 -0.45593999997E+02  0.45594000000E+02  0.51100000000E-03 0. -1.
    9900012    2    1    2    0    0  0.25524197011E+02  0.27076304900E+02 -0.16387649890E+02  0.50528856022E+02  0.29999988366E+02 0.  0.
         12    1    1    2    0    0 -0.25524197011E+02 -0.27076304900E+02  0.16387649890E+02  0.40659143978E+02  0.00000000000E+00 0. -1.
         11    1    3    3    0    0  0.10152956100E+02 -0.27757873093E+01 -0.17368065536E+01  0.10667896232E+02  0.51100000000E-03 0. -1.
        -11    1    3    3    0    0  0.10829234219E+02  0.15535570921E+02 -0.83974218640E-01  0.18937616786E+02  0.51100000000E-03 0.  1.
         12    1    3    3    0    0  0.45420066923E+01  0.14316521288E+02 -0.14566869117E+02  0.20923343004E+02  0.00000000000E+00 0. -1.
</event>
<event>
 7    1  0.5946946E-013  0.5052886E+02  0.7816164E-02  0.1300439E+00
        -11   -1    0    0    0    0  0.00000000000E+00  0.00000000000E+00  0.45593999997E+02  0.45594000000E+02  0.51100000000E-03 0.  1.
         11   -1    0    0    0    0 -0.00000000000E+00 -0.00000000000E+00 -0.45593999997E+02  0.45594000000E+02  0.51100000000E-03 0. -1.
    9900012    2    1    2    0    0  0.28459530269E+02  0.25274926539E+02  0.14296818505E+02  0.50528858419E+02  0.29999995651E+02 0.  0.
         12    1    1    2    0    0 -0.28459530269E+02 -0.25274926539E+02 -0.14296818505E+02  0.40659141581E+02  0.00000000000E+00 0. -1.
         11    1    3    3    0    0  0.41675195115E+01  0.63326484821E+01 -0.72468481223E+01  0.10487490817E+02  0.51100000000E-03 0. -1.
        -11    1    3    3    0    0  0.23240173251E+02  0.18427326113E+02  0.23446143647E+02  0.37807322738E+02  0.51100000000E-03 0.  1.
        -12    1    3    3    0    0  0.10518375065E+01  0.51495194430E+00 -0.19024770196E+01  0.22340448641E+01  0.00000000000E+00 0.  1.
</event>
<event>
 7    1  0.5946946E-013  0.5052886E+02  0.7816164E-02  0.1300439E+00
        -11   -1    0    0    0    0  0.00000000000E+00  0.00000000000E+00  0.45593999997E+02  0.45594000000E+02  0.51100000000E-03 0.  1.
         11   -1    0    0    0    0 -0.00000000000E+00 -0.00000000000E+00 -0.45593999997E+02  0.45594000000E+02  0.51100000000E-03 0. -1.
    9900012    2    1    2    0    0 -0.88086359139E+01 -0.25297012368E+02  0.30588148884E+02  0.50528858917E+02  0.29999997166E+02 0.  0.
         12    1    1    2    0    0  0.88086359139E+01  0.25297012368E+02 -0.30588148884E+02  0.40659141083E+02  0.00000000000E+00 0. -1.
         11    1    3    3    0    0 -0.10266656078E+01 -0.18921219644E+02  0.19477915084E+02  0.27174542708E+02  0.51100000000E-03 0. -1.
        -11    1    3    3    0    0 -0.12933488297E+02 -0.57603145030E+01  0.43076148744E+01  0.14799050270E+02  0.51100000000E-03 0.  1.
         12    1    3    3    0    0  0.51515179913E+01 -0.61547822040E+00  0.68026189257E+01  0.85552659399E+01  0.00000000000E+00 0. -1.
</event>
<event>
 7    1  0.5946946E-013  0.5052887E+02  0.7816164E-02  0.1300439E+00
        -11   -1    0    0    0    0  0.00000000000E+00  0.00000000000E+00  0.45593999997E+02  0.45594000000E+02  0.51100000000E-03 0. -1.
         11   -1    0    0    0    0 -0.00000000000E+00 -0.00000000000E+00 -0.45593999997E+02  0.45594000000E+02  0.51100000000E-03 0.  1.
    9900012    2    1    2    0    0  0.39406345697E+02 -0.67981587216E-01 -0.10014983889E+02  0.50528873042E+02  0.30000040099E+02 0.  0.
         12    1    1    2    0    0 -0.39406345697E+02  0.67981587216E-01  0.10014983889E+02  0.40659126958E+02  0.00000000000E+00 0. -1.
         11    1    3    3    0    0  0.81919683223E+01 -0.97231143253E+01 -0.39798701244E+01  0.13322412081E+02  0.51100000000E-03 0. -1.
        -11    1    3    3    0    0  0.19604520168E+02  0.60452445524E+01  0.46324037546E+01  0.21031912835E+02  0.51100000000E-03 0.  1.
         12    1    3    3    0    0  0.11609857207E+02  0.36098881857E+01 -0.10667517519E+02  0.16174548126E+02  0.00000000000E+00 0. -1.
</event>
<event>
 7    1  0.5946946E-013  0.5052886E+02  0.7816164E-02  0.1300439E+00
        -11   -1    0    0    0    0  0.00000000000E+00  0.00000000000E+00  0.45593999997E+02  0.45594000000E+02  0.51100000000E-03 0. -1.
         11   -1    0    0    0    0 -0.00000000000E+00 -0.00000000000E+00 -0.45593999997E+02  0.45594000000E+02  0.51100000000E-03 0.  1.
    9900012    2    1    2    0    0  0.16132045124E+01 -0.36040520236E+02 -0.18752176149E+02  0.50528860338E+02  0.30000001483E+02 0.  0.
         12    1    1    2    0    0 -0.16132045124E+01  0.36040520236E+02  0.18752176149E+02  0.40659139662E+02  0.00000000000E+00 0. -1.
         11    1    3    3    0    0  0.88921934462E+01 -0.16132538240E+02  0.26607741076E+01  0.18612082459E+02  0.51100000000E-03 0. -1.
        -11    1    3    3    0    0 -0.19157722931E+01 -0.16968296720E+02 -0.18386307993E+02  0.25092819669E+02  0.51100000000E-03 0.  1.
        -12    1    3    3    0    0 -0.53632166406E+01 -0.29396852760E+01 -0.30266422643E+01  0.68239582101E+01  0.00000000000E+00 0.  1.
</event>
<event>
 7    1  0.5946946E-013  0.5052888E+02  0.7816164E-02  0.1300439E+00
        -11   -1    0    0    0    0  0.00000000000E+00  0.00000000000E+00  0.45593999997E+02  0.45594000000E+02  0.51100000000E-03 0.  1.
         11   -1    0    0    0    0 -0.00000000000E+00 -0.00000000000E+00 -0.45593999997E+02  0.45594000000E+02  0.51100000000E-03 0. -1.
    9900012    2    1    2    0    0  0.32390208765E+02 -0.21614618398E+02  0.11698149995E+02  0.50528879674E+02  0.30000060257E+02 0.  0.
         12    1    1    2    0    0 -0.32390208765E+02  0.21614618398E+02 -0.11698149995E+02  0.40659120326E+02  0.00000000000E+00 0. -1.
         11    1    3    3    0    0  0.50353212922E+01  0.34912427601E+01 -0.29327168173E+01  0.67929422725E+01  0.51100000000E-03 0. -1.
        -11    1    3    3    0    0  0.27919733134E+02 -0.17103115923E+02  0.14238132288E+02  0.35703676055E+02  0.51100000000E-03 0.  1.
        -12    1    3    3    0    0 -0.56484566078E+00 -0.80027452355E+01  0.39273452403E+00  0.80322613461E+01  0.00000000000E+00 0.  1.
</event>
<event>
 7    1  0.5946946E-013  0.5052887E+02  0.7816164E-02  0.1300439E+00
        -11   -1    0    0    0    0  0.00000000000E+00  0.00000000000E+00  0.45593999997E+02  0.45594000000E+02  0.51100000000E-03 0.  1.
         11   -1    0    0    0    0 -0.00000000000E+00 -0.00000000000E+00 -0.45593999997E+02  0.45594000000E+02  0.51100000000E-03 0. -1.
    9900012    2    1    2    0    0 -0.19477979688E+02  0.24756830332E+02  0.25707436895E+02  0.50528872457E+02  0.30000038320E+02 0.  0.
         12    1    1    2    0    0  0.19477979688E+02 -0.24756830332E+02 -0.25707436895E+02  0.40659127543E+02  0.00000000000E+00 0. -1.
         11    1    3    3    0    0  0.89162366236E+00 -0.42531987007E+01  0.36878899414E+01  0.56995810745E+01  0.51100000000E-03 0. -1.
        -11    1    3    3    0    0 -0.13594418222E+02  0.25074330805E+02  0.23375559391E+02  0.36877459908E+02  0.51100000000E-03 0.  1.
         12    1    3    3    0    0 -0.67751851292E+01  0.39356982278E+01 -0.13560124378E+01  0.79518314750E+01  0.00000000000E+00 0. -1.
</event>
<event>
 7    1  0.5946946E-013  0.5052886E+02  0.7816164E-02  0.1300439E+00
        -11   -1    0    0    0    0  0.00000000000E+00  0.00000000000E+00  0.45593999997E+02  0.45594000000E+02  0.51100000000E-03 0. -1.
         11   -1    0    0    0    0 -0.00000000000E+00 -0.00000000000E+00 -0.45593999997E+02  0.45594000000E+02  0.51100000000E-03 0.  1.
    9900012    2    1    2    0    0 -0.38741018023E+02  0.40199199716E+01 -0.11667882364E+02  0.50528859418E+02  0.29999998686E+02 0.  0.
         12    1    1    2    0    0  0.38741018023E+02 -0.40199199716E+01  0.11667882364E+02  0.40659140582E+02  0.00000000000E+00 0. -1.
         11    1    3    3    0    0 -0.11758372458E+02  0.17021993981E+01  0.17666625595E+01  0.12011573691E+02  0.51100000000E-03 0. -1.
        -11    1    3    3    0    0  0.32882203085E+00 -0.59814291564E+01 -0.70794296638E+01  0.92738311019E+01  0.51100000000E-03 0.  1.
        -12    1    3    3    0    0 -0.27311467595E+02  0.82991497299E+01 -0.63551152600E+01  0.29243454625E+02  0.00000000000E+00 0.  1.
</event>
<event>
 7    1  0.5946946E-013  0.5052886E+02  0.7816164E-02  0.1300439E+00
        -11   -1    0    0    0    0  0.00000000000E+00  0.00000000000E+00  0.45593999997E+02  0.45594000000E+02  0.51100000000E-03 0. -1.
         11   -1    0    0    0    0 -0.00000000000E+00 -0.00000000000E+00 -0.45593999997E+02  0.45594000000E+02  0.51100000000E-03 0.  1.
    9900012    2    1    2    0    0  0.21696015423E+02 -0.23428691597E+01 -0.34306843397E+02  0.50528860499E+02  0.30000001972E+02 0.  0.
         12    1    1    2    0    0 -0.21696015423E+02  0.23428691597E+01  0.34306843397E+02  0.40659139501E+02  0.00000000000E+00 0. -1.
         11    1    3    3    0    0 -0.31871405336E+01  0.64827913411E+01 -0.69243840707E+01  0.10006575007E+02  0.51100000000E-03 0. -1.
        -11    1    3    3    0    0  0.16162427892E+02 -0.79489970303E+01 -0.89508733097E+01  0.20112900398E+02  0.51100000000E-03 0.  1.
         12    1    3    3    0    0  0.87207280647E+01 -0.87666347050E+00 -0.18431586016E+02  0.20409385094E+02  0.00000000000E+00 0. -1.
</event>
<event>
 7    1  0.5946946E-013  0.5052886E+02  0.7816164E-02  0.1300439E+00
        -11   -1    0    0    0    0  0.00000000000E+00  0.00000000000E+00  0.45593999997E+02  0.45594000000E+02  0.51100000000E-03 0. -1.
         11   -1    0    0    0    0 -0.00000000000E+00 -0.00000000000E+00 -0.45593999997E+02  0.45594000000E+02  0.51100000000E-03 0.  1.
    9900012    2    1    2    0    0 -0.43237867586E+01 -0.19522924982E+02 -0.35402343512E+02  0.50528860094E+02  0.30000000741E+02 0.  0.
         12    1    1    2    0    0  0.43237867586E+01  0.19522924982E+02  0.35402343512E+02  0.40659139906E+02  0.00000000000E+00 0. -1.
         11    1    3    3    0    0 -0.81418273239E+01  0.35434593808E+01 -0.18033904098E+02  0.20101421687E+02  0.51100000000E-03 0. -1.
        -11    1    3    3    0    0  0.52237375804E+01 -0.15328639245E+02 -0.76064749558E+01  0.17891704137E+02  0.51100000000E-03 0.  1.
        -12    1    3    3    0    0 -0.14056970150E+01 -0.77377451186E+01 -0.97619644576E+01  0.12535734270E+02  0.00000000000E+00 0.  1.
</event>
<event>
 7    1  0.5946946E-013  0.5052885E+02  0.7816164E-02  0.1300439E+00
        -11   -1    0    0    0    0  0.00000000000E+00  0.00000000000E+00  0.45593999997E+02  0.45594000000E+02  0.51100000000E-03 0. -1.
         11   -1    0    0    0    0 -0.00000000000E+00 -0.00000000000E+00 -0.45593999997E+02  0.45594000000E+02  0.51100000000E-03 0.  1.
    9900012    2    1    2    0    0  0.32101846011E+01 -0.40323608408E+02  0.41070563055E+01  0.50528848610E+02  0.29999965836E+02 0.  0.
         12    1    1    2    0    0 -0.32101846011E+01  0.40323608408E+02 -0.41070563055E+01  0.40659151390E+02  0.00000000000E+00 0. -1.
         11    1    3    3    0    0  0.10460709534E+02 -0.35760806790E+01 -0.28874309394E+01  0.11425937803E+02  0.51100000000E-03 0. -1.
        -11    1    3    3    0    0 -0.55491610729E+01 -0.34463526169E+02  0.42806059256E+01  0.35168898362E+02  0.51100000000E-03 0.  1.
         12    1    3    3    0    0 -0.17013638599E+01 -0.22840015597E+01  0.27138813194E+01  0.39340124458E+01  0.00000000000E+00 0. -1.
</event>
<event>
 7    1  0.5946946E-013  0.5052886E+02  0.7816164E-02  0.1300439E+00
        -11   -1    0    0    0    0  0.00000000000E+00  0.00000000000E+00  0.45593999997E+02  0.45594000000E+02  0.51100000000E-03 0. -1.
         11   -1    0    0    0    0 -0.00000000000E+00 -0.00000000000E+00 -0.45593999997E+02  0.45594000000E+02  0.51100000000E-03 0.  1.
    9900012    2    1    2    0    0  0.10710833713E+02 -0.32011750889E+02 -0.22664757585E+02  0.50528863386E+02  0.30000010748E+02 0.  0.
         12    1    1    2    0    0 -0.10710833713E+02  0.32011750889E+02  0.22664757585E+02  0.40659136614E+02  0.00000000000E+00 0. -1.
         11    1    3    3    0    0 -0.52155197054E+01 -0.82446116099E+00 -0.17996077401E+01  0.55785276089E+01  0.51100000000E-03 0. -1.
        -11    1    3    3    0    0  0.12630343868E+02 -0.12284246859E+02 -0.18614409179E+02  0.25630539137E+02  0.51100000000E-03 0.  1.
        -12    1    3    3    0    0  0.32960095502E+01 -0.18903042869E+02 -0.22507406662E+01  0.19319796640E+02  0.00000000000E+00 0.  1.
</event>
<event>
 7    1  0.5946946E-013  0.5052885E+02  0.7816164E-02  0.1300439E+00
        -11   -1    0    0    0    0  0.00000000000E+00  0.00000000000E+00  0.45593999997E+02  0.45594000000E+02  0.51100000000E-03 0. -1.
         11   -1    0    0    0    0 -0.00000000000E+00 -0.00000000000E+00 -0.45593999997E+02  0.45594000000E+02  0.51100000000E-03 0.  1.
    9900012    2    1    2    0    0 -0.35043735514E+02  0.17893107321E+02  0.10244022663E+02  0.50528847418E+02  0.29999962212E+02 0.  0.
         12    1    1    2    0    0  0.35043735514E+02 -0.17893107321E+02 -0.10244022663E+02  0.40659152582E+02  0.00000000000E+00 0. -1.
         11    1    3    3    0    0 -0.16958199882E+02 -0.34566025857E+00  0.12659840127E+02  0.21165339037E+02  0.51100000000E-03 0. -1.
        -11    1    3    3    0    0 -0.17937891701E+02  0.20182308796E+02 -0.11239443689E+01  0.27025114213E+02  0.51100000000E-03 0.  1.
         12    1    3    3    0    0 -0.14764393060E+00 -0.19435412165E+01 -0.12918730950E+01  0.23383941678E+01  0.00000000000E+00 0. -1.
</event>
<event>
 7    1  0.5946946E-013  0.5052886E+02  0.7816164E-02  0.1300439E+00
        -11   -1    0    0    0    0  0.00000000000E+00  0.00000000000E+00  0.45593999997E+02  0.45594000000E+02  0.51100000000E-03 0. -1.
         11   -1    0    0    0    0 -0.00000000000E+00 -0.00000000000E+00 -0.45593999997E+02  0.45594000000E+02  0.51100000000E-03 0.  1.
    9900012    2    1    2    0    0 -0.66596421127E+00 -0.18993244286E+02 -0.35944111423E+02  0.50528856098E+02  0.29999988596E+02 0.  0.
         12    1    1    2    0    0  0.66596421127E+00  0.18993244286E+02  0.35944111423E+02  0.40659143902E+02  0.00000000000E+00 0. -1.
         11    1    3    3    0    0 -0.33250649234E+01 -0.10713816920E+02 -0.56231600677E+01  0.12548380738E+02  0.51100000000E-03 0. -1.
        -11    1    3    3    0    0  0.21658734547E+01  0.13763518012E+01 -0.27894478410E+02  0.28012270135E+02  0.51100000000E-03 0.  1.
        -12    1    3    3    0    0  0.49322725741E+00 -0.96557791666E+01 -0.24264729453E+01  0.99682052244E+01  0.00000000000E+00 0.  1.
</event>
<event>
 7    1  0.5946946E-013  0.5052886E+02  0.7816164E-02  0.1300439E+00
        -11   -1    0    0    0    0  0.00000000000E+00  0.00000000000E+00  0.45593999997E+02  0.45594000000E+02  0.51100000000E-03 0.  1.
         11   -1    0    0    0    0 -0.00000000000E+00 -0.00000000000E+00 -0.45593999997E+02  0.45594000000E+02  0.51100000000E-03 0. -1.
    9900012    2    1    2    0    0 -0.21718323009E+02 -0.26884358883E+02  0.21417544008E+02  0.50528862058E+02  0.30000006710E+02 0.  0.
         12    1    1    2    0    0  0.21718323009E+02  0.26884358883E+02 -0.21417544008E+02  0.40659137942E+02  0.00000000000E+00 0. -1.
         11    1    3    3    0    0  0.46502941954E+01 -0.14162647454E+02  0.12506457616E+02  0.19458090898E+02  0.51100000000E-03 0. -1.
        -11    1    3    3    0    0 -0.25902339278E+02 -0.11937873530E+02  0.94074822628E+01  0.30032394631E+02  0.51100000000E-03 0.  1.
         12    1    3    3    0    0 -0.46627792715E+00 -0.78383789879E+00 -0.49639587043E+00  0.10383765296E+01  0.00000000000E+00 0. -1.
</event>
<event>
 7    1  0.5946946E-013  0.5052885E+02  0.7816164E-02  0.1300439E+00
        -11   -1    0    0    0    0  0.00000000000E+00  0.00000000000E+00  0.45593999997E+02  0.45594000000E+02  0.51100000000E-03 0.  1.
         11   -1    0    0    0    0 -0.00000000000E+00 -0.00000000000E+00 -0.45593999997E+02  0.45594000000E+02  0.51100000000E-03 0. -1.
    9900012    2    1    2    0    0  0.40088307059E+02 -0.67487933361E+01  0.74005995544E+00  0.50528852651E+02  0.29999978119E+02 0.  0.
         12    1    1    2    0    0 -0.40088307059E+02  0.67487933361E+01 -0.74005995544E+00  0.40659147349E+02  0.00000000000E+00 0. -1.
         11    1    3    3    0    0 -0.68478529752E+00 -0.64237624941E+00 -0.81460977191E+01  0.82000296621E+01  0.51100000000E-03 0. -1.
        -11    1    3    3    0    0  0.30042284301E+02 -0.31874257710E+01  0.74482739680E+01  0.31115515654E+02  0.51100000000E-03 0.  1.
         12    1    3    3    0    0  0.10730808056E+02 -0.29189913156E+01  0.14378837065E+01  0.11213307335E+02  0.00000000000E+00 0. -1.
</event>
<event>
 7    1  0.5946946E-013  0.5052885E+02  0.7816164E-02  0.1300439E+00
        -11   -1    0    0    0    0  0.00000000000E+00  0.00000000000E+00  0.45593999997E+02  0.45594000000E+02  0.51100000000E-03 0. -1.
         11   -1    0    0    0    0 -0.00000000000E+00 -0.00000000000E+00 -0.45593999997E+02  0.45594000000E+02  0.51100000000E-03 0.  1.
    9900012    2    1    2    0    0 -0.17661265808E+02 -0.36530593360E+02 -0.26002966313E+01  0.50528854611E+02  0.29999984076E+02 0.  0.
         12    1    1    2    0    0  0.17661265808E+02  0.36530593360E+02  0.26002966313E+01  0.40659145389E+02  0.00000000000E+00 0. -1.
         11    1    3    3    0    0 -0.12898098501E+02 -0.13552050927E+02 -0.67273156962E+01  0.19881544357E+02  0.51100000000E-03 0. -1.
        -11    1    3    3    0    0  0.28867717711E+01 -0.19947735314E+02 -0.21893336798E+01  0.20274091290E+02  0.51100000000E-03 0.  1.
         12    1    3    3    0    0 -0.76499390781E+01 -0.30308071196E+01  0.63163527447E+01  0.10373218965E+02  0.00000000000E+00 0. -1.
</event>
<event>
 7    1  0.5946946E-013  0.5052886E+02  0.7816164E-02  0.1300439E+00
        -11   -1    0    0    0    0  0.00000000000E+00  0.00000000000E+00  0.45593999997E+02  0.45594000000E+02  0.51100000000E-03 0.  1.
         11   -1    0    0    0    0 -0.00000000000E+00 -0.00000000000E+00 -0.45593999997E+02  0.45594000000E+02  0.51100000000E-03 0. -1.
    9900012    2    1    2    0    0 -0.99320983007E+01  0.30283179356E+02  0.25247732696E+02  0.50528861607E+02  0.30000005340E+02 0.  0.
         12    1    1    2    0    0  0.99320983007E+01 -0.30283179356E+02 -0.25247732696E+02  0.40659138393E+02  0.00000000000E+00 0. -1.
         11    1    3    3    0    0 -0.50849260997E+01  0.68437727175E+01  0.21865467674E+02  0.23468966218E+02  0.51100000000E-03 0. -1.
        -11    1    3    3    0    0  0.21257337416E+01  0.17668030742E+02  0.21491845459E+01  0.17924760772E+02  0.51100000000E-03 0.  1.
         12    1    3    3    0    0 -0.69729059425E+01  0.57713758968E+01  0.12330804757E+01  0.91351346178E+01  0.00000000000E+00 0. -1.
</event>
<event>
 7    1  0.5946946E-013  0.5052887E+02  0.7816164E-02  0.1300439E+00
        -11   -1    0    0    0    0  0.00000000000E+00  0.00000000000E+00  0.45593999997E+02  0.45594000000E+02  0.51100000000E-03 0.  1.
         11   -1    0    0    0    0 -0.00000000000E+00 -0.00000000000E+00 -0.45593999997E+02  0.45594000000E+02  0.51100000000E-03 0. -1.
    9900012    2    1    2    0    0  0.82695054645E+01  0.35914376975E+02  0.17173758753E+02  0.50528865924E+02  0.30000018463E+02 0.  0.
         12    1    1    2    0    0 -0.82695054645E+01 -0.35914376975E+02 -0.17173758753E+02  0.40659134076E+02  0.00000000000E+00 0. -1.
         11    1    3    3    0    0  0.97224633178E+01  0.32242263523E+02  0.15988319245E+02  0.37278897551E+02  0.51100000000E-03 0.  1.
        -11    1    3    3    0    0 -0.55691277206E+01  0.49985936449E+01 -0.21526936014E+01  0.77868614985E+01  0.51100000000E-03 0. -1.
        -12    1    3    3    0    0  0.41161698673E+01 -0.13264801930E+01  0.33381331085E+01  0.54631068751E+01  0.00000000000E+00 0.  1.
</event>
<event>
 7    1  0.5946946E-013  0.5052888E+02  0.7816164E-02  0.1300439E+00
        -11   -1    0    0    0    0  0.00000000000E+00  0.00000000000E+00  0.45593999997E+02  0.45594000000E+02  0.51100000000E-03 0. -1.
         11   -1    0    0    0    0 -0.00000000000E+00 -0.00000000000E+00 -0.45593999997E+02  0.45594000000E+02  0.51100000000E-03 0.  1.
    9900012    2    1    2    0    0 -0.34771965656E+02  0.19501722972E+02 -0.79848329262E+01  0.50528876161E+02  0.30000049580E+02 0.  0.
         12    1    1    2    0    0  0.34771965656E+02 -0.19501722972E+02  0.79848329262E+01  0.40659123839E+02  0.00000000000E+00 0. -1.
         11    1    3    3    0    0 -0.19953371132E+02  0.16941848192E+02  0.84233099121E+01  0.27497552433E+02  0.51100000000E-03 0. -1.
        -11    1    3    3    0    0 -0.36502771726E+01  0.15811351918E+01 -0.82727081877E+01  0.91794451331E+01  0.51100000000E-03 0.  1.
         12    1    3    3    0    0 -0.11168317352E+02  0.97873958828E+00 -0.81354346507E+01  0.13851878595E+02  0.00000000000E+00 0. -1.
</event>
<event>
 7    1  0.5946946E-013  0.5052886E+02  0.7816164E-02  0.1300439E+00
        -11   -1    0    0    0    0  0.00000000000E+00  0.00000000000E+00  0.45593999997E+02  0.45594000000E+02  0.51100000000E-03 0.  1.
         11   -1    0    0    0    0 -0.00000000000E+00 -0.00000000000E+00 -0.45593999997E+02  0.45594000000E+02  0.51100000000E-03 0. -1.
    9900012    2    1    2    0    0 -0.52675877454E+01 -0.36595239546E+01  0.40150046907E+02  0.50528857573E+02  0.29999993080E+02 0.  0.
         12    1    1    2    0    0  0.52675877454E+01  0.36595239546E+01 -0.40150046907E+02  0.40659142427E+02  0.00000000000E+00 0. -1.
         11    1    3    3    0    0  0.25220685208E+01 -0.13210103053E+02  0.17912707093E+02  0.22399391241E+02  0.51100000000E-03 0. -1.
        -11    1    3    3    0    0 -0.10385861118E+02  0.45767660241E+01  0.17090016641E+02  0.20515398301E+02  0.51100000000E-03 0.  1.
         12    1    3    3    0    0  0.25962048518E+01  0.49738130747E+01  0.51473231727E+01  0.76140680309E+01  0.00000000000E+00 0. -1.
</event>
<event>
 7    1  0.5946946E-013  0.5052887E+02  0.7816164E-02  0.1300439E+00
        -11   -1    0    0    0    0  0.00000000000E+00  0.00000000000E+00  0.45593999997E+02  0.45594000000E+02  0.51100000000E-03 0. -1.
         11   -1    0    0    0    0 -0.00000000000E+00 -0.00000000000E+00 -0.45593999997E+02  0.45594000000E+02  0.51100000000E-03 0.  1.
    9900012    2    1    2    0    0 -0.41818245521E+01 -0.36320422253E+02 -0.17790572657E+02  0.50528865667E+02  0.30000017683E+02 0.  0.
         12    1    1    2    0    0  0.41818245521E+01  0.36320422253E+02  0.17790572657E+02  0.40659134333E+02  0.00000000000E+00 0. -1.
         11    1    3    3    0    0  0.86938870567E+01 -0.57824760856E+01 -0.86127924569E+01  0.13535172552E+02  0.51100000000E-03 0. -1.
        -11    1    3    3    0    0 -0.72564178568E+01 -0.21797195021E+02 -0.12410582074E+02  0.26111220932E+02  0.51100000000E-03 0.  1.
        -12    1    3    3    0    0 -0.56192937520E+01 -0.87407511468E+01  0.32328018739E+01  0.10882472184E+02  0.00000000000E+00 0.  1.
</event>
<event>
 7    1  0.5946946E-013  0.5052886E+02  0.7816164E-02  0.1300439E+00
        -11   -1    0    0    0    0  0.00000000000E+00  0.00000000000E+00  0.45593999997E+02  0.45594000000E+02  0.51100000000E-03 0. -1.
         11   -1    0    0    0    0 -0.00000000000E+00 -0.00000000000E+00 -0.45593999997E+02  0.45594000000E+02  0.51100000000E-03 0.  1.
    9900012    2    1    2    0    0 -0.37773352975E+02  0.93312097459E+01 -0.11801187347E+02  0.50528859661E+02  0.29999999425E+02 0.  0.
         12    1    1    2    0    0  0.37773352975E+02 -0.93312097459E+01  0.11801187347E+02  0.40659140339E+02  0.00000000000E+00 0. -1.
         11    1    3    3    0    0  0.22033843286E+01  0.40646419228E+01 -0.82364656620E+01  0.94454001145E+01  0.51100000000E-03 0. -1.
        -11    1    3    3    0    0 -0.33782579254E+02  0.41929182127E+01 -0.39735872154E+00  0.34044105487E+02  0.51100000000E-03 0.  1.
         12    1    3    3    0    0 -0.61941580499E+01  0.10736496104E+01 -0.31673629636E+01  0.70393540596E+01  0.00000000000E+00 0. -1.
</event>
<event>
 7    1  0.5946946E-013  0.5052888E+02  0.7816164E-02  0.1300439E+00
        -11   -1    0    0    0    0  0.00000000000E+00  0.00000000000E+00  0.45593999997E+02  0.45594000000E+02  0.51100000000E-03 0.  1.
         11   -1    0    0    0    0 -0.00000000000E+00 -0.00000000000E+00 -0.45593999997E+02  0.45594000000E+02  0.51100000000E-03 0. -1.
    9900012    2    1    2    0    0  0.36419350607E+02  0.11819582781E+02 -0.13678174680E+02  0.50528879273E+02  0.30000059038E+02 0.  0.
         12    1    1    2    0    0 -0.36419350607E+02 -0.11819582781E+02  0.13678174680E+02  0.40659120727E+02  0.00000000000E+00 0. -1.
         11    1    3    3    0    0  0.33045663298E+02  0.96825318994E+01 -0.20467508113E+02  0.40058534365E+02  0.51100000000E-03 0. -1.
        -11    1    3    3    0    0  0.54729019679E+01  0.11602868582E+01  0.53692322154E+01  0.77541973400E+01  0.51100000000E-03 0.  1.
         12    1    3    3    0    0 -0.20992146597E+01  0.97676402313E+00  0.14201012179E+01  0.27161475684E+01  0.00000000000E+00 0. -1.
</event>
<event>
 7    1  0.5946946E-013  0.5052886E+02  0.7816164E-02  0.1300439E+00
        -11   -1    0    0    0    0  0.00000000000E+00  0.00000000000E+00  0.45593999997E+02  0.45594000000E+02  0.51100000000E-03 0. -1.
         11   -1    0    0    0    0 -0.00000000000E+00 -0.00000000000E+00 -0.45593999997E+02  0.45594000000E+02  0.51100000000E-03 0.  1.
    9900012    2    1    2    0    0  0.36995180296E+02  0.14949485419E+02  0.78125167008E+01  0.50528857158E+02  0.29999991817E+02 0.  0.
         12    1    1    2    0    0 -0.36995180296E+02 -0.14949485419E+02 -0.78125167008E+01  0.40659142842E+02  0.00000000000E+00 0. -1.
         11    1    3    3    0    0  0.10365035262E+02  0.12390417395E+02 -0.63609254491E+01  0.17361387388E+02  0.51100000000E-03 0. -1.
        -11    1    3    3    0    0  0.24998565142E+02  0.62139526420E+01  0.10795323868E+02  0.27929920950E+02  0.51100000000E-03 0.  1.
         12    1    3    3    0    0  0.16315798922E+01 -0.36548846178E+01  0.33781182818E+01  0.52375488198E+01  0.00000000000E+00 0. -1.
</event>
<event>
 7    1  0.5946946E-013  0.5052886E+02  0.7816164E-02  0.1300439E+00
        -11   -1    0    0    0    0  0.00000000000E+00  0.00000000000E+00  0.45593999997E+02  0.45594000000E+02  0.51100000000E-03 0. -1.
         11   -1    0    0    0    0 -0.00000000000E+00 -0.00000000000E+00 -0.45593999997E+02  0.45594000000E+02  0.51100000000E-03 0.  1.
    9900012    2    1    2    0    0 -0.20291714592E+02 -0.34513416126E+02 -0.70877621069E+01  0.50528856558E+02  0.29999989993E+02 0.  0.
         12    1    1    2    0    0  0.20291714592E+02  0.34513416126E+02  0.70877621069E+01  0.40659143442E+02  0.00000000000E+00 0. -1.
         11    1    3    3    0    0 -0.46629784798E+01 -0.96945101896E+01 -0.15676782960E+02  0.19012848822E+02  0.51100000000E-03 0. -1.
        -11    1    3    3    0    0 -0.12248981229E+02 -0.15290778800E+02  0.86242604000E+01  0.21406151573E+02  0.51100000000E-03 0.  1.
         12    1    3    3    0    0 -0.33797548829E+01 -0.95281271363E+01 -0.35239547335E-01  0.10109856162E+02  0.00000000000E+00 0. -1.
</event>
<event>
 7    1  0.5946946E-013  0.5052886E+02  0.7816164E-02  0.1300439E+00
        -11   -1    0    0    0    0  0.00000000000E+00  0.00000000000E+00  0.45593999997E+02  0.45594000000E+02  0.51100000000E-03 0.  1.
         11   -1    0    0    0    0 -0.00000000000E+00 -0.00000000000E+00 -0.45593999997E+02  0.45594000000E+02  0.51100000000E-03 0. -1.
    9900012    2    1    2    0    0 -0.11941136164E+02 -0.36784242857E+02  0.12549686845E+02  0.50528857174E+02  0.29999991865E+02 0.  0.
         12    1    1    2    0    0  0.11941136164E+02  0.36784242857E+02 -0.12549686845E+02  0.40659142826E+02  0.00000000000E+00 0. -1.
         11    1    3    3    0    0 -0.62986234136E+00 -0.84399520095E+01  0.41031339135E+00  0.84733626047E+01  0.51100000000E-03 0. -1.
        -11    1    3    3    0    0 -0.10520052110E+02 -0.16003242582E+01  0.10956900128E+02  0.15273709268E+02  0.51100000000E-03 0.  1.
        -12    1    3    3    0    0 -0.79122171192E+00 -0.26743966589E+02  0.11824733260E+01  0.26781785301E+02  0.00000000000E+00 0.  1.
</event>
<event>
 7    1  0.5946946E-013  0.5052886E+02  0.7816164E-02  0.1300439E+00
        -11   -1    0    0    0    0  0.00000000000E+00  0.00000000000E+00  0.45593999997E+02  0.45594000000E+02  0.51100000000E-03 0. -1.
         11   -1    0    0    0    0 -0.00000000000E+00 -0.00000000000E+00 -0.45593999997E+02  0.45594000000E+02  0.51100000000E-03 0.  1.
    9900012    2    1    2    0    0  0.99950477027E+00  0.37260570175E+02 -0.16242433986E+02  0.50528858822E+02  0.29999996875E+02 0.  0.
         12    1    1    2    0    0 -0.99950477027E+00 -0.37260570175E+02  0.16242433986E+02  0.40659141178E+02  0.00000000000E+00 0. -1.
         11    1    3    3    0    0 -0.90015748205E+01  0.18784770145E+02 -0.16701468173E+02  0.26698969607E+02  0.51100000000E-03 0.  1.
        -11    1    3    3    0    0  0.74911017784E+01  0.31143719068E+01  0.14160598919E+01  0.82353593794E+01  0.51100000000E-03 0. -1.
         12    1    3    3    0    0  0.25099778123E+01  0.15361428123E+02 -0.95702570496E+00  0.15594529836E+02  0.00000000000E+00 0. -1.
</event>
<event>
 7    1  0.5946946E-013  0.5052879E+02  0.7816164E-02  0.1300439E+00
        -11   -1    0    0    0    0  0.00000000000E+00  0.00000000000E+00  0.45593999997E+02  0.45594000000E+02  0.51100000000E-03 0. -1.
         11   -1    0    0    0    0 -0.00000000000E+00 -0.00000000000E+00 -0.45593999997E+02  0.45594000000E+02  0.51100000000E-03 0.  1.
    9900012    2    1    2    0    0 -0.16846168467E+02  0.36985881192E+02 -0.11925425456E+01  0.50528794926E+02  0.29999802656E+02 0.  0.
         12    1    1    2    0    0  0.16846168467E+02 -0.36985881192E+02  0.11925425456E+01  0.40659205074E+02  0.00000000000E+00 0. -1.
         11    1    3    3    0    0 -0.17722425641E+02  0.60721605812E+01  0.26006486896E+01  0.18913457605E+02  0.51100000000E-03 0. -1.
        -11    1    3    3    0    0 -0.57205493145E+00  0.28867018437E+02 -0.36700785380E+01  0.29105007766E+02  0.51100000000E-03 0.  1.
         12    1    3    3    0    0  0.14483121051E+01  0.20467021729E+01 -0.12311269719E+00  0.25103295550E+01  0.00000000000E+00 0. -1.
</event>
<event>
 7    1  0.5946946E-013  0.5052879E+02  0.7816164E-02  0.1300439E+00
        -11   -1    0    0    0    0  0.00000000000E+00  0.00000000000E+00  0.45593999997E+02  0.45594000000E+02  0.51100000000E-03 0.  1.
         11   -1    0    0    0    0 -0.00000000000E+00 -0.00000000000E+00 -0.45593999997E+02  0.45594000000E+02  0.51100000000E-03 0. -1.
    9900012    2    1    2    0    0  0.17503814879E+02 -0.29370932797E+02  0.22003096880E+02  0.50528788239E+02  0.29999782330E+02 0.  0.
         12    1    1    2    0    0 -0.17503814879E+02  0.29370932797E+02 -0.22003096880E+02  0.40659211761E+02  0.00000000000E+00 0. -1.
         11    1    3    3    0    0 -0.53179959089E+00 -0.15130591671E+02  0.21014227518E+02  0.25900103737E+02  0.51100000000E-03 0. -1.
        -11    1    3    3    0    0  0.69363005146E+01 -0.10455202601E+02 -0.15131452701E+01  0.12637766224E+02  0.51100000000E-03 0.  1.
         12    1    3    3    0    0  0.11099313955E+02 -0.37851385252E+01  0.25020146320E+01  0.11990918278E+02  0.00000000000E+00 0. -1.
</event>
<event>
 7    1  0.5946946E-013  0.5052885E+02  0.7816164E-02  0.1300439E+00
        -11   -1    0    0    0    0  0.00000000000E+00  0.00000000000E+00  0.45593999997E+02  0.45594000000E+02  0.51100000000E-03 0. -1.
         11   -1    0    0    0    0 -0.00000000000E+00 -0.00000000000E+00 -0.45593999997E+02  0.45594000000E+02  0.51100000000E-03 0.  1.
    9900012    2    1    2    0    0  0.13152137431E+02  0.20977182447E+02 -0.32251288020E+02  0.50528849968E+02  0.29999969962E+02 0.  0.
         12    1    1    2    0    0 -0.13152137431E+02 -0.20977182447E+02  0.32251288020E+02  0.40659150032E+02  0.00000000000E+00 0. -1.
         11    1    3    3    0    0 -0.49576261957E+01  0.78256761039E+01 -0.99112217834E+01  0.13566561152E+02  0.51100000000E-03 0. -1.
        -11    1    3    3    0    0  0.19937249938E+02  0.73790434529E+01 -0.10605137498E+02  0.23757381147E+02  0.51100000000E-03 0.  1.
        -12    1    3    3    0    0 -0.18274863120E+01  0.57724628901E+01 -0.11734928739E+02  0.13204907669E+02  0.00000000000E+00 0.  1.
</event>
<event>
 7    1  0.5946946E-013  0.5052886E+02  0.7816164E-02  0.1300439E+00
        -11   -1    0    0    0    0  0.00000000000E+00  0.00000000000E+00  0.45593999997E+02  0.45594000000E+02  0.51100000000E-03 0. -1.
         11   -1    0    0    0    0 -0.00000000000E+00 -0.00000000000E+00 -0.45593999997E+02  0.45594000000E+02  0.51100000000E-03 0.  1.
    9900012    2    1    2    0    0 -0.29952121290E+02  0.19750474992E+02 -0.19129939583E+02  0.50528863012E+02  0.30000009611E+02 0.  0.
         12    1    1    2    0    0  0.29952121290E+02 -0.19750474992E+02  0.19129939583E+02  0.40659136988E+02  0.00000000000E+00 0. -1.
         11    1    3    3    0    0 -0.95973314771E+01  0.17010076182E+02 -0.10367277554E+02  0.22111804706E+02  0.51100000000E-03 0.  1.
        -11    1    3    3    0    0 -0.23398085638E+02  0.39583561114E+01 -0.80829133183E+01  0.25069353454E+02  0.51100000000E-03 0. -1.
         12    1    3    3    0    0  0.30432958253E+01 -0.12179573014E+01 -0.67974871122E+00  0.33477048524E+01  0.00000000000E+00 0. -1.
</event>
<event>
 7    1  0.5946946E-013  0.5052884E+02  0.7816164E-02  0.1300439E+00
        -11   -1    0    0    0    0  0.00000000000E+00  0.00000000000E+00  0.45593999997E+02  0.45594000000E+02  0.51100000000E-03 0. -1.
         11   -1    0    0    0    0 -0.00000000000E+00 -0.00000000000E+00 -0.45593999997E+02  0.45594000000E+02  0.51100000000E-03 0.  1.
    9900012    2    1    2    0    0 -0.28103332493E+02  0.24294808461E+00  0.29382150613E+02  0.50528842414E+02  0.29999947002E+02 0.  0.
         12    1    1    2    0    0  0.28103332493E+02 -0.24294808461E+00 -0.29382150613E+02  0.40659157586E+02  0.00000000000E+00 0. -1.
         11    1    3    3    0    0 -0.14523591275E+02 -0.69875397077E+01  0.28621881737E+02  0.32847717259E+02  0.51100000000E-03 0.  1.
        -11    1    3    3    0    0 -0.35362877632E+01  0.47011611896E+01 -0.30735934320E+01  0.66372603174E+01  0.51100000000E-03 0. -1.
        -12    1    3    3    0    0 -0.10043453455E+02  0.25293266027E+01  0.38338623079E+01  0.11043864838E+02  0.00000000000E+00 0.  1.
</event>
<event>
 7    1  0.5946946E-013  0.5052886E+02  0.7816164E-02  0.1300439E+00
        -11   -1    0    0    0    0  0.00000000000E+00  0.00000000000E+00  0.45593999997E+02  0.45594000000E+02  0.51100000000E-03 0.  1.
         11   -1    0    0    0    0 -0.00000000000E+00 -0.00000000000E+00 -0.45593999997E+02  0.45594000000E+02  0.51100000000E-03 0. -1.
    9900012    2    1    2    0    0 -0.10487295509E+02  0.39864816743E+01  0.39080561319E+02  0.50528859869E+02  0.30000000057E+02 0.  0.
         12    1    1    2    0    0  0.10487295509E+02 -0.39864816743E+01 -0.39080561319E+02  0.40659140131E+02  0.00000000000E+00 0. -1.
         11    1    3    3    0    0 -0.13377958612E+02 -0.72380322593E+01  0.18304479015E+02  0.23799429402E+02  0.51100000000E-03 0. -1.
        -11    1    3    3    0    0 -0.31089382586E+01  0.98096172132E+01  0.10206398656E+02  0.14493607583E+02  0.51100000000E-03 0.  1.
         12    1    3    3    0    0  0.59996013621E+01  0.14148967204E+01  0.10569683648E+02  0.12235822884E+02  0.00000000000E+00 0. -1.
</event>
<event>
 7    1  0.5946946E-013  0.5052886E+02  0.7816164E-02  0.1300439E+00
        -11   -1    0    0    0    0  0.00000000000E+00  0.00000000000E+00  0.45593999997E+02  0.45594000000E+02  0.51100000000E-03 0.  1.
         11   -1    0    0    0    0 -0.00000000000E+00 -0.00000000000E+00 -0.45593999997E+02  0.45594000000E+02  0.51100000000E-03 0. -1.
    9900012    2    1    2    0    0  0.23741350037E+02 -0.21066627833E+02  0.25410845508E+02  0.50528861061E+02  0.30000003681E+02 0.  0.
         12    1    1    2    0    0 -0.23741350037E+02  0.21066627833E+02 -0.25410845508E+02  0.40659138939E+02  0.00000000000E+00 0. -1.
         11    1    3    3    0    0 -0.31630079163E+01 -0.12058115844E+01 -0.14198305097E+01  0.36707655322E+01  0.51100000000E-03 0. -1.
        -11    1    3    3    0    0  0.29497710451E+02 -0.20207853695E+02  0.24408402936E+02  0.43292521375E+02  0.51100000000E-03 0.  1.
        -12    1    3    3    0    0 -0.25933524981E+01  0.34703744623E+00  0.24222730814E+01  0.35655741542E+01  0.00000000000E+00 0.  1.
</event>
<event>
 7    1  0.5946946E-013  0.5052886E+02  0.7816164E-02  0.1300439E+00
        -11   -1    0    0    0    0  0.00000000000E+00  0.00000000000E+00  0.45593999997E+02  0.45594000000E+02  0.51100000000E-03 0.  1.
         11   -1    0    0    0    0 -0.00000000000E+00 -0.00000000000E+00 -0.45593999997E+02  0.45594000000E+02  0.51100000000E-03 0. -1.
    9900012    2    1    2    0    0  0.14098311765E+02 -0.34421116000E+00  0.38135087914E+02  0.50528858271E+02  0.29999995201E+02 0.  0.
         12    1    1    2    0    0 -0.14098311765E+02  0.34421116000E+00 -0.38135087914E+02  0.40659141729E+02  0.00000000000E+00 0. -1.
         11    1    3    3    0    0 -0.24109917969E+01  0.75001887215E+01  0.19433809356E+01  0.81143355874E+01  0.51100000000E-03 0. -1.
        -11    1    3    3    0    0  0.45739567069E+01 -0.63213498932E+01  0.24201266354E+02  0.25427973529E+02  0.51100000000E-03 0.  1.
        -12    1    3    3    0    0  0.11935346855E+02 -0.15230499883E+01  0.11990440624E+02  0.16986549155E+02  0.00000000000E+00 0.  1.
</event>
<event>
 7    1  0.5946946E-013  0.5052885E+02  0.7816164E-02  0.1300439E+00
        -11   -1    0    0    0    0  0.00000000000E+00  0.00000000000E+00  0.45593999997E+02  0.45594000000E+02  0.51100000000E-03 0. -1.
         11   -1    0    0    0    0 -0.00000000000E+00 -0.00000000000E+00 -0.45593999997E+02  0.45594000000E+02  0.51100000000E-03 0.  1.
    9900012    2    1    2    0    0  0.26450156113E+02  0.22004011398E+02 -0.21665154174E+02  0.50528853657E+02  0.29999981175E+02 0.  0.
         12    1    1    2    0    0 -0.26450156113E+02 -0.22004011398E+02  0.21665154174E+02  0.40659146343E+02  0.00000000000E+00 0. -1.
         11    1    3    3    0    0  0.22307662474E+02  0.26210058685E+02 -0.22213296346E+02  0.40963758569E+02  0.51100000000E-03 0. -1.
        -11    1    3    3    0    0  0.46010589818E+01 -0.35765608059E+01 -0.25568777683E+01  0.63638946515E+01  0.51100000000E-03 0.  1.
         12    1    3    3    0    0 -0.45856534291E+00 -0.62948648060E+00  0.31050199402E+01  0.32012004361E+01  0.00000000000E+00 0. -1.
</event>
<event>
 7    1  0.5946946E-013  0.5052886E+02  0.7816164E-02  0.1300439E+00
        -11   -1    0    0    0    0  0.00000000000E+00  0.00000000000E+00  0.45593999997E+02  0.45594000000E+02  0.51100000000E-03 0.  1.
         11   -1    0    0    0    0 -0.00000000000E+00 -0.00000000000E+00 -0.45593999997E+02  0.45594000000E+02  0.51100000000E-03 0. -1.
    9900012    2    1    2    0    0 -0.20061439097E+02  0.25905890715E+02  0.24074651686E+02  0.50528863681E+02  0.30000011646E+02 0.  0.
         12    1    1    2    0    0  0.20061439097E+02 -0.25905890715E+02 -0.24074651686E+02  0.40659136319E+02  0.00000000000E+00 0. -1.
         11    1    3    3    0    0 -0.90023787137E+01  0.12165058245E+02  0.24139847444E+02  0.28491467135E+02  0.51100000000E-03 0. -1.
        -11    1    3    3    0    0 -0.18046125274E+01  0.11974810605E+02  0.22932435133E+01  0.12325245696E+02  0.51100000000E-03 0.  1.
         12    1    3    3    0    0 -0.92544478559E+01  0.17660218656E+01 -0.23584392716E+01  0.97121508506E+01  0.00000000000E+00 0. -1.
</event>
<event>
 7    1  0.5946946E-013  0.5052886E+02  0.7816164E-02  0.1300439E+00
        -11   -1    0    0    0    0  0.00000000000E+00  0.00000000000E+00  0.45593999997E+02  0.45594000000E+02  0.51100000000E-03 0.  1.
         11   -1    0    0    0    0 -0.00000000000E+00 -0.00000000000E+00 -0.45593999997E+02  0.45594000000E+02  0.51100000000E-03 0. -1.
    9900012    2    1    2    0    0  0.26735446027E+02  0.30508039740E+02  0.27642432438E+01  0.50528860759E+02  0.30000002765E+02 0.  0.
         12    1    1    2    0    0 -0.26735446027E+02 -0.30508039740E+02 -0.27642432438E+01  0.40659139241E+02  0.00000000000E+00 0. -1.
         11    1    3    3    0    0 -0.37920232107E+01  0.19246978468E+01  0.68320226902E+01  0.80473869133E+01  0.51100000000E-03 0. -1.
        -11    1    3    3    0    0  0.13209821568E+02  0.16295781988E+02 -0.32844035777E+01  0.21232974440E+02  0.51100000000E-03 0.  1.
         12    1    3    3    0    0  0.17317647670E+02  0.12287559905E+02 -0.78337586878E+00  0.21248499406E+02  0.00000000000E+00 0. -1.
</event>
<event>
 7    1  0.5946946E-013  0.5052886E+02  0.7816164E-02  0.1300439E+00
        -11   -1    0    0    0    0  0.00000000000E+00  0.00000000000E+00  0.45593999997E+02  0.45594000000E+02  0.51100000000E-03 0. -1.
         11   -1    0    0    0    0 -0.00000000000E+00 -0.00000000000E+00 -0.45593999997E+02  0.45594000000E+02  0.51100000000E-03 0.  1.
    9900012    2    1    2    0    0  0.32003894852E+02  0.16097018725E+02 -0.19230245572E+02  0.50528860285E+02  0.30000001324E+02 0.  0.
         12    1    1    2    0    0 -0.32003894852E+02 -0.16097018725E+02  0.19230245572E+02  0.40659139715E+02  0.00000000000E+00 0. -1.
         11    1    3    3    0    0  0.83978223865E+01  0.13085899241E+02 -0.14426008785E+02  0.21210231246E+02  0.51100000000E-03 0. -1.
        -11    1    3    3    0    0  0.22959888805E+02  0.48419694358E+01  0.70685805946E+00  0.23475536427E+02  0.51100000000E-03 0.  1.
        -12    1    3    3    0    0  0.64618366068E+00 -0.18308499515E+01 -0.55110948467E+01  0.58430926125E+01  0.00000000000E+00 0.  1.
</event>
<event>
 7    1  0.5946946E-013  0.5052886E+02  0.7816164E-02  0.1300439E+00
        -11   -1    0    0    0    0  0.00000000000E+00  0.00000000000E+00  0.45593999997E+02  0.45594000000E+02  0.51100000000E-03 0.  1.
         11   -1    0    0    0    0 -0.00000000000E+00 -0.00000000000E+00 -0.45593999997E+02  0.45594000000E+02  0.51100000000E-03 0. -1.
    9900012    2    1    2    0    0  0.12877538552E+02  0.19320715153E+02  0.33377310162E+02  0.50528857525E+02  0.29999992933E+02 0.  0.
         12    1    1    2    0    0 -0.12877538552E+02 -0.19320715153E+02 -0.33377310162E+02  0.40659142475E+02  0.00000000000E+00 0. -1.
         11    1    3    3    0    0  0.10962383393E+01 -0.41040849556E+01  0.19526119011E+02  0.19982857046E+02  0.51100000000E-03 0. -1.
        -11    1    3    3    0    0  0.10272453891E+02  0.17646211512E+02  0.73076203979E+01  0.21686710350E+02  0.51100000000E-03 0.  1.
         12    1    3    3    0    0  0.15088463215E+01  0.57785885961E+01  0.65435707526E+01  0.88592901284E+01  0.00000000000E+00 0. -1.
</event>
<event>
 7    1  0.5946946E-013  0.5052888E+02  0.7816164E-02  0.1300439E+00
        -11   -1    0    0    0    0  0.00000000000E+00  0.00000000000E+00  0.45593999997E+02  0.45594000000E+02  0.51100000000E-03 0.  1.
         11   -1    0    0    0    0 -0.00000000000E+00 -0.00000000000E+00 -0.45593999997E+02  0.45594000000E+02  0.51100000000E-03 0. -1.
    9900012    2    1    2    0    0 -0.26566167991E+02 -0.29883719338E+02  0.73733169586E+01  0.50528883357E+02  0.30000071451E+02 0.  0.
         12    1    1    2    0    0  0.26566167991E+02  0.29883719338E+02 -0.73733169586E+01  0.40659116643E+02  0.00000000000E+00 0. -1.
         11    1    3    3    0    0 -0.38402755744E+01  0.60643264376E+01 -0.60878364310E+00  0.72037760525E+01  0.51100000000E-03 0. -1.
        -11    1    3    3    0    0 -0.16329277494E+02 -0.23995859521E+02  0.52311443993E+01  0.29492566006E+02  0.51100000000E-03 0.  1.
         12    1    3    3    0    0 -0.63966149229E+01 -0.11952186255E+02  0.27509562024E+01  0.13832541298E+02  0.00000000000E+00 0. -1.
</event>
<event>
 7    1  0.5946946E-013  0.5052885E+02  0.7816164E-02  0.1300439E+00
        -11   -1    0    0    0    0  0.00000000000E+00  0.00000000000E+00  0.45593999997E+02  0.45594000000E+02  0.51100000000E-03 0.  1.
         11   -1    0    0    0    0 -0.00000000000E+00 -0.00000000000E+00 -0.45593999997E+02  0.45594000000E+02  0.51100000000E-03 0. -1.
    9900012    2    1    2    0    0 -0.98377192203E+01 -0.41436746255E+01  0.39232840677E+02  0.50528849167E+02  0.29999967528E+02 0.  0.
         12    1    1    2    0    0  0.98377192203E+01  0.41436746255E+01 -0.39232840677E+02  0.40659150833E+02  0.00000000000E+00 0. -1.
         11    1    3    3    0    0  0.53306741040E+01  0.62901171408E+01  0.67195314811E+01  0.10636435664E+02  0.51100000000E-03 0.  1.
        -11    1    3    3    0    0 -0.10794118887E+02 -0.12483874109E+02  0.17207596727E+02  0.23842430679E+02  0.51100000000E-03 0. -1.
        -12    1    3    3    0    0 -0.43742744371E+01  0.20500823423E+01  0.15305712469E+02  0.16049982824E+02  0.00000000000E+00 0.  1.
</event>
<event>
 7    1  0.5946946E-013  0.5052888E+02  0.7816164E-02  0.1300439E+00
        -11   -1    0    0    0    0  0.00000000000E+00  0.00000000000E+00  0.45593999997E+02  0.45594000000E+02  0.51100000000E-03 0. -1.
         11   -1    0    0    0    0 -0.00000000000E+00 -0.00000000000E+00 -0.45593999997E+02  0.45594000000E+02  0.51100000000E-03 0.  1.
    9900012    2    1    2    0    0  0.17259942165E+02  0.35354979773E+02 -0.10260790802E+02  0.50528880160E+02  0.30000061734E+02 0.  0.
         12    1    1    2    0    0 -0.17259942165E+02 -0.35354979773E+02  0.10260790802E+02  0.40659119840E+02  0.00000000000E+00 0. -1.
         11    1    3    3    0    0  0.36066613421E+01  0.23687391534E+02  0.64265303827E+01  0.24807273464E+02  0.51100000000E-03 0.  1.
        -11    1    3    3    0    0  0.18949825270E+01  0.56772504632E+00 -0.60534361317E+01  0.63684660451E+01  0.51100000000E-03 0. -1.
        -12    1    3    3    0    0  0.11758298296E+02  0.11099863193E+02 -0.10633885053E+02  0.19353140651E+02  0.00000000000E+00 0.  1.
</event>
<event>
 7    1  0.5946946E-013  0.5052886E+02  0.7816164E-02  0.1300439E+00
        -11   -1    0    0    0    0  0.00000000000E+00  0.00000000000E+00  0.45593999997E+02  0.45594000000E+02  0.51100000000E-03 0.  1.
         11   -1    0    0    0    0 -0.00000000000E+00 -0.00000000000E+00 -0.45593999997E+02  0.45594000000E+02  0.51100000000E-03 0. -1.
    9900012    2    1    2    0    0 -0.90872412545E+01  0.50253744483E+01  0.39310727780E+02  0.50528860061E+02  0.30000000642E+02 0.  0.
         12    1    1    2    0    0  0.90872412545E+01 -0.50253744483E+01 -0.39310727780E+02  0.40659139939E+02  0.00000000000E+00 0. -1.
         11    1    3    3    0    0 -0.74072631189E+01  0.59257176357E+01  0.26020991446E+01  0.98362897797E+01  0.51100000000E-03 0. -1.
        -11    1    3    3    0    0  0.74151678145E+01 -0.32883565702E+01  0.18462808534E+02  0.20166142463E+02  0.51100000000E-03 0.  1.
        -12    1    3    3    0    0 -0.90951459501E+01  0.23880133827E+01  0.18245820102E+02  0.20526427818E+02  0.00000000000E+00 0.  1.
</event>
<event>
 7    1  0.7363347E-013  0.5052887E+02  0.7816164E-02  0.1300439E+00
        -11   -1    0    0    0    0  0.00000000000E+00  0.00000000000E+00  0.45593999997E+02  0.45594000000E+02  0.51100000000E-03 0. -1.
         11   -1    0    0    0    0 -0.00000000000E+00 -0.00000000000E+00 -0.45593999997E+02  0.45594000000E+02  0.51100000000E-03 0.  1.
    9900012    2    1    2    0    0  0.94849227936E+01  0.17930346523E+02 -0.35237817553E+02  0.50528869749E+02  0.30000030090E+02 0.  0.
         12    1    1    2    0    0 -0.94849227936E+01 -0.17930346523E+02  0.35237817553E+02  0.40659130251E+02  0.00000000000E+00 0. -1.
         11    1    3    3    0    0 -0.35719626707E+01  0.10071537919E+02 -0.15335491132E+01  0.10795673509E+02  0.51100000000E-03 0. -1.
        -11    1    3    3    0    0  0.14531117110E+02  0.54860000866E+01 -0.17967375300E+02  0.23750287090E+02  0.51100000000E-03 0.  1.
        -12    1    3    3    0    0 -0.14742316458E+01  0.23728085176E+01 -0.15736893140E+02  0.15982909150E+02  0.00000000000E+00 0.  1.
</event>
<event>
 7    1  0.5946946E-013  0.5052886E+02  0.7816164E-02  0.1300439E+00
        -11   -1    0    0    0    0  0.00000000000E+00  0.00000000000E+00  0.45593999997E+02  0.45594000000E+02  0.51100000000E-03 0.  1.
         11   -1    0    0    0    0 -0.00000000000E+00 -0.00000000000E+00 -0.45593999997E+02  0.45594000000E+02  0.51100000000E-03 0. -1.
    9900012    2    1    2    0    0  0.64249518718E+01 -0.27684979111E+02  0.29076239603E+02  0.50528858539E+02  0.29999996014E+02 0.  0.
         12    1    1    2    0    0 -0.64249518718E+01  0.27684979111E+02 -0.29076239603E+02  0.40659141461E+02  0.00000000000E+00 0. -1.
         11    1    3    3    0    0  0.11348310768E+02 -0.25825408212E+01  0.17229495592E+02  0.20792046388E+02  0.51100000000E-03 0. -1.
        -11    1    3    3    0    0 -0.10273343366E+01 -0.21841079061E+02  0.77096159652E+01  0.23184614057E+02  0.51100000000E-03 0.  1.
         12    1    3    3    0    0 -0.38960245599E+01 -0.32613592289E+01  0.41371280462E+01  0.65521980940E+01  0.00000000000E+00 0. -1.
</event>
<event>
 7    1  0.5946946E-013  0.5052887E+02  0.7816164E-02  0.1300439E+00
        -11   -1    0    0    0    0  0.00000000000E+00  0.00000000000E+00  0.45593999997E+02  0.45594000000E+02  0.51100000000E-03 0.  1.
         11   -1    0    0    0    0 -0.00000000000E+00 -0.00000000000E+00 -0.45593999997E+02  0.45594000000E+02  0.51100000000E-03 0. -1.
    9900012    2    1    2    0    0 -0.37148911275E+02 -0.21864549244E+01  0.16381178991E+02  0.50528865489E+02  0.30000017139E+02 0.  0.
         12    1    1    2    0    0  0.37148911275E+02  0.21864549244E+01 -0.16381178991E+02  0.40659134511E+02  0.00000000000E+00 0. -1.
         11    1    3    3    0    0 -0.30978804117E+00  0.22324195310E+01  0.85549751030E+01  0.88468788207E+01  0.51100000000E-03 0. -1.
        -11    1    3    3    0    0 -0.13680109296E+02 -0.86894102944E+01 -0.16650042748E+01  0.16291822523E+02  0.51100000000E-03 0.  1.
        -12    1    3    3    0    0 -0.23159013938E+02  0.42705358390E+01  0.94912081624E+01  0.25390164145E+02  0.00000000000E+00 0.  1.
</event>
<event>
 7    1  0.5946946E-013  0.5052886E+02  0.7816164E-02  0.1300439E+00
        -11   -1    0    0    0    0  0.00000000000E+00  0.00000000000E+00  0.45593999997E+02  0.45594000000E+02  0.51100000000E-03 0.  1.
         11   -1    0    0    0    0 -0.00000000000E+00 -0.00000000000E+00 -0.45593999997E+02  0.45594000000E+02  0.51100000000E-03 0. -1.
    9900012    2    1    2    0    0  0.17115482247E+02  0.97600997867E+01  0.35566362821E+02  0.50528862715E+02  0.30000008710E+02 0.  0.
         12    1    1    2    0    0 -0.17115482247E+02 -0.97600997867E+01 -0.35566362821E+02  0.40659137285E+02  0.00000000000E+00 0. -1.
         11    1    3    3    0    0  0.10147269078E+01 -0.23156462521E+01  0.80844977568E+01  0.84705957584E+01  0.51100000000E-03 0. -1.
        -11    1    3    3    0    0  0.47979300066E+01  0.62834949019E+01 -0.34459763244E+01  0.86242213341E+01  0.51100000000E-03 0.  1.
        -12    1    3    3    0    0  0.11302825332E+02  0.57922511369E+01  0.30927841389E+02  0.33434045623E+02  0.00000000000E+00 0.  1.
</event>
<event>
 7    1  0.5946946E-013  0.5052886E+02  0.7816164E-02  0.1300439E+00
        -11   -1    0    0    0    0  0.00000000000E+00  0.00000000000E+00  0.45593999997E+02  0.45594000000E+02  0.51100000000E-03 0.  1.
         11   -1    0    0    0    0 -0.00000000000E+00 -0.00000000000E+00 -0.45593999997E+02  0.45594000000E+02  0.51100000000E-03 0. -1.
    9900012    2    1    2    0    0 -0.24962437269E+02 -0.28212896207E+02  0.15299505861E+02  0.50528859990E+02  0.30000000426E+02 0.  0.
         12    1    1    2    0    0  0.24962437269E+02  0.28212896207E+02 -0.15299505861E+02  0.40659140010E+02  0.00000000000E+00 0. -1.
         11    1    3    3    0    0 -0.59980611658E+01  0.23915584835E+01  0.93683183369E+00  0.65248711769E+01  0.51100000000E-03 0. -1.
        -11    1    3    3    0    0 -0.31390455284E+01 -0.24346136733E+02  0.76793739886E+01  0.25720823583E+02  0.51100000000E-03 0.  1.
         12    1    3    3    0    0 -0.15825330574E+02 -0.62583179574E+01  0.66833000387E+01  0.18283165231E+02  0.00000000000E+00 0. -1.
</event>
<event>
 7    1  0.5946946E-013  0.5052885E+02  0.7816164E-02  0.1300439E+00
        -11   -1    0    0    0    0  0.00000000000E+00  0.00000000000E+00  0.45593999997E+02  0.45594000000E+02  0.51100000000E-03 0.  1.
         11   -1    0    0    0    0 -0.00000000000E+00 -0.00000000000E+00 -0.45593999997E+02  0.45594000000E+02  0.51100000000E-03 0. -1.
    9900012    2    1    2    0    0 -0.33271370506E+02  0.23337353357E+02 -0.12451953092E+01  0.50528847667E+02  0.29999962970E+02 0.  0.
         12    1    1    2    0    0  0.33271370506E+02 -0.23337353357E+02  0.12451953092E+01  0.40659152333E+02  0.00000000000E+00 0. -1.
         11    1    3    3    0    0 -0.37303842023E+01  0.17489982615E+02  0.28416025868E+01  0.18107732153E+02  0.51100000000E-03 0. -1.
        -11    1    3    3    0    0 -0.23608232546E+02  0.58363180686E+01 -0.76582902384E+01  0.25496287223E+02  0.51100000000E-03 0.  1.
         12    1    3    3    0    0 -0.59327537583E+01  0.11052672721E-01  0.35714923425E+01  0.69248282917E+01  0.00000000000E+00 0. -1.
</event>
<event>
 7    1  0.5946946E-013  0.5052886E+02  0.7816164E-02  0.1300439E+00
        -11   -1    0    0    0    0  0.00000000000E+00  0.00000000000E+00  0.45593999997E+02  0.45594000000E+02  0.51100000000E-03 0.  1.
         11   -1    0    0    0    0 -0.00000000000E+00 -0.00000000000E+00 -0.45593999997E+02  0.45594000000E+02  0.51100000000E-03 0. -1.
    9900012    2    1    2    0    0 -0.13855222730E+01 -0.37726667516E+02  0.15097839285E+02  0.50528857548E+02  0.29999993002E+02 0.  0.
         12    1    1    2    0    0  0.13855222730E+01  0.37726667516E+02 -0.15097839285E+02  0.40659142452E+02  0.00000000000E+00 0. -1.
         11    1    3    3    0    0  0.13308185073E+02 -0.18366713967E+02  0.95497572000E+01  0.24609791440E+02  0.51100000000E-03 0. -1.
        -11    1    3    3    0    0 -0.80396052918E+01 -0.86240282960E+01  0.61028932167E+01  0.13276084633E+02  0.51100000000E-03 0.  1.
         12    1    3    3    0    0 -0.66541020540E+01 -0.10735925254E+02 -0.55481113155E+00  0.12642981475E+02  0.00000000000E+00 0. -1.
</event>
<event>
 7    1  0.5946946E-013  0.5052884E+02  0.7816164E-02  0.1300439E+00
        -11   -1    0    0    0    0  0.00000000000E+00  0.00000000000E+00  0.45593999997E+02  0.45594000000E+02  0.51100000000E-03 0. -1.
         11   -1    0    0    0    0 -0.00000000000E+00 -0.00000000000E+00 -0.45593999997E+02  0.45594000000E+02  0.51100000000E-03 0.  1.
    9900012    2    1    2    0    0 -0.22396800282E+02  0.29242957466E+01 -0.33808275481E+02  0.50528835480E+02  0.29999925923E+02 0.  0.
         12    1    1    2    0    0  0.22396800282E+02 -0.29242957466E+01  0.33808275481E+02  0.40659164520E+02  0.00000000000E+00 0. -1.
         11    1    3    3    0    0 -0.93551111541E+01 -0.37926117711E+01 -0.55842113537E+00  0.10110086210E+02  0.51100000000E-03 0. -1.
        -11    1    3    3    0    0 -0.15058622846E+02  0.59534215929E+01 -0.34366441753E+02  0.37990231240E+02  0.51100000000E-03 0.  1.
         12    1    3    3    0    0  0.20169337178E+01  0.76348592485E+00  0.11165874071E+01  0.24285180290E+01  0.00000000000E+00 0. -1.
</event>
<event>
 7    1  0.5946946E-013  0.5052885E+02  0.7816164E-02  0.1300439E+00
        -11   -1    0    0    0    0  0.00000000000E+00  0.00000000000E+00  0.45593999997E+02  0.45594000000E+02  0.51100000000E-03 0.  1.
         11   -1    0    0    0    0 -0.00000000000E+00 -0.00000000000E+00 -0.45593999997E+02  0.45594000000E+02  0.51100000000E-03 0. -1.
    9900012    2    1    2    0    0  0.78774217068E+01 -0.35233890595E+02  0.18699876921E+02  0.50528853229E+02  0.29999979876E+02 0.  0.
         12    1    1    2    0    0 -0.78774217068E+01  0.35233890595E+02 -0.18699876921E+02  0.40659146771E+02  0.00000000000E+00 0. -1.
         11    1    3    3    0    0 -0.58924848408E+01 -0.16457722630E+02  0.12484101781E+02  0.21480940605E+02  0.51100000000E-03 0. -1.
        -11    1    3    3    0    0  0.16828337158E+02 -0.18539827209E+02  0.42284460336E+01  0.25392870664E+02  0.51100000000E-03 0.  1.
        -12    1    3    3    0    0 -0.30584306102E+01 -0.23634075678E+00  0.19873291071E+01  0.36550419602E+01  0.00000000000E+00 0.  1.
</event>
<event>
 7    1  0.5946946E-013  0.5052887E+02  0.7816164E-02  0.1300439E+00
        -11   -1    0    0    0    0  0.00000000000E+00  0.00000000000E+00  0.45593999997E+02  0.45594000000E+02  0.51100000000E-03 0. -1.
         11   -1    0    0    0    0 -0.00000000000E+00 -0.00000000000E+00 -0.45593999997E+02  0.45594000000E+02  0.51100000000E-03 0.  1.
    9900012    2    1    2    0    0 -0.36598109032E+02 -0.35964671207E+01 -0.17343838943E+02  0.50528869294E+02  0.30000028707E+02 0.  0.
         12    1    1    2    0    0  0.36598109032E+02  0.35964671207E+01  0.17343838943E+02  0.40659130706E+02  0.00000000000E+00 0. -1.
         11    1    3    3    0    0 -0.76153601480E+01 -0.14202216268E+00  0.40778895980E+01  0.86396217691E+01  0.51100000000E-03 0. -1.
        -11    1    3    3    0    0 -0.70176612931E+01  0.30417078989E+01 -0.16888066437E+02  0.18539318898E+02  0.51100000000E-03 0.  1.
        -12    1    3    3    0    0 -0.21965087591E+02 -0.64961528569E+01 -0.45336621040E+01  0.23349928627E+02  0.00000000000E+00 0.  1.
</event>
<event>
 7    1  0.5946946E-013  0.5052886E+02  0.7816164E-02  0.1300439E+00
        -11   -1    0    0    0    0  0.00000000000E+00  0.00000000000E+00  0.45593999997E+02  0.45594000000E+02  0.51100000000E-03 0.  1.
         11   -1    0    0    0    0 -0.00000000000E+00 -0.00000000000E+00 -0.45593999997E+02  0.45594000000E+02  0.51100000000E-03 0. -1.
    9900012    2    1    2    0    0 -0.10912386259E+02 -0.35563519273E+02  0.16411025909E+02  0.50528857752E+02  0.29999993623E+02 0.  0.
         12    1    1    2    0    0  0.10912386259E+02  0.35563519273E+02 -0.16411025909E+02  0.40659142248E+02  0.00000000000E+00 0. -1.
         11    1    3    3    0    0  0.16972194622E+01  0.82294975848E+00 -0.12132490839E+01  0.22427157218E+01  0.51100000000E-03 0. -1.
        -11    1    3    3    0    0 -0.11148912234E+02 -0.37725244350E+02  0.20833637999E+02  0.44514410900E+02  0.51100000000E-03 0.  1.
        -12    1    3    3    0    0 -0.14606934871E+01  0.13387753180E+01 -0.32093630062E+01  0.37717311305E+01  0.00000000000E+00 0.  1.
</event>
<event>
 7    1  0.5946946E-013  0.5052886E+02  0.7816164E-02  0.1300439E+00
        -11   -1    0    0    0    0  0.00000000000E+00  0.00000000000E+00  0.45593999997E+02  0.45594000000E+02  0.51100000000E-03 0.  1.
         11   -1    0    0    0    0 -0.00000000000E+00 -0.00000000000E+00 -0.45593999997E+02  0.45594000000E+02  0.51100000000E-03 0. -1.
    9900012    2    1    2    0    0 -0.39022926010E+02 -0.41554916602E+01  0.10635246288E+02  0.50528864139E+02  0.30000013038E+02 0.  0.
         12    1    1    2    0    0  0.39022926010E+02  0.41554916602E+01 -0.10635246288E+02  0.40659135861E+02  0.00000000000E+00 0. -1.
         11    1    3    3    0    0  0.19238935890E+00 -0.27348039751E+01 -0.47976605624E+01  0.55257319497E+01  0.51100000000E-03 0. -1.
        -11    1    3    3    0    0 -0.39077334796E+02  0.48496592159E-03  0.17230489162E+02  0.42707468340E+02  0.51100000000E-03 0.  1.
        -12    1    3    3    0    0 -0.13798057322E+00 -0.14211726510E+01 -0.17975823117E+01  0.22956638495E+01  0.00000000000E+00 0.  1.
</event>
<event>
 7    1  0.5946946E-013  0.5052886E+02  0.7816164E-02  0.1300439E+00
        -11   -1    0    0    0    0  0.00000000000E+00  0.00000000000E+00  0.45593999997E+02  0.45594000000E+02  0.51100000000E-03 0. -1.
         11   -1    0    0    0    0 -0.00000000000E+00 -0.00000000000E+00 -0.45593999997E+02  0.45594000000E+02  0.51100000000E-03 0.  1.
    9900012    2    1    2    0    0 -0.14460869323E+02  0.35575422735E+02 -0.13358086153E+02  0.50528856993E+02  0.29999991317E+02 0.  0.
         12    1    1    2    0    0  0.14460869323E+02 -0.35575422735E+02  0.13358086153E+02  0.40659143007E+02  0.00000000000E+00 0. -1.
         11    1    3    3    0    0  0.65810350285E+01  0.71968525161E+01 -0.92867995480E+01  0.13466601438E+02  0.51100000000E-03 0. -1.
        -11    1    3    3    0    0 -0.11364131926E+02  0.22259190131E+02 -0.52944815765E+01  0.25546948451E+02  0.51100000000E-03 0.  1.
         12    1    3    3    0    0 -0.96777724248E+01  0.61193800886E+01  0.12231949716E+01  0.11515307105E+02  0.00000000000E+00 0. -1.
</event>
<event>
 7    1  0.5946946E-013  0.5052886E+02  0.7816164E-02  0.1300439E+00
        -11   -1    0    0    0    0  0.00000000000E+00  0.00000000000E+00  0.45593999997E+02  0.45594000000E+02  0.51100000000E-03 0. -1.
         11   -1    0    0    0    0 -0.00000000000E+00 -0.00000000000E+00 -0.45593999997E+02  0.45594000000E+02  0.51100000000E-03 0.  1.
    9900012    2    1    2    0    0  0.33276995472E+02  0.16963685154E+02 -0.16063647939E+02  0.50528858017E+02  0.29999994430E+02 0.  0.
         12    1    1    2    0    0 -0.33276995472E+02 -0.16963685154E+02  0.16063647939E+02  0.40659141983E+02  0.00000000000E+00 0. -1.
         11    1    3    3    0    0  0.11533369052E+02  0.38342104968E+01  0.24766331126E+01  0.12403768930E+02  0.51100000000E-03 0. -1.
        -11    1    3    3    0    0  0.43735154432E+01  0.54305157699E+01 -0.17793107832E+02  0.19110542259E+02  0.51100000000E-03 0.  1.
        -12    1    3    3    0    0  0.17370110976E+02  0.76989588875E+01 -0.74717322014E+00  0.19014546829E+02  0.00000000000E+00 0.  1.
</event>
<event>
 7    1  0.5946946E-013  0.5052886E+02  0.7816164E-02  0.1300439E+00
        -11   -1    0    0    0    0  0.00000000000E+00  0.00000000000E+00  0.45593999997E+02  0.45594000000E+02  0.51100000000E-03 0.  1.
         11   -1    0    0    0    0 -0.00000000000E+00 -0.00000000000E+00 -0.45593999997E+02  0.45594000000E+02  0.51100000000E-03 0. -1.
    9900012    2    1    2    0    0  0.39258206209E+02  0.19916439629E+01  0.10391934899E+02  0.50528859436E+02  0.29999998742E+02 0.  0.
         12    1    1    2    0    0 -0.39258206209E+02 -0.19916439629E+01 -0.10391934899E+02  0.40659140564E+02  0.00000000000E+00 0. -1.
         11    1    3    3    0    0  0.26360695681E+02  0.12359972208E+02  0.79625233343E+01  0.30183720246E+02  0.51100000000E-03 0.  1.
        -11    1    3    3    0    0  0.14283963417E+02 -0.64561053916E+01  0.34945104103E+01  0.16060028362E+02  0.51100000000E-03 0. -1.
         12    1    3    3    0    0 -0.13864528885E+01 -0.39122228531E+01 -0.10650988451E+01  0.42851108286E+01  0.00000000000E+00 0. -1.
</event>
<event>
 7    1  0.5946946E-013  0.5052886E+02  0.7816164E-02  0.1300439E+00
        -11   -1    0    0    0    0  0.00000000000E+00  0.00000000000E+00  0.45593999997E+02  0.45594000000E+02  0.51100000000E-03 0.  1.
         11   -1    0    0    0    0 -0.00000000000E+00 -0.00000000000E+00 -0.45593999997E+02  0.45594000000E+02  0.51100000000E-03 0. -1.
    9900012    2    1    2    0    0  0.77896931663E+01  0.20953065666E+02  0.33962556521E+02  0.50528861717E+02  0.30000005676E+02 0.  0.
         12    1    1    2    0    0 -0.77896931663E+01 -0.20953065666E+02 -0.33962556521E+02  0.40659138283E+02  0.00000000000E+00 0. -1.
         11    1    3    3    0    0 -0.97599807065E+01  0.33648131379E+01  0.12142360605E+02  0.15937882926E+02  0.51100000000E-03 0. -1.
        -11    1    3    3    0    0  0.91593746655E+01  0.24965612759E+01  0.90354062079E+01  0.13105934842E+02  0.51100000000E-03 0.  1.
         12    1    3    3    0    0  0.83902992073E+01  0.15091691252E+02  0.12784789708E+02  0.21485043950E+02  0.00000000000E+00 0. -1.
</event>
<event>
 7    1  0.5946946E-013  0.5052886E+02  0.7816164E-02  0.1300439E+00
        -11   -1    0    0    0    0  0.00000000000E+00  0.00000000000E+00  0.45593999997E+02  0.45594000000E+02  0.51100000000E-03 0.  1.
         11   -1    0    0    0    0 -0.00000000000E+00 -0.00000000000E+00 -0.45593999997E+02  0.45594000000E+02  0.51100000000E-03 0. -1.
    9900012    2    1    2    0    0  0.24167440341E+02 -0.21868820528E+02  0.24307512667E+02  0.50528860118E+02  0.30000000814E+02 0.  0.
         12    1    1    2    0    0 -0.24167440341E+02  0.21868820528E+02 -0.24307512667E+02  0.40659139882E+02  0.00000000000E+00 0. -1.
         11    1    3    3    0    0  0.45301851235E+01 -0.34401621489E+01 -0.38607617804E+00  0.57014338495E+01  0.51100000000E-03 0. -1.
        -11    1    3    3    0    0  0.12043670382E+02 -0.57975418187E+01  0.26791679361E+02  0.29940867901E+02  0.51100000000E-03 0.  1.
        -12    1    3    3    0    0  0.75935848353E+01 -0.12631116561E+02 -0.20980905163E+01  0.14886558368E+02  0.00000000000E+00 0.  1.
</event>
<event>
 7    1  0.5946946E-013  0.5052886E+02  0.7816164E-02  0.1300439E+00
        -11   -1    0    0    0    0  0.00000000000E+00  0.00000000000E+00  0.45593999997E+02  0.45594000000E+02  0.51100000000E-03 0.  1.
         11   -1    0    0    0    0 -0.00000000000E+00 -0.00000000000E+00 -0.45593999997E+02  0.45594000000E+02  0.51100000000E-03 0. -1.
    9900012    2    1    2    0    0  0.33453764434E+02 -0.26167239560E+00  0.23107200123E+02  0.50528861731E+02  0.30000005717E+02 0.  0.
         12    1    1    2    0    0 -0.33453764434E+02  0.26167239560E+00 -0.23107200123E+02  0.40659138269E+02  0.00000000000E+00 0. -1.
         11    1    3    3    0    0  0.66450570141E+01 -0.45211608951E+01 -0.50590413940E+01  0.94969246942E+01  0.51100000000E-03 0. -1.
        -11    1    3    3    0    0  0.26907470069E+02  0.60524601224E+01  0.24254447946E+02  0.36727679813E+02  0.51100000000E-03 0.  1.
         12    1    3    3    0    0 -0.98762649134E-01 -0.17929716229E+01  0.39117935712E+01  0.43042572234E+01  0.00000000000E+00 0. -1.
</event>
<event>
 7    1  0.5946946E-013  0.5052886E+02  0.7816164E-02  0.1300439E+00
        -11   -1    0    0    0    0  0.00000000000E+00  0.00000000000E+00  0.45593999997E+02  0.45594000000E+02  0.51100000000E-03 0.  1.
         11   -1    0    0    0    0 -0.00000000000E+00 -0.00000000000E+00 -0.45593999997E+02  0.45594000000E+02  0.51100000000E-03 0. -1.
    9900012    2    1    2    0    0  0.40465205235E+02 -0.25754382063E+01  0.30165704656E+01  0.50528863093E+02  0.30000009857E+02 0.  0.
         12    1    1    2    0    0 -0.40465205235E+02  0.25754382063E+01 -0.30165704656E+01  0.40659136907E+02  0.00000000000E+00 0. -1.
         11    1    3    3    0    0  0.15176224263E+02  0.83888349264E+01  0.79412225703E+01  0.19072318959E+02  0.51100000000E-03 0. -1.
        -11    1    3    3    0    0  0.22740243884E+02 -0.48567269775E+01 -0.73824617530E+01  0.24396869279E+02  0.51100000000E-03 0.  1.
         12    1    3    3    0    0  0.25487370881E+01 -0.61075461552E+01  0.24578096483E+01  0.70596748544E+01  0.00000000000E+00 0. -1.
</event>
<event>
 7    1  0.5946946E-013  0.5052886E+02  0.7816164E-02  0.1300439E+00
        -11   -1    0    0    0    0  0.00000000000E+00  0.00000000000E+00  0.45593999997E+02  0.45594000000E+02  0.51100000000E-03 0. -1.
         11   -1    0    0    0    0 -0.00000000000E+00 -0.00000000000E+00 -0.45593999997E+02  0.45594000000E+02  0.51100000000E-03 0.  1.
    9900012    2    1    2    0    0  0.32428041067E+02  0.15178065476E+02 -0.19266913372E+02  0.50528862406E+02  0.30000007769E+02 0.  0.
         12    1    1    2    0    0 -0.32428041067E+02 -0.15178065476E+02  0.19266913372E+02  0.40659137594E+02  0.00000000000E+00 0. -1.
         11    1    3    3    0    0  0.10315849564E+02  0.14098630963E+02  0.35443369240E+01  0.17825556702E+02  0.51100000000E-03 0. -1.
        -11    1    3    3    0    0  0.10730070763E+02  0.43395675207E+01 -0.11948943933E+02  0.16635610185E+02  0.51100000000E-03 0.  1.
         12    1    3    3    0    0  0.11382120739E+02 -0.32601330078E+01 -0.10862306362E+02  0.16067695518E+02  0.00000000000E+00 0. -1.
</event>
<event>
 7    1  0.5946946E-013  0.5052888E+02  0.7816164E-02  0.1300439E+00
        -11   -1    0    0    0    0  0.00000000000E+00  0.00000000000E+00  0.45593999997E+02  0.45594000000E+02  0.51100000000E-03 0. -1.
         11   -1    0    0    0    0 -0.00000000000E+00 -0.00000000000E+00 -0.45593999997E+02  0.45594000000E+02  0.51100000000E-03 0.  1.
    9900012    2    1    2    0    0 -0.25295488111E+02  0.15630929793E+02 -0.27730417641E+02  0.50528883586E+02  0.30000072148E+02 0.  0.
         12    1    1    2    0    0  0.25295488111E+02 -0.15630929793E+02  0.27730417641E+02  0.40659116414E+02  0.00000000000E+00 0. -1.
         11    1    3    3    0    0 -0.22136067848E+02  0.12387222853E+02 -0.10925569501E+02  0.27619139360E+02  0.51100000000E-03 0. -1.
        -11    1    3    3    0    0 -0.25038191108E-01  0.89849855917E+01 -0.10574449508E+02  0.13876223393E+02  0.51100000000E-03 0.  1.
         12    1    3    3    0    0 -0.31343820718E+01 -0.57412786516E+01 -0.62303986327E+01  0.90335208335E+01  0.00000000000E+00 0. -1.
</event>
<event>
 7    1  0.5946946E-013  0.5052887E+02  0.7816164E-02  0.1300439E+00
        -11   -1    0    0    0    0  0.00000000000E+00  0.00000000000E+00  0.45593999997E+02  0.45594000000E+02  0.51100000000E-03 0.  1.
         11   -1    0    0    0    0 -0.00000000000E+00 -0.00000000000E+00 -0.45593999997E+02  0.45594000000E+02  0.51100000000E-03 0. -1.
    9900012    2    1    2    0    0 -0.61352626260E+01 -0.19220771834E+02  0.35299936382E+02  0.50528867865E+02  0.30000024362E+02 0.  0.
         12    1    1    2    0    0  0.61352626260E+01  0.19220771834E+02 -0.35299936382E+02  0.40659132135E+02  0.00000000000E+00 0. -1.
         11    1    3    3    0    0 -0.63772762108E+00  0.46594514859E+01 -0.15184181268E+01  0.49419407663E+01  0.51100000000E-03 0. -1.
        -11    1    3    3    0    0  0.26460707646E+01 -0.13092851443E+02  0.17776865767E+02  0.22236038455E+02  0.51100000000E-03 0.  1.
         12    1    3    3    0    0 -0.81436057696E+01 -0.10787371876E+02  0.19041488742E+02  0.23350888643E+02  0.00000000000E+00 0. -1.
</event>
<event>
 7    1  0.5946946E-013  0.5052887E+02  0.7816164E-02  0.1300439E+00
        -11   -1    0    0    0    0  0.00000000000E+00  0.00000000000E+00  0.45593999997E+02  0.45594000000E+02  0.51100000000E-03 0.  1.
         11   -1    0    0    0    0 -0.00000000000E+00 -0.00000000000E+00 -0.45593999997E+02  0.45594000000E+02  0.51100000000E-03 0. -1.
    9900012    2    1    2    0    0 -0.38928685692E+02  0.63193725542E+01 -0.98887880804E+01  0.50528866107E+02  0.30000019020E+02 0.  0.
         12    1    1    2    0    0  0.38928685692E+02 -0.63193725542E+01  0.98887880804E+01  0.40659133893E+02  0.00000000000E+00 0. -1.
         11    1    3    3    0    0  0.11844769820E+00 -0.72394863132E+00  0.42044163586E+01  0.42679325974E+01  0.51100000000E-03 0. -1.
        -11    1    3    3    0    0 -0.10339179530E+02  0.58487012934E+01 -0.12852702466E+02  0.17501368550E+02  0.51100000000E-03 0.  1.
        -12    1    3    3    0    0 -0.28707953861E+02  0.11946198921E+01 -0.12405019727E+01  0.28759564960E+02  0.00000000000E+00 0.  1.
</event>
<event>
 7    1  0.5946946E-013  0.5052886E+02  0.7816164E-02  0.1300439E+00
        -11   -1    0    0    0    0  0.00000000000E+00  0.00000000000E+00  0.45593999997E+02  0.45594000000E+02  0.51100000000E-03 0.  1.
         11   -1    0    0    0    0 -0.00000000000E+00 -0.00000000000E+00 -0.45593999997E+02  0.45594000000E+02  0.51100000000E-03 0. -1.
    9900012    2    1    2    0    0 -0.19953657263E+02 -0.28881066105E+02  0.20515871298E+02  0.50528863355E+02  0.30000010655E+02 0.  0.
         12    1    1    2    0    0  0.19953657263E+02  0.28881066105E+02 -0.20515871298E+02  0.40659136645E+02  0.00000000000E+00 0. -1.
         11    1    3    3    0    0 -0.90837185619E+01 -0.10783248038E+02  0.58170257899E+01  0.15252218542E+02  0.51100000000E-03 0. -1.
        -11    1    3    3    0    0 -0.50898154582E+01  0.54919864561E+01  0.15082484925E+01  0.76382557176E+01  0.51100000000E-03 0.  1.
        -12    1    3    3    0    0 -0.57801232430E+01 -0.23589804524E+02  0.13190597016E+02  0.27638389096E+02  0.00000000000E+00 0.  1.
</event>
<event>
 7    1  0.5946946E-013  0.5052888E+02  0.7816164E-02  0.1300439E+00
        -11   -1    0    0    0    0  0.00000000000E+00  0.00000000000E+00  0.45593999997E+02  0.45594000000E+02  0.51100000000E-03 0.  1.
         11   -1    0    0    0    0 -0.00000000000E+00 -0.00000000000E+00 -0.45593999997E+02  0.45594000000E+02  0.51100000000E-03 0. -1.
    9900012    2    1    2    0    0  0.33351475438E+02 -0.17032227352E+02  0.15834974418E+02  0.50528879285E+02  0.30000059076E+02 0.  0.
         12    1    1    2    0    0 -0.33351475438E+02  0.17032227352E+02 -0.15834974418E+02  0.40659120715E+02  0.00000000000E+00 0. -1.
         11    1    3    3    0    0  0.15384082211E+01  0.39540981119E+01  0.28300352043E+01  0.51000677694E+01  0.51100000000E-03 0. -1.
        -11    1    3    3    0    0  0.98811229433E+01 -0.17485303479E+02  0.11557337148E+02  0.23172062285E+02  0.51100000000E-03 0.  1.
        -12    1    3    3    0    0  0.21931944274E+02 -0.35010219854E+01  0.14476020664E+01  0.22256749230E+02  0.00000000000E+00 0.  1.
</event>
<event>
 7    1  0.5946946E-013  0.5052889E+02  0.7816164E-02  0.1300439E+00
        -11   -1    0    0    0    0  0.00000000000E+00  0.00000000000E+00  0.45593999997E+02  0.45594000000E+02  0.51100000000E-03 0.  1.
         11   -1    0    0    0    0 -0.00000000000E+00 -0.00000000000E+00 -0.45593999997E+02  0.45594000000E+02  0.51100000000E-03 0. -1.
    9900012    2    1    2    0    0  0.10707478240E+02  0.75279825088E+01  0.38494706174E+02  0.50528892603E+02  0.30000099557E+02 0.  0.
         12    1    1    2    0    0 -0.10707478240E+02 -0.75279825088E+01 -0.38494706174E+02  0.40659107397E+02  0.00000000000E+00 0. -1.
         11    1    3    3    0    0 -0.76585798479E+01  0.80288895096E+01  0.14422956028E+02  0.18197213328E+02  0.51100000000E-03 0. -1.
        -11    1    3    3    0    0  0.15391188560E+02 -0.16181880507E+00  0.24856616059E+02  0.29236385427E+02  0.51100000000E-03 0.  1.
        -12    1    3    3    0    0  0.29748695271E+01 -0.33908819569E+00 -0.78486591422E+00  0.30952938489E+01  0.00000000000E+00 0.  1.
</event>
<event>
 7    1  0.5946946E-013  0.5052886E+02  0.7816164E-02  0.1300439E+00
        -11   -1    0    0    0    0  0.00000000000E+00  0.00000000000E+00  0.45593999997E+02  0.45594000000E+02  0.51100000000E-03 0. -1.
         11   -1    0    0    0    0 -0.00000000000E+00 -0.00000000000E+00 -0.45593999997E+02  0.45594000000E+02  0.51100000000E-03 0.  1.
    9900012    2    1    2    0    0  0.31012978208E+02  0.26144205661E+02  0.28002914264E+01  0.50528856637E+02  0.29999990234E+02 0.  0.
         12    1    1    2    0    0 -0.31012978208E+02 -0.26144205661E+02 -0.28002914264E+01  0.40659143363E+02  0.00000000000E+00 0. -1.
         11    1    3    3    0    0  0.92775972102E+01 -0.23718517658E+00  0.73316920942E+01  0.11827247187E+02  0.51100000000E-03 0. -1.
        -11    1    3    3    0    0  0.16099637242E+02  0.25557209465E+02  0.17077112740E+01  0.30253686602E+02  0.51100000000E-03 0.  1.
         12    1    3    3    0    0  0.56357437553E+01  0.82418137206E+00 -0.62391119419E+01  0.84479228473E+01  0.00000000000E+00 0. -1.
</event>
<event>
 7    1  0.5946946E-013  0.5052886E+02  0.7816164E-02  0.1300439E+00
        -11   -1    0    0    0    0  0.00000000000E+00  0.00000000000E+00  0.45593999997E+02  0.45594000000E+02  0.51100000000E-03 0. -1.
         11   -1    0    0    0    0 -0.00000000000E+00 -0.00000000000E+00 -0.45593999997E+02  0.45594000000E+02  0.51100000000E-03 0.  1.
    9900012    2    1    2    0    0 -0.33498339369E+02  0.96038149054E+01  0.20947394272E+02  0.50528864150E+02  0.30000013072E+02 0.  0.
         12    1    1    2    0    0  0.33498339369E+02 -0.96038149054E+01 -0.20947394272E+02  0.40659135850E+02  0.00000000000E+00 0. -1.
         11    1    3    3    0    0 -0.81798782261E+01  0.54899867341E+01 -0.51759574768E+01  0.11128382551E+02  0.51100000000E-03 0. -1.
        -11    1    3    3    0    0 -0.24442991392E+02  0.20935434579E+01  0.16588102482E+02  0.29614319114E+02  0.51100000000E-03 0.  1.
         12    1    3    3    0    0 -0.87546975138E+00  0.20202847135E+01  0.95352492666E+01  0.97861624852E+01  0.00000000000E+00 0. -1.
</event>
<event>
 7    1  0.5946946E-013  0.5052885E+02  0.7816164E-02  0.1300439E+00
        -11   -1    0    0    0    0  0.00000000000E+00  0.00000000000E+00  0.45593999997E+02  0.45594000000E+02  0.51100000000E-03 0.  1.
         11   -1    0    0    0    0 -0.00000000000E+00 -0.00000000000E+00 -0.45593999997E+02  0.45594000000E+02  0.51100000000E-03 0. -1.
    9900012    2    1    2    0    0  0.30298830141E+02  0.23752158408E+02  0.13076008565E+02  0.50528854203E+02  0.29999982836E+02 0.  0.
         12    1    1    2    0    0 -0.30298830141E+02 -0.23752158408E+02 -0.13076008565E+02  0.40659145797E+02  0.00000000000E+00 0. -1.
         11    1    3    3    0    0  0.10277759737E+02  0.22995581272E+02  0.49134629602E+01  0.25662642533E+02  0.51100000000E-03 0. -1.
        -11    1    3    3    0    0  0.66135861298E+01 -0.55582909614E+01  0.36046999371E+01  0.93609818825E+01  0.51100000000E-03 0.  1.
        -12    1    3    3    0    0  0.13407484274E+02  0.63148680976E+01  0.45578456682E+01  0.15505229788E+02  0.00000000000E+00 0.  1.
</event>
<event>
 7    1  0.5946946E-013  0.5052884E+02  0.7816164E-02  0.1300439E+00
        -11   -1    0    0    0    0  0.00000000000E+00  0.00000000000E+00  0.45593999997E+02  0.45594000000E+02  0.51100000000E-03 0.  1.
         11   -1    0    0    0    0 -0.00000000000E+00 -0.00000000000E+00 -0.45593999997E+02  0.45594000000E+02  0.51100000000E-03 0. -1.
    9900012    2    1    2    0    0  0.25538935083E+02  0.31269064840E+02  0.48140737028E+01  0.50528844490E+02  0.29999953313E+02 0.  0.
         12    1    1    2    0    0 -0.25538935083E+02 -0.31269064840E+02 -0.48140737028E+01  0.40659155510E+02  0.00000000000E+00 0. -1.
         11    1    3    3    0    0  0.29154217388E+01  0.20195490006E+02  0.11327027313E+02  0.23337931539E+02  0.51100000000E-03 0. -1.
        -11    1    3    3    0    0  0.13871288947E+02  0.61119549065E+01  0.87267484059E-01  0.15158372792E+02  0.51100000000E-03 0.  1.
         12    1    3    3    0    0  0.87522243980E+01  0.49616199271E+01 -0.66002210939E+01  0.12032540160E+02  0.00000000000E+00 0. -1.
</event>
<event>
 7    1  0.6862103E-013  0.5052886E+02  0.7816164E-02  0.1300439E+00
        -11   -1    0    0    0    0  0.00000000000E+00  0.00000000000E+00  0.45593999997E+02  0.45594000000E+02  0.51100000000E-03 0. -1.
         11   -1    0    0    0    0 -0.00000000000E+00 -0.00000000000E+00 -0.45593999997E+02  0.45594000000E+02  0.51100000000E-03 0.  1.
    9900012    2    1    2    0    0  0.20745845316E+02 -0.32467446126E+02  0.12986177555E+02  0.50528856339E+02  0.29999989327E+02 0.  0.
         12    1    1    2    0    0 -0.20745845316E+02  0.32467446126E+02 -0.12986177555E+02  0.40659143661E+02  0.00000000000E+00 0. -1.
         11    1    3    3    0    0  0.31385043883E+01  0.29329592447E+01  0.40225812387E+01  0.58850335437E+01  0.51100000000E-03 0. -1.
        -11    1    3    3    0    0  0.22711587656E+01 -0.24820788691E+02  0.71199675935E+01  0.25921490161E+02  0.51100000000E-03 0.  1.
        -12    1    3    3    0    0  0.15336182162E+02 -0.10579616680E+02  0.18436287222E+01  0.18722332634E+02  0.00000000000E+00 0.  1.
</event>
<event>
 7    1  0.5946946E-013  0.5052884E+02  0.7816164E-02  0.1300439E+00
        -11   -1    0    0    0    0  0.00000000000E+00  0.00000000000E+00  0.45593999997E+02  0.45594000000E+02  0.51100000000E-03 0. -1.
         11   -1    0    0    0    0 -0.00000000000E+00 -0.00000000000E+00 -0.45593999997E+02  0.45594000000E+02  0.51100000000E-03 0.  1.
    9900012    2    1    2    0    0 -0.10979979896E+02 -0.35750262448E+02  0.15953863420E+02  0.50528843816E+02  0.29999951262E+02 0.  0.
         12    1    1    2    0    0  0.10979979896E+02  0.35750262448E+02 -0.15953863420E+02  0.40659156184E+02  0.00000000000E+00 0. -1.
         11    1    3    3    0    0  0.19704919133E+01  0.46372410285E+00 -0.16030591477E+01  0.25821846015E+01  0.51100000000E-03 0. -1.
        -11    1    3    3    0    0 -0.18541665698E+02 -0.33357599921E+02  0.16505361323E+02  0.41580642035E+02  0.51100000000E-03 0.  1.
        -12    1    3    3    0    0  0.55911938887E+01 -0.28563866294E+01  0.10515612449E+01  0.63660171795E+01  0.00000000000E+00 0.  1.
</event>
<event>
 7    1  0.5946946E-013  0.5052886E+02  0.7816164E-02  0.1300439E+00
        -11   -1    0    0    0    0  0.00000000000E+00  0.00000000000E+00  0.45593999997E+02  0.45594000000E+02  0.51100000000E-03 0.  1.
         11   -1    0    0    0    0 -0.00000000000E+00 -0.00000000000E+00 -0.45593999997E+02  0.45594000000E+02  0.51100000000E-03 0. -1.
    9900012    2    1    2    0    0  0.16431787376E+02  0.20222058310E+02  0.31212664017E+02  0.50528859900E+02  0.30000000151E+02 0.  0.
         12    1    1    2    0    0 -0.16431787376E+02 -0.20222058310E+02 -0.31212664017E+02  0.40659140100E+02  0.00000000000E+00 0. -1.
         11    1    3    3    0    0  0.11074128893E+02  0.24954136142E+02  0.20813941107E+02  0.34330240110E+02  0.51100000000E-03 0. -1.
        -11    1    3    3    0    0  0.59537966567E+01 -0.42402135213E+01  0.12209270793E+02  0.14230017530E+02  0.51100000000E-03 0.  1.
         12    1    3    3    0    0 -0.59613817435E+00 -0.49186431067E+00 -0.18105478828E+01  0.19686022602E+01  0.00000000000E+00 0. -1.
</event>
<event>
 7    1  0.5946946E-013  0.5052878E+02  0.7816164E-02  0.1300439E+00
        -11   -1    0    0    0    0  0.00000000000E+00  0.00000000000E+00  0.45593999997E+02  0.45594000000E+02  0.51100000000E-03 0.  1.
         11   -1    0    0    0    0 -0.00000000000E+00 -0.00000000000E+00 -0.45593999997E+02  0.45594000000E+02  0.51100000000E-03 0. -1.
    9900012    2    1    2    0    0 -0.14135775646E+02  0.17384906143E+02  0.33928121723E+02  0.50528775237E+02  0.29999742809E+02 0.  0.
         12    1    1    2    0    0  0.14135775646E+02 -0.17384906143E+02 -0.33928121723E+02  0.40659224763E+02  0.00000000000E+00 0. -1.
         11    1    3    3    0    0  0.43627302212E+01  0.12474435037E+02  0.12196092680E+02  0.17983037046E+02  0.51100000000E-03 0. -1.
        -11    1    3    3    0    0 -0.13128711850E+02  0.10236816931E+02  0.15478580339E+02  0.22731958677E+02  0.51100000000E-03 0.  1.
         12    1    3    3    0    0 -0.53697940173E+01 -0.53263458262E+01  0.62534487040E+01  0.98137795136E+01  0.00000000000E+00 0. -1.
</event>
<event>
 7    1  0.5946946E-013  0.5052886E+02  0.7816164E-02  0.1300439E+00
        -11   -1    0    0    0    0  0.00000000000E+00  0.00000000000E+00  0.45593999997E+02  0.45594000000E+02  0.51100000000E-03 0. -1.
         11   -1    0    0    0    0 -0.00000000000E+00 -0.00000000000E+00 -0.45593999997E+02  0.45594000000E+02  0.51100000000E-03 0.  1.
    9900012    2    1    2    0    0 -0.20324514546E+02 -0.51094886770E+01 -0.34842115056E+02  0.50528858991E+02  0.29999997389E+02 0.  0.
         12    1    1    2    0    0  0.20324514546E+02  0.51094886770E+01  0.34842115056E+02  0.40659141009E+02  0.00000000000E+00 0. -1.
         11    1    3    3    0    0 -0.54779914208E+01  0.62832210935E+01 -0.77407844415E-01  0.83362611254E+01  0.51100000000E-03 0. -1.
        -11    1    3    3    0    0 -0.73404953631E+01 -0.88484242569E+01 -0.31656228717E+02  0.33679285932E+02  0.51100000000E-03 0.  1.
         12    1    3    3    0    0 -0.75060277617E+01 -0.25442855137E+01 -0.31084784938E+01  0.85133119337E+01  0.00000000000E+00 0. -1.
</event>
<event>
 7    1  0.5946946E-013  0.5052889E+02  0.7816164E-02  0.1300439E+00
        -11   -1    0    0    0    0  0.00000000000E+00  0.00000000000E+00  0.45593999997E+02  0.45594000000E+02  0.51100000000E-03 0. -1.
         11   -1    0    0    0    0 -0.00000000000E+00 -0.00000000000E+00 -0.45593999997E+02  0.45594000000E+02  0.51100000000E-03 0.  1.
    9900012    2    1    2    0    0 -0.12119317963E+02  0.31671415431E+02 -0.22432279395E+02  0.50528885621E+02  0.30000078333E+02 0.  0.
         12    1    1    2    0    0  0.12119317963E+02 -0.31671415431E+02  0.22432279395E+02  0.40659114379E+02  0.00000000000E+00 0. -1.
         11    1    3    3    0    0 -0.44757030589E+01  0.31111012598E+02 -0.17459546320E+02  0.35955010509E+02  0.51100000000E-03 0. -1.
        -11    1    3    3    0    0 -0.12358638285E+01 -0.34275136281E+01 -0.59362858448E+01  0.69652493829E+01  0.51100000000E-03 0.  1.
         12    1    3    3    0    0 -0.64077510756E+01  0.39879164603E+01  0.96355276980E+00  0.76086257289E+01  0.00000000000E+00 0. -1.
</event>
<event>
 7    1  0.5946946E-013  0.5052886E+02  0.7816164E-02  0.1300439E+00
        -11   -1    0    0    0    0  0.00000000000E+00  0.00000000000E+00  0.45593999997E+02  0.45594000000E+02  0.51100000000E-03 0.  1.
         11   -1    0    0    0    0 -0.00000000000E+00 -0.00000000000E+00 -0.45593999997E+02  0.45594000000E+02  0.51100000000E-03 0. -1.
    9900012    2    1    2    0    0  0.30969152728E+02 -0.18443027135E+02  0.18813070693E+02  0.50528864501E+02  0.30000014139E+02 0.  0.
         12    1    1    2    0    0 -0.30969152728E+02  0.18443027135E+02 -0.18813070693E+02  0.40659135499E+02  0.00000000000E+00 0. -1.
         11    1    3    3    0    0 -0.11047304033E+01 -0.73171032738E+01  0.89385038846E+01  0.11604192412E+02  0.51100000000E-03 0.  1.
        -11    1    3    3    0    0  0.18459567227E+02 -0.10412743487E+02 -0.13907833554E+01  0.21239470985E+02  0.51100000000E-03 0. -1.
        -12    1    3    3    0    0  0.13614315904E+02 -0.71318037486E+00  0.11265350163E+02  0.17685201104E+02  0.00000000000E+00 0.  1.
</event>
<event>
 7    1  0.5946946E-013  0.5052886E+02  0.7816164E-02  0.1300439E+00
        -11   -1    0    0    0    0  0.00000000000E+00  0.00000000000E+00  0.45593999997E+02  0.45594000000E+02  0.51100000000E-03 0. -1.
         11   -1    0    0    0    0 -0.00000000000E+00 -0.00000000000E+00 -0.45593999997E+02  0.45594000000E+02  0.51100000000E-03 0.  1.
    9900012    2    1    2    0    0 -0.32208637948E+02 -0.97021738829E+01 -0.22839379233E+02  0.50528858589E+02  0.29999996169E+02 0.  0.
         12    1    1    2    0    0  0.32208637948E+02  0.97021738829E+01  0.22839379233E+02  0.40659141411E+02  0.00000000000E+00 0. -1.
         11    1    3    3    0    0 -0.17737407908E+02  0.53980964918E+01 -0.63118522484E+01  0.19585570303E+02  0.51100000000E-03 0. -1.
        -11    1    3    3    0    0 -0.97349288463E+00 -0.89960921185E+01 -0.41840816273E+00  0.90582794974E+01  0.51100000000E-03 0.  1.
        -12    1    3    3    0    0 -0.13497737156E+02 -0.61041782562E+01 -0.16109118822E+02  0.21885008789E+02  0.00000000000E+00 0.  1.
</event>
<event>
 7    1  0.5946946E-013  0.5052886E+02  0.7816164E-02  0.1300439E+00
        -11   -1    0    0    0    0  0.00000000000E+00  0.00000000000E+00  0.45593999997E+02  0.45594000000E+02  0.51100000000E-03 0. -1.
         11   -1    0    0    0    0 -0.00000000000E+00 -0.00000000000E+00 -0.45593999997E+02  0.45594000000E+02  0.51100000000E-03 0.  1.
    9900012    2    1    2    0    0 -0.38243979511E+02 -0.12611142144E+02 -0.56145134774E+01  0.50528860356E+02  0.30000001537E+02 0.  0.
         12    1    1    2    0    0  0.38243979511E+02  0.12611142144E+02  0.56145134774E+01  0.40659139644E+02  0.00000000000E+00 0. -1.
         11    1    3    3    0    0 -0.77843768181E+01 -0.13224326308E+01  0.51632651604E+01  0.94342279963E+01  0.51100000000E-03 0. -1.
        -11    1    3    3    0    0 -0.11619625217E+02 -0.11927223060E+02 -0.14262183293E+02  0.21924511686E+02  0.51100000000E-03 0.  1.
        -12    1    3    3    0    0 -0.18839977476E+02  0.63851354628E+00  0.34844046552E+01  0.19170120674E+02  0.00000000000E+00 0.  1.
</event>
<event>
 7    1  0.5946946E-013  0.5052887E+02  0.7816164E-02  0.1300439E+00
        -11   -1    0    0    0    0  0.00000000000E+00  0.00000000000E+00  0.45593999997E+02  0.45594000000E+02  0.51100000000E-03 0.  1.
         11   -1    0    0    0    0 -0.00000000000E+00 -0.00000000000E+00 -0.45593999997E+02  0.45594000000E+02  0.51100000000E-03 0. -1.
    9900012    2    1    2    0    0 -0.11492244832E+01  0.25262019370E+02 -0.31838258537E+02  0.50528867616E+02  0.30000023604E+02 0.  0.
         12    1    1    2    0    0  0.11492244832E+01 -0.25262019370E+02  0.31838258537E+02  0.40659132384E+02  0.00000000000E+00 0. -1.
         11    1    3    3    0    0 -0.81786892234E+01  0.40169257817E+01 -0.77617485769E-01  0.91122266699E+01  0.51100000000E-03 0. -1.
        -11    1    3    3    0    0  0.51524149117E+01  0.20120806964E+02 -0.32932093529E+02  0.38934779269E+02  0.51100000000E-03 0.  1.
         12    1    3    3    0    0  0.18770498285E+01  0.11242866249E+01  0.11714524777E+01  0.24818616764E+01  0.00000000000E+00 0. -1.
</event>
<event>
 7    1  0.5946946E-013  0.5052886E+02  0.7816164E-02  0.1300439E+00
        -11   -1    0    0    0    0  0.00000000000E+00  0.00000000000E+00  0.45593999997E+02  0.45594000000E+02  0.51100000000E-03 0.  1.
         11   -1    0    0    0    0 -0.00000000000E+00 -0.00000000000E+00 -0.45593999997E+02  0.45594000000E+02  0.51100000000E-03 0. -1.
    9900012    2    1    2    0    0  0.34342121815E+02  0.11858451187E+02  0.18252702537E+02  0.50528863939E+02  0.30000012430E+02 0.  0.
         12    1    1    2    0    0 -0.34342121815E+02 -0.11858451187E+02 -0.18252702537E+02  0.40659136061E+02  0.00000000000E+00 0. -1.
         11    1    3    3    0    0  0.33290930160E+01  0.13060358981E+02  0.62974229508E+01  0.14876604892E+02  0.51100000000E-03 0. -1.
        -11    1    3    3    0    0  0.28833332201E+02 -0.46481604316E+01  0.88193372223E+01  0.30508148920E+02  0.51100000000E-03 0.  1.
        -12    1    3    3    0    0  0.21796965981E+01  0.34462526368E+01  0.31359423640E+01  0.51441101278E+01  0.00000000000E+00 0.  1.
</event>
<event>
 7    1  0.5946946E-013  0.5052887E+02  0.7816164E-02  0.1300439E+00
        -11   -1    0    0    0    0  0.00000000000E+00  0.00000000000E+00  0.45593999997E+02  0.45594000000E+02  0.51100000000E-03 0.  1.
         11   -1    0    0    0    0 -0.00000000000E+00 -0.00000000000E+00 -0.45593999997E+02  0.45594000000E+02  0.51100000000E-03 0. -1.
    9900012    2    1    2    0    0 -0.85941834122E+01 -0.12631910840E+02  0.37679433381E+02  0.50528869907E+02  0.30000030569E+02 0.  0.
         12    1    1    2    0    0  0.85941834122E+01  0.12631910840E+02 -0.37679433381E+02  0.40659130093E+02  0.00000000000E+00 0. -1.
         11    1    3    3    0    0 -0.11972847437E+02 -0.15935583322E+02  0.10218372187E+02  0.22398817424E+02  0.51100000000E-03 0. -1.
        -11    1    3    3    0    0  0.28405085468E+01  0.27981970991E+00  0.16577278583E+02  0.16821205467E+02  0.51100000000E-03 0.  1.
         12    1    3    3    0    0  0.53815547821E+00  0.30238527722E+01  0.10883782611E+02  0.11308847016E+02  0.00000000000E+00 0. -1.
</event>
<event>
 7    1  0.5946946E-013  0.5052885E+02  0.7816164E-02  0.1300439E+00
        -11   -1    0    0    0    0  0.00000000000E+00  0.00000000000E+00  0.45593999997E+02  0.45594000000E+02  0.51100000000E-03 0.  1.
         11   -1    0    0    0    0 -0.00000000000E+00 -0.00000000000E+00 -0.45593999997E+02  0.45594000000E+02  0.51100000000E-03 0. -1.
    9900012    2    1    2    0    0 -0.38768539816E+02  0.12243583513E+02 -0.51094701958E+00  0.50528854859E+02  0.29999984830E+02 0.  0.
         12    1    1    2    0    0  0.38768539816E+02 -0.12243583513E+02  0.51094701958E+00  0.40659145141E+02  0.00000000000E+00 0. -1.
         11    1    3    3    0    0 -0.79978357663E+01 -0.48143133489E+01 -0.78242677919E+00  0.93677735825E+01  0.51100000000E-03 0. -1.
        -11    1    3    3    0    0 -0.53955105769E+01  0.13572116828E+02  0.43173478574E+01  0.15230015836E+02  0.51100000000E-03 0.  1.
        -12    1    3    3    0    0 -0.25375193473E+02  0.34857800342E+01 -0.40458680977E+01  0.25931065441E+02  0.00000000000E+00 0.  1.
</event>
<event>
 7    1  0.5946946E-013  0.5052885E+02  0.7816164E-02  0.1300439E+00
        -11   -1    0    0    0    0  0.00000000000E+00  0.00000000000E+00  0.45593999997E+02  0.45594000000E+02  0.51100000000E-03 0.  1.
         11   -1    0    0    0    0 -0.00000000000E+00 -0.00000000000E+00 -0.45593999997E+02  0.45594000000E+02  0.51100000000E-03 0. -1.
    9900012    2    1    2    0    0  0.33910979175E+02  0.71284345185E+01  0.21269628868E+02  0.50528853434E+02  0.29999980499E+02 0.  0.
         12    1    1    2    0    0 -0.33910979175E+02 -0.71284345185E+01 -0.21269628868E+02  0.40659146566E+02  0.00000000000E+00 0. -1.
         11    1    3    3    0    0 -0.20908700393E+01  0.71933652736E+01  0.55298347110E+01  0.93110318264E+01  0.51100000000E-03 0. -1.
        -11    1    3    3    0    0  0.27446594035E+02 -0.45845695835E+01  0.14742415511E+02  0.31490833869E+02  0.51100000000E-03 0.  1.
         12    1    3    3    0    0  0.85552551790E+01  0.45196388284E+01  0.99737864614E+00  0.97269877393E+01  0.00000000000E+00 0. -1.
</event>
<event>
 7    1  0.5946946E-013  0.5052885E+02  0.7816164E-02  0.1300439E+00
        -11   -1    0    0    0    0  0.00000000000E+00  0.00000000000E+00  0.45593999997E+02  0.45594000000E+02  0.51100000000E-03 0.  1.
         11   -1    0    0    0    0 -0.00000000000E+00 -0.00000000000E+00 -0.45593999997E+02  0.45594000000E+02  0.51100000000E-03 0. -1.
    9900012    2    1    2    0    0  0.33582564667E+02 -0.22268915426E+02  0.54288968426E+01  0.50528853861E+02  0.29999981795E+02 0.  0.
         12    1    1    2    0    0 -0.33582564667E+02  0.22268915426E+02 -0.54288968426E+01  0.40659146139E+02  0.00000000000E+00 0. -1.
         11    1    3    3    0    0  0.47380994253E+01 -0.16880746028E+02  0.29672961993E+00  0.17535598688E+02  0.51100000000E-03 0. -1.
        -11    1    3    3    0    0  0.24411500429E+02 -0.72414861403E+01  0.88083774483E+01  0.26943421985E+02  0.51100000000E-03 0.  1.
         12    1    3    3    0    0  0.44329648128E+01  0.18533167424E+01 -0.36762102256E+01  0.60498331880E+01  0.00000000000E+00 0. -1.
</event>
<event>
 7    1  0.5946946E-013  0.5052885E+02  0.7816164E-02  0.1300439E+00
        -11   -1    0    0    0    0  0.00000000000E+00  0.00000000000E+00  0.45593999997E+02  0.45594000000E+02  0.51100000000E-03 0.  1.
         11   -1    0    0    0    0 -0.00000000000E+00 -0.00000000000E+00 -0.45593999997E+02  0.45594000000E+02  0.51100000000E-03 0. -1.
    9900012    2    1    2    0    0  0.22885880139E+02  0.72024717034E+01  0.32825712126E+02  0.50528849923E+02  0.29999969827E+02 0.  0.
         12    1    1    2    0    0 -0.22885880139E+02 -0.72024717034E+01 -0.32825712126E+02  0.40659150077E+02  0.00000000000E+00 0. -1.
         11    1    3    3    0    0  0.10641525868E+02 -0.84199493983E+01  0.64587568321E+01  0.15028411784E+02  0.51100000000E-03 0. -1.
        -11    1    3    3    0    0  0.14812035388E+02  0.13870910556E+02  0.24721408130E+02  0.31983535955E+02  0.51100000000E-03 0.  1.
         12    1    3    3    0    0 -0.25676811169E+01  0.17515105455E+01  0.16455471641E+01  0.35169021849E+01  0.00000000000E+00 0. -1.
</event>
<event>
 7    1  0.5946946E-013  0.5052887E+02  0.7816164E-02  0.1300439E+00
        -11   -1    0    0    0    0  0.00000000000E+00  0.00000000000E+00  0.45593999997E+02  0.45594000000E+02  0.51100000000E-03 0.  1.
         11   -1    0    0    0    0 -0.00000000000E+00 -0.00000000000E+00 -0.45593999997E+02  0.45594000000E+02  0.51100000000E-03 0. -1.
    9900012    2    1    2    0    0  0.16056908775E+02  0.59968188281E+01  0.36869755488E+02  0.50528867874E+02  0.30000024390E+02 0.  0.
         12    1    1    2    0    0 -0.16056908775E+02 -0.59968188281E+01 -0.36869755488E+02  0.40659132126E+02  0.00000000000E+00 0. -1.
         11    1    3    3    0    0  0.11779109954E+02  0.79089581454E+01  0.12010088690E+02  0.18588740702E+02  0.51100000000E-03 0. -1.
        -11    1    3    3    0    0 -0.76198753475E+01  0.37762475316E+00  0.69702265242E+01  0.10333884015E+02  0.51100000000E-03 0.  1.
        -12    1    3    3    0    0  0.11897674168E+02 -0.22897640704E+01  0.17889440274E+02  0.21606243158E+02  0.00000000000E+00 0.  1.
</event>
<event>
 7    1  0.5946946E-013  0.5052887E+02  0.7816164E-02  0.1300439E+00
        -11   -1    0    0    0    0  0.00000000000E+00  0.00000000000E+00  0.45593999997E+02  0.45594000000E+02  0.51100000000E-03 0.  1.
         11   -1    0    0    0    0 -0.00000000000E+00 -0.00000000000E+00 -0.45593999997E+02  0.45594000000E+02  0.51100000000E-03 0. -1.
    9900012    2    1    2    0    0  0.35666029972E+02 -0.77827887452E+01  0.17903270119E+02  0.50528873404E+02  0.30000041198E+02 0.  0.
         12    1    1    2    0    0 -0.35666029972E+02  0.77827887452E+01 -0.17903270119E+02  0.40659126596E+02  0.00000000000E+00 0. -1.
         11    1    3    3    0    0  0.27142202860E+02 -0.34111829673E+01  0.56487140029E+01  0.27932835794E+02  0.51100000000E-03 0. -1.
        -11    1    3    3    0    0 -0.19579272490E+01 -0.30544083350E+01  0.11438821201E+02  0.12000396665E+02  0.51100000000E-03 0.  1.
        -12    1    3    3    0    0  0.10481754361E+02 -0.13171974428E+01  0.81573491494E+00  0.10595640945E+02  0.00000000000E+00 0.  1.
</event>
<event>
 7    1  0.5946946E-013  0.5052887E+02  0.7816164E-02  0.1300439E+00
        -11   -1    0    0    0    0  0.00000000000E+00  0.00000000000E+00  0.45593999997E+02  0.45594000000E+02  0.51100000000E-03 0.  1.
         11   -1    0    0    0    0 -0.00000000000E+00 -0.00000000000E+00 -0.45593999997E+02  0.45594000000E+02  0.51100000000E-03 0. -1.
    9900012    2    1    2    0    0 -0.32755261506E+02  0.21681667469E+02  0.10495872008E+02  0.50528865851E+02  0.30000018241E+02 0.  0.
         12    1    1    2    0    0  0.32755261506E+02 -0.21681667469E+02 -0.10495872008E+02  0.40659134149E+02  0.00000000000E+00 0. -1.
         11    1    3    3    0    0 -0.52940937828E+01  0.41767096494E+01 -0.63289653677E+01  0.92481422655E+01  0.51100000000E-03 0. -1.
        -11    1    3    3    0    0 -0.25206241271E+02  0.13081419020E+02  0.20566477377E+02  0.35063629512E+02  0.51100000000E-03 0.  1.
        -12    1    3    3    0    0 -0.22549264519E+01  0.44235387999E+01 -0.37416400021E+01  0.62170940738E+01  0.00000000000E+00 0.  1.
</event>
<event>
 7    1  0.5946946E-013  0.5052886E+02  0.7816164E-02  0.1300439E+00
        -11   -1    0    0    0    0  0.00000000000E+00  0.00000000000E+00  0.45593999997E+02  0.45594000000E+02  0.51100000000E-03 0.  1.
         11   -1    0    0    0    0 -0.00000000000E+00 -0.00000000000E+00 -0.45593999997E+02  0.45594000000E+02  0.51100000000E-03 0. -1.
    9900012    2    1    2    0    0  0.32638996653E+01  0.87380749664E+01  0.39574722518E+02  0.50528860099E+02  0.30000000756E+02 0.  0.
         12    1    1    2    0    0 -0.32638996653E+01 -0.87380749664E+01 -0.39574722518E+02  0.40659139901E+02  0.00000000000E+00 0. -1.
         11    1    3    3    0    0 -0.10218658486E+02  0.56086621589E+01  0.31784457258E+02  0.33854538779E+02  0.51100000000E-03 0. -1.
        -11    1    3    3    0    0  0.11037547411E+02  0.42825877722E+01  0.52018976379E+01  0.12931656900E+02  0.51100000000E-03 0.  1.
         12    1    3    3    0    0  0.24450107396E+01 -0.11531749646E+01  0.25883676216E+01  0.37426644200E+01  0.00000000000E+00 0. -1.
</event>
<event>
 7    1  0.5946946E-013  0.5052886E+02  0.7816164E-02  0.1300439E+00
        -11   -1    0    0    0    0  0.00000000000E+00  0.00000000000E+00  0.45593999997E+02  0.45594000000E+02  0.51100000000E-03 0.  1.
         11   -1    0    0    0    0 -0.00000000000E+00 -0.00000000000E+00 -0.45593999997E+02  0.45594000000E+02  0.51100000000E-03 0. -1.
    9900012    2    1    2    0    0 -0.35023711214E+02  0.18691320454E+02  0.87829366796E+01  0.50528858540E+02  0.29999996020E+02 0.  0.
         12    1    1    2    0    0  0.35023711214E+02 -0.18691320454E+02 -0.87829366796E+01  0.40659141460E+02  0.00000000000E+00 0. -1.
         11    1    3    3    0    0  0.44409725894E+01  0.33386356090E+01  0.12009905884E+01  0.56842857004E+01  0.51100000000E-03 0. -1.
        -11    1    3    3    0    0 -0.13693669329E+02  0.16852777690E-01 -0.76717624737E+00  0.13715153057E+02  0.51100000000E-03 0.  1.
         12    1    3    3    0    0 -0.25771014474E+02  0.15335832067E+02  0.83491223386E+01  0.31129419783E+02  0.00000000000E+00 0. -1.
</event>
<event>
 7    1  0.5946946E-013  0.5052885E+02  0.7816164E-02  0.1300439E+00
        -11   -1    0    0    0    0  0.00000000000E+00  0.00000000000E+00  0.45593999997E+02  0.45594000000E+02  0.51100000000E-03 0. -1.
         11   -1    0    0    0    0 -0.00000000000E+00 -0.00000000000E+00 -0.45593999997E+02  0.45594000000E+02  0.51100000000E-03 0.  1.
    9900012    2    1    2    0    0 -0.24489628684E+02  0.26164767214E+02 -0.19204928579E+02  0.50528852958E+02  0.29999979052E+02 0.  0.
         12    1    1    2    0    0  0.24489628684E+02 -0.26164767214E+02  0.19204928579E+02  0.40659147042E+02  0.00000000000E+00 0. -1.
         11    1    3    3    0    0  0.30599923585E+01  0.53618453389E+01 -0.95766525871E+01  0.11394086787E+02  0.51100000000E-03 0. -1.
        -11    1    3    3    0    0 -0.23787861677E+02  0.20834779325E+02 -0.12897258041E+02  0.34150983265E+02  0.51100000000E-03 0.  1.
         12    1    3    3    0    0 -0.37617593653E+01 -0.31857450287E-01  0.32689820493E+01  0.49837829065E+01  0.00000000000E+00 0. -1.
</event>
<event>
 7    1  0.5946946E-013  0.5052885E+02  0.7816164E-02  0.1300439E+00
        -11   -1    0    0    0    0  0.00000000000E+00  0.00000000000E+00  0.45593999997E+02  0.45594000000E+02  0.51100000000E-03 0.  1.
         11   -1    0    0    0    0 -0.00000000000E+00 -0.00000000000E+00 -0.45593999997E+02  0.45594000000E+02  0.51100000000E-03 0. -1.
    9900012    2    1    2    0    0  0.17789566442E+02  0.18630453474E+02  0.31457972840E+02  0.50528849418E+02  0.29999968291E+02 0.  0.
         12    1    1    2    0    0 -0.17789566442E+02 -0.18630453474E+02 -0.31457972840E+02  0.40659150582E+02  0.00000000000E+00 0. -1.
         11    1    3    3    0    0 -0.12955147348E+00  0.17576179023E+01 -0.38902380016E+01  0.42708261783E+01  0.51100000000E-03 0. -1.
        -11    1    3    3    0    0  0.57128820222E+01 -0.72774802152E-01  0.18690571165E+02  0.19544302697E+02  0.51100000000E-03 0.  1.
        -12    1    3    3    0    0  0.12206235893E+02  0.16945610374E+02  0.16657639677E+02  0.26713720543E+02  0.00000000000E+00 0.  1.
</event>
<event>
 7    1  0.5946946E-013  0.5052886E+02  0.7816164E-02  0.1300439E+00
        -11   -1    0    0    0    0  0.00000000000E+00  0.00000000000E+00  0.45593999997E+02  0.45594000000E+02  0.51100000000E-03 0. -1.
         11   -1    0    0    0    0 -0.00000000000E+00 -0.00000000000E+00 -0.45593999997E+02  0.45594000000E+02  0.51100000000E-03 0.  1.
    9900012    2    1    2    0    0 -0.32892749075E+02  0.13902626941E+02  0.19440936898E+02  0.50528855825E+02  0.29999987766E+02 0.  0.
         12    1    1    2    0    0  0.32892749075E+02 -0.13902626941E+02 -0.19440936898E+02  0.40659144175E+02  0.00000000000E+00 0. -1.
         11    1    3    3    0    0 -0.14981321425E+02  0.15230800535E+02  0.49269432365E+01  0.21924690340E+02  0.51100000000E-03 0. -1.
        -11    1    3    3    0    0  0.28970698079E-01 -0.60809041683E+01  0.39011723141E+01  0.72247754630E+01  0.51100000000E-03 0.  1.
        -12    1    3    3    0    0 -0.17940398347E+02  0.47527305752E+01  0.10612821347E+02  0.21379390022E+02  0.00000000000E+00 0.  1.
</event>
<event>
 7    1  0.5946946E-013  0.5052890E+02  0.7816164E-02  0.1300439E+00
        -11   -1    0    0    0    0  0.00000000000E+00  0.00000000000E+00  0.45593999997E+02  0.45594000000E+02  0.51100000000E-03 0. -1.
         11   -1    0    0    0    0 -0.00000000000E+00 -0.00000000000E+00 -0.45593999997E+02  0.45594000000E+02  0.51100000000E-03 0.  1.
    9900012    2    1    2    0    0  0.29728948053E+01  0.39161743835E+02 -0.10520575075E+02  0.50528895440E+02  0.30000108179E+02 0.  0.
         12    1    1    2    0    0 -0.29728948053E+01 -0.39161743835E+02  0.10520575075E+02  0.40659104560E+02  0.00000000000E+00 0. -1.
         11    1    3    3    0    0 -0.74824488137E+01  0.14545644218E+02 -0.88214194987E+01  0.18584408739E+02  0.51100000000E-03 0.  1.
        -11    1    3    3    0    0  0.87577476920E+01  0.43180122004E+01 -0.55253176884E+01  0.11219291859E+02  0.51100000000E-03 0. -1.
         12    1    3    3    0    0  0.16975959271E+01  0.20298087417E+02  0.38261621119E+01  0.20725194841E+02  0.00000000000E+00 0. -1.
</event>
<event>
 7    1  0.5946946E-013  0.5052886E+02  0.7816164E-02  0.1300439E+00
        -11   -1    0    0    0    0  0.00000000000E+00  0.00000000000E+00  0.45593999997E+02  0.45594000000E+02  0.51100000000E-03 0.  1.
         11   -1    0    0    0    0 -0.00000000000E+00 -0.00000000000E+00 -0.45593999997E+02  0.45594000000E+02  0.51100000000E-03 0. -1.
    9900012    2    1    2    0    0  0.21520246307E+02 -0.33246868547E+02  0.92027205977E+01  0.50528864056E+02  0.30000012785E+02 0.  0.
         12    1    1    2    0    0 -0.21520246307E+02  0.33246868547E+02 -0.92027205977E+01  0.40659135944E+02  0.00000000000E+00 0. -1.
         11    1    3    3    0    0  0.17516845375E+01 -0.18644960396E+01 -0.44539014074E+01  0.51363393783E+01  0.51100000000E-03 0. -1.
        -11    1    3    3    0    0  0.16758689043E+02 -0.34723927965E+02  0.13631294773E+02  0.40895195674E+02  0.51100000000E-03 0.  1.
        -12    1    3    3    0    0  0.30098727264E+01  0.33415554570E+01  0.25327231749E-01  0.44973290040E+01  0.00000000000E+00 0.  1.
</event>
<event>
 7    1  0.5946946E-013  0.5052882E+02  0.7816164E-02  0.1300439E+00
        -11   -1    0    0    0    0  0.00000000000E+00  0.00000000000E+00  0.45593999997E+02  0.45594000000E+02  0.51100000000E-03 0.  1.
         11   -1    0    0    0    0 -0.00000000000E+00 -0.00000000000E+00 -0.45593999997E+02  0.45594000000E+02  0.51100000000E-03 0. -1.
    9900012    2    1    2    0    0 -0.41876456942E+01  0.39606855584E+02  0.81810264383E+01  0.50528824168E+02  0.29999891542E+02 0.  0.
         12    1    1    2    0    0  0.41876456942E+01 -0.39606855584E+02 -0.81810264383E+01  0.40659175832E+02  0.00000000000E+00 0. -1.
         11    1    3    3    0    0 -0.62080133669E-01  0.29301848041E+02  0.15852163179E+02  0.33315060112E+02  0.51100000000E-03 0.  1.
        -11    1    3    3    0    0  0.98389505829E-01  0.44710552050E+01 -0.88496221671E+01  0.99154338233E+01  0.51100000000E-03 0. -1.
        -12    1    3    3    0    0 -0.42239550664E+01  0.58339523381E+01  0.11784854260E+01  0.72983302327E+01  0.00000000000E+00 0.  1.
</event>
<event>
 7    1  0.5946946E-013  0.5052888E+02  0.7816164E-02  0.1300439E+00
        -11   -1    0    0    0    0  0.00000000000E+00  0.00000000000E+00  0.45593999997E+02  0.45594000000E+02  0.51100000000E-03 0.  1.
         11   -1    0    0    0    0 -0.00000000000E+00 -0.00000000000E+00 -0.45593999997E+02  0.45594000000E+02  0.51100000000E-03 0. -1.
    9900012    2    1    2    0    0 -0.27223283084E+02  0.26950633987E+02  0.13627915686E+02  0.50528881710E+02  0.30000066445E+02 0.  0.
         12    1    1    2    0    0  0.27223283084E+02 -0.26950633987E+02 -0.13627915686E+02  0.40659118290E+02  0.00000000000E+00 0. -1.
         11    1    3    3    0    0 -0.17669594599E+02  0.38633649272E+01  0.49155959886E+01  0.18743085286E+02  0.51100000000E-03 0. -1.
        -11    1    3    3    0    0 -0.90347892467E+01  0.25671517689E+02  0.98120462405E+01  0.28929750930E+02  0.51100000000E-03 0.  1.
        -12    1    3    3    0    0 -0.51889923791E+00 -0.25842486287E+01 -0.10997265429E+01  0.28560454939E+01  0.00000000000E+00 0.  1.
</event>
<event>
 7    1  0.5946946E-013  0.5052886E+02  0.7816164E-02  0.1300439E+00
        -11   -1    0    0    0    0  0.00000000000E+00  0.00000000000E+00  0.45593999997E+02  0.45594000000E+02  0.51100000000E-03 0.  1.
         11   -1    0    0    0    0 -0.00000000000E+00 -0.00000000000E+00 -0.45593999997E+02  0.45594000000E+02  0.51100000000E-03 0. -1.
    9900012    2    1    2    0    0 -0.85024132310E+01 -0.88978202890E+00  0.39750255232E+02  0.50528861620E+02  0.30000005379E+02 0.  0.
         12    1    1    2    0    0  0.85024132310E+01  0.88978202890E+00 -0.39750255232E+02  0.40659138380E+02  0.00000000000E+00 0. -1.
         11    1    3    3    0    0 -0.44225765725E+01 -0.39164661314E+01 -0.12365034791E+01  0.60354644902E+01  0.51100000000E-03 0. -1.
        -11    1    3    3    0    0  0.39284540871E+01 -0.45116734220E+01  0.18824901632E+02  0.19752591483E+02  0.51100000000E-03 0.  1.
         12    1    3    3    0    0 -0.80082907456E+01  0.75383575245E+01  0.22161857079E+02  0.24740805646E+02  0.00000000000E+00 0. -1.
</event>
<event>
 7    1  0.6670855E-013  0.5052886E+02  0.7816164E-02  0.1300439E+00
        -11   -1    0    0    0    0  0.00000000000E+00  0.00000000000E+00  0.45593999997E+02  0.45594000000E+02  0.51100000000E-03 0. -1.
         11   -1    0    0    0    0 -0.00000000000E+00 -0.00000000000E+00 -0.45593999997E+02  0.45594000000E+02  0.51100000000E-03 0.  1.
    9900012    2    1    2    0    0 -0.11588599176E+02 -0.16391346225E+02 -0.35358074009E+02  0.50528864992E+02  0.30000015631E+02 0.  0.
         12    1    1    2    0    0  0.11588599176E+02  0.16391346225E+02  0.35358074009E+02  0.40659135008E+02  0.00000000000E+00 0. -1.
         11    1    3    3    0    0 -0.11944507740E+02 -0.11898681302E+02 -0.97734596959E+01  0.19487698596E+02  0.51100000000E-03 0. -1.
        -11    1    3    3    0    0  0.33995742877E+01 -0.78909402711E+01 -0.25007985345E+02  0.26442832204E+02  0.51100000000E-03 0.  1.
         12    1    3    3    0    0 -0.30436657234E+01  0.33982753477E+01 -0.57662896778E+00  0.45983341920E+01  0.00000000000E+00 0. -1.
</event>
<event>
 7    1  0.5946946E-013  0.5052886E+02  0.7816164E-02  0.1300439E+00
        -11   -1    0    0    0    0  0.00000000000E+00  0.00000000000E+00  0.45593999997E+02  0.45594000000E+02  0.51100000000E-03 0.  1.
         11   -1    0    0    0    0 -0.00000000000E+00 -0.00000000000E+00 -0.45593999997E+02  0.45594000000E+02  0.51100000000E-03 0. -1.
    9900012    2    1    2    0    0 -0.15194091400E+01 -0.12552489086E+02  0.38643140432E+02  0.50528857254E+02  0.29999992109E+02 0.  0.
         12    1    1    2    0    0  0.15194091400E+01  0.12552489086E+02 -0.38643140432E+02  0.40659142746E+02  0.00000000000E+00 0. -1.
         11    1    3    3    0    0 -0.10268280615E+02 -0.10477960657E+02  0.17395667016E+02  0.22755976743E+02  0.51100000000E-03 0. -1.
        -11    1    3    3    0    0  0.81146378268E+01 -0.78566716973E+01  0.17582257725E+02  0.20897617668E+02  0.51100000000E-03 0.  1.
         12    1    3    3    0    0  0.63423364866E+00  0.57821432684E+01  0.36652156913E+01  0.68752628431E+01  0.00000000000E+00 0. -1.
</event>
<event>
 7    1  0.5946946E-013  0.5052887E+02  0.7816164E-02  0.1300439E+00
        -11   -1    0    0    0    0  0.00000000000E+00  0.00000000000E+00  0.45593999997E+02  0.45594000000E+02  0.51100000000E-03 0. -1.
         11   -1    0    0    0    0 -0.00000000000E+00 -0.00000000000E+00 -0.45593999997E+02  0.45594000000E+02  0.51100000000E-03 0.  1.
    9900012    2    1    2    0    0 -0.33656123287E+02 -0.21411245697E+02  0.78733175986E+01  0.50528865639E+02  0.30000017595E+02 0.  0.
         12    1    1    2    0    0  0.33656123287E+02  0.21411245697E+02 -0.78733175986E+01  0.40659134361E+02  0.00000000000E+00 0. -1.
         11    1    3    3    0    0 -0.95591545246E+00 -0.10873500392E+02  0.98509088895E+00  0.10959798787E+02  0.51100000000E-03 0. -1.
        -11    1    3    3    0    0 -0.11537597621E+02  0.51121442870E+01  0.28950817942E+01  0.12947265230E+02  0.51100000000E-03 0.  1.
        -12    1    3    3    0    0 -0.21162610214E+02 -0.15649889592E+02  0.39931449154E+01  0.26621801622E+02  0.00000000000E+00 0.  1.
</event>
<event>
 7    1  0.5946946E-013  0.5052890E+02  0.7816164E-02  0.1300439E+00
        -11   -1    0    0    0    0  0.00000000000E+00  0.00000000000E+00  0.45593999997E+02  0.45594000000E+02  0.51100000000E-03 0.  1.
         11   -1    0    0    0    0 -0.00000000000E+00 -0.00000000000E+00 -0.45593999997E+02  0.45594000000E+02  0.51100000000E-03 0. -1.
    9900012    2    1    2    0    0  0.29941246307E+02  0.26291305934E+02  0.80902054492E+01  0.50528899883E+02  0.30000121683E+02 0.  0.
         12    1    1    2    0    0 -0.29941246307E+02 -0.26291305934E+02 -0.80902054492E+01  0.40659100117E+02  0.00000000000E+00 0. -1.
         11    1    3    3    0    0  0.55685939047E+01  0.21774418116E+02  0.82631634275E+01  0.23946072589E+02  0.51100000000E-03 0. -1.
        -11    1    3    3    0    0  0.43148738979E+01  0.45905839455E+01  0.14319417926E+01  0.64608091810E+01  0.51100000000E-03 0.  1.
         12    1    3    3    0    0  0.20057778504E+02 -0.73696126796E-01 -0.16048997709E+01  0.20122018113E+02  0.00000000000E+00 0. -1.
</event>
<event>
 7    1  0.5946946E-013  0.5052885E+02  0.7816164E-02  0.1300439E+00
        -11   -1    0    0    0    0  0.00000000000E+00  0.00000000000E+00  0.45593999997E+02  0.45594000000E+02  0.51100000000E-03 0. -1.
         11   -1    0    0    0    0 -0.00000000000E+00 -0.00000000000E+00 -0.45593999997E+02  0.45594000000E+02  0.51100000000E-03 0.  1.
    9900012    2    1    2    0    0 -0.30032472016E+02  0.24969381408E+02 -0.11302540203E+02  0.50528846070E+02  0.29999958113E+02 0.  0.
         12    1    1    2    0    0  0.30032472016E+02 -0.24969381408E+02  0.11302540203E+02  0.40659153930E+02  0.00000000000E+00 0. -1.
         11    1    3    3    0    0  0.16248084483E+01 -0.11938477141E+01  0.38953846580E+01  0.43862622759E+01  0.51100000000E-03 0. -1.
        -11    1    3    3    0    0 -0.16327366041E+02  0.11869674091E+02 -0.15055821602E+02  0.25182331290E+02  0.51100000000E-03 0.  1.
        -12    1    3    3    0    0 -0.15329914424E+02  0.14293555031E+02 -0.14210325937E+00  0.20960252503E+02  0.00000000000E+00 0.  1.
</event>
<event>
 7    1  0.5946946E-013  0.5052893E+02  0.7816164E-02  0.1300439E+00
        -11   -1    0    0    0    0  0.00000000000E+00  0.00000000000E+00  0.45593999997E+02  0.45594000000E+02  0.51100000000E-03 0.  1.
         11   -1    0    0    0    0 -0.00000000000E+00 -0.00000000000E+00 -0.45593999997E+02  0.45594000000E+02  0.51100000000E-03 0. -1.
    9900012    2    1    2    0    0  0.11297578758E+02  0.37271923321E+02 -0.11675974080E+02  0.50528930599E+02  0.30000215048E+02 0.  0.
         12    1    1    2    0    0 -0.11297578758E+02 -0.37271923321E+02  0.11675974080E+02  0.40659069401E+02  0.00000000000E+00 0. -1.
         11    1    3    3    0    0 -0.77683571898E-01  0.10130777003E+01 -0.37083270449E+01  0.38450033677E+01  0.51100000000E-03 0. -1.
        -11    1    3    3    0    0  0.97198415747E+01  0.40228189404E+02 -0.87807658804E+01  0.42307025335E+02  0.51100000000E-03 0.  1.
        -12    1    3    3    0    0  0.16554207556E+01 -0.39693437840E+01  0.81311884525E+00  0.43769018964E+01  0.00000000000E+00 0.  1.
</event>
<event>
 7    1  0.5946946E-013  0.5052886E+02  0.7816164E-02  0.1300439E+00
        -11   -1    0    0    0    0  0.00000000000E+00  0.00000000000E+00  0.45593999997E+02  0.45594000000E+02  0.51100000000E-03 0.  1.
         11   -1    0    0    0    0 -0.00000000000E+00 -0.00000000000E+00 -0.45593999997E+02  0.45594000000E+02  0.51100000000E-03 0. -1.
    9900012    2    1    2    0    0 -0.35154613654E+01  0.38849220728E+02  0.11469309507E+02  0.50528862277E+02  0.30000007377E+02 0.  0.
         12    1    1    2    0    0  0.35154613654E+01 -0.38849220728E+02 -0.11469309507E+02  0.40659137723E+02  0.00000000000E+00 0. -1.
         11    1    3    3    0    0 -0.29252537578E+01  0.11384036801E+02 -0.99181674631E+01  0.15379318890E+02  0.51100000000E-03 0. -1.
        -11    1    3    3    0    0 -0.21609497094E+01  0.19775778786E+02  0.16939782585E+02  0.26128669398E+02  0.51100000000E-03 0.  1.
        -12    1    3    3    0    0  0.15707421018E+01  0.76894051418E+01  0.44476943852E+01  0.90208739892E+01  0.00000000000E+00 0.  1.
</event>
<event>
 7    1  0.5946946E-013  0.5052885E+02  0.7816164E-02  0.1300439E+00
        -11   -1    0    0    0    0  0.00000000000E+00  0.00000000000E+00  0.45593999997E+02  0.45594000000E+02  0.51100000000E-03 0.  1.
         11   -1    0    0    0    0 -0.00000000000E+00 -0.00000000000E+00 -0.45593999997E+02  0.45594000000E+02  0.51100000000E-03 0. -1.
    9900012    2    1    2    0    0 -0.13265576562E+02 -0.31683318689E+02  0.21756804323E+02  0.50528846799E+02  0.29999960331E+02 0.  0.
         12    1    1    2    0    0  0.13265576562E+02  0.31683318689E+02 -0.21756804323E+02  0.40659153201E+02  0.00000000000E+00 0. -1.
         11    1    3    3    0    0  0.31118083737E+01 -0.13471188525E+01  0.14691365805E+02  0.15077609560E+02  0.51100000000E-03 0. -1.
        -11    1    3    3    0    0 -0.56525928992E+01 -0.14925784942E+02  0.35372403473E+01  0.16347566551E+02  0.51100000000E-03 0.  1.
         12    1    3    3    0    0 -0.10724792036E+02 -0.15410414894E+02  0.35281981713E+01  0.19103670688E+02  0.00000000000E+00 0. -1.
</event>
<event>
 7    1  0.5946946E-013  0.5052891E+02  0.7816164E-02  0.1300439E+00
        -11   -1    0    0    0    0  0.00000000000E+00  0.00000000000E+00  0.45593999997E+02  0.45594000000E+02  0.51100000000E-03 0.  1.
         11   -1    0    0    0    0 -0.00000000000E+00 -0.00000000000E+00 -0.45593999997E+02  0.45594000000E+02  0.51100000000E-03 0. -1.
    9900012    2    1    2    0    0 -0.29875323385E+01 -0.24217644153E+02  0.32522944013E+02  0.50528910917E+02  0.30000155222E+02 0.  0.
         12    1    1    2    0    0  0.29875323385E+01  0.24217644153E+02 -0.32522944013E+02  0.40659089083E+02  0.00000000000E+00 0. -1.
         11    1    3    3    0    0 -0.85524209789E+01 -0.80983407341E+00  0.59133873787E+01  0.10429184358E+02  0.51100000000E-03 0. -1.
        -11    1    3    3    0    0  0.26170540565E+01 -0.24602125370E+02  0.27302208701E+02  0.36844594513E+02  0.51100000000E-03 0.  1.
        -12    1    3    3    0    0  0.29478345839E+01  0.11943152906E+01 -0.69265206587E+00  0.32551320452E+01  0.00000000000E+00 0.  1.
</event>
<event>
 7    1  0.5946946E-013  0.5052887E+02  0.7816164E-02  0.1300439E+00
        -11   -1    0    0    0    0  0.00000000000E+00  0.00000000000E+00  0.45593999997E+02  0.45594000000E+02  0.51100000000E-03 0. -1.
         11   -1    0    0    0    0 -0.00000000000E+00 -0.00000000000E+00 -0.45593999997E+02  0.45594000000E+02  0.51100000000E-03 0.  1.
    9900012    2    1    2    0    0  0.39971140686E+02  0.72199470245E+01  0.18290066644E+01  0.50528868330E+02  0.30000025776E+02 0.  0.
         12    1    1    2    0    0 -0.39971140686E+02 -0.72199470245E+01 -0.18290066644E+01  0.40659131670E+02  0.00000000000E+00 0. -1.
         11    1    3    3    0    0  0.51519847483E+01  0.42182666634E+01 -0.54314161165E+01  0.85928459652E+01  0.51100000000E-03 0. -1.
        -11    1    3    3    0    0  0.30931091636E+02 -0.35724973748E+01 -0.37111507588E+00  0.31138928915E+02  0.51100000000E-03 0.  1.
        -12    1    3    3    0    0  0.38880643015E+01  0.65741777359E+01  0.76315378568E+01  0.10797093450E+02  0.00000000000E+00 0.  1.
</event>
<event>
 7    1  0.5946946E-013  0.5052886E+02  0.7816164E-02  0.1300439E+00
        -11   -1    0    0    0    0  0.00000000000E+00  0.00000000000E+00  0.45593999997E+02  0.45594000000E+02  0.51100000000E-03 0.  1.
         11   -1    0    0    0    0 -0.00000000000E+00 -0.00000000000E+00 -0.45593999997E+02  0.45594000000E+02  0.51100000000E-03 0. -1.
    9900012    2    1    2    0    0 -0.33577288977E+02 -0.16399187329E+02  0.16024916921E+02  0.50528860284E+02  0.30000001320E+02 0.  0.
         12    1    1    2    0    0  0.33577288977E+02  0.16399187329E+02 -0.16024916921E+02  0.40659139716E+02  0.00000000000E+00 0. -1.
         11    1    3    3    0    0  0.10833085569E+01 -0.52915666868E+00 -0.78420653148E+00  0.14382434963E+01  0.51100000000E-03 0. -1.
        -11    1    3    3    0    0 -0.33759242246E+02 -0.88707279082E+01  0.21142668597E+02  0.40809174046E+02  0.51100000000E-03 0.  1.
        -12    1    3    3    0    0 -0.90135528766E+00 -0.69993027520E+01 -0.43335451446E+01  0.82814427420E+01  0.00000000000E+00 0.  1.
</event>
<event>
 7    1  0.5946946E-013  0.5052885E+02  0.7816164E-02  0.1300439E+00
        -11   -1    0    0    0    0  0.00000000000E+00  0.00000000000E+00  0.45593999997E+02  0.45594000000E+02  0.51100000000E-03 0.  1.
         11   -1    0    0    0    0 -0.00000000000E+00 -0.00000000000E+00 -0.45593999997E+02  0.45594000000E+02  0.51100000000E-03 0. -1.
    9900012    2    1    2    0    0 -0.27713831158E+02  0.19745921648E+02  0.22253278821E+02  0.50528852475E+02  0.29999977584E+02 0.  0.
         12    1    1    2    0    0  0.27713831158E+02 -0.19745921648E+02 -0.22253278821E+02  0.40659147525E+02  0.00000000000E+00 0. -1.
         11    1    3    3    0    0 -0.76965500601E+01  0.12203847017E+02  0.18664640355E+01  0.14548348810E+02  0.51100000000E-03 0. -1.
        -11    1    3    3    0    0 -0.23438226418E+02  0.62943676814E+01  0.21228495344E+02  0.32243116118E+02  0.51100000000E-03 0.  1.
        -12    1    3    3    0    0  0.34209453205E+01  0.12477069496E+01 -0.84168055898E+00  0.37373875476E+01  0.00000000000E+00 0.  1.
</event>
<event>
 7    1  0.5946946E-013  0.5052886E+02  0.7816164E-02  0.1300439E+00
        -11   -1    0    0    0    0  0.00000000000E+00  0.00000000000E+00  0.45593999997E+02  0.45594000000E+02  0.51100000000E-03 0. -1.
         11   -1    0    0    0    0 -0.00000000000E+00 -0.00000000000E+00 -0.45593999997E+02  0.45594000000E+02  0.51100000000E-03 0.  1.
    9900012    2    1    2    0    0 -0.37990342863E+02  0.10326384206E+02 -0.10161955052E+02  0.50528859673E+02  0.29999999463E+02 0.  0.
         12    1    1    2    0    0  0.37990342863E+02 -0.10326384206E+02  0.10161955052E+02  0.40659140327E+02  0.00000000000E+00 0. -1.
         11    1    3    3    0    0  0.96714894109E+00  0.68453414756E+01 -0.67737313041E+01  0.96787144308E+01  0.51100000000E-03 0. -1.
        -11    1    3    3    0    0 -0.31262624519E+02  0.23614668002E+01  0.19594785481E+01  0.31412860005E+02  0.51100000000E-03 0.  1.
        -12    1    3    3    0    0 -0.76948672851E+01  0.11195759302E+01 -0.53477022959E+01  0.94372852370E+01  0.00000000000E+00 0.  1.
</event>
<event>
 7    1  0.5946946E-013  0.5052886E+02  0.7816164E-02  0.1300439E+00
        -11   -1    0    0    0    0  0.00000000000E+00  0.00000000000E+00  0.45593999997E+02  0.45594000000E+02  0.51100000000E-03 0. -1.
         11   -1    0    0    0    0 -0.00000000000E+00 -0.00000000000E+00 -0.45593999997E+02  0.45594000000E+02  0.51100000000E-03 0.  1.
    9900012    2    1    2    0    0 -0.38973398740E+02  0.11513163218E+02 -0.12986755398E+01  0.50528864560E+02  0.30000014315E+02 0.  0.
         12    1    1    2    0    0  0.38973398740E+02 -0.11513163218E+02  0.12986755398E+01  0.40659135440E+02  0.00000000000E+00 0. -1.
         11    1    3    3    0    0 -0.33372111429E+02  0.17071574619E+02  0.11893294884E+01  0.37504012933E+02  0.51100000000E-03 0. -1.
        -11    1    3    3    0    0  0.39594566012E+00 -0.32639578342E+01  0.30953846324E+01  0.45157059241E+01  0.51100000000E-03 0.  1.
        -12    1    3    3    0    0 -0.59972329712E+01 -0.22944535673E+01 -0.55833896606E+01  0.85091457025E+01  0.00000000000E+00 0.  1.
</event>
<event>
 7    1  0.5946946E-013  0.5052887E+02  0.7816164E-02  0.1300439E+00
        -11   -1    0    0    0    0  0.00000000000E+00  0.00000000000E+00  0.45593999997E+02  0.45594000000E+02  0.51100000000E-03 0. -1.
         11   -1    0    0    0    0 -0.00000000000E+00 -0.00000000000E+00 -0.45593999997E+02  0.45594000000E+02  0.51100000000E-03 0.  1.
    9900012    2    1    2    0    0 -0.39481125509E+02 -0.69100433939E+01  0.68306026721E+01  0.50528866905E+02  0.30000021444E+02 0.  0.
         12    1    1    2    0    0  0.39481125509E+02  0.69100433939E+01 -0.68306026721E+01  0.40659133095E+02  0.00000000000E+00 0. -1.
         11    1    3    3    0    0 -0.17947507920E+02 -0.12948857626E+02  0.34171734375E+00  0.22133746301E+02  0.51100000000E-03 0.  1.
        -11    1    3    3    0    0 -0.33802584053E+01  0.48663027720E+01 -0.42306544095E+01  0.72804866972E+01  0.51100000000E-03 0. -1.
        -12    1    3    3    0    0 -0.18153359184E+02  0.11725114598E+01  0.10719539738E+02  0.21114633906E+02  0.00000000000E+00 0.  1.
</event>
<event>
 7    1  0.5946946E-013  0.5052885E+02  0.7816164E-02  0.1300439E+00
        -11   -1    0    0    0    0  0.00000000000E+00  0.00000000000E+00  0.45593999997E+02  0.45594000000E+02  0.51100000000E-03 0.  1.
         11   -1    0    0    0    0 -0.00000000000E+00 -0.00000000000E+00 -0.45593999997E+02  0.45594000000E+02  0.51100000000E-03 0. -1.
    9900012    2    1    2    0    0  0.16839138764E+02 -0.12958105019E+02  0.34665501484E+02  0.50528854988E+02  0.29999985220E+02 0.  0.
         12    1    1    2    0    0 -0.16839138764E+02  0.12958105019E+02 -0.34665501484E+02  0.40659145012E+02  0.00000000000E+00 0. -1.
         11    1    3    3    0    0 -0.50181980213E+01 -0.11728322712E+02  0.15160802625E+02  0.19813778073E+02  0.51100000000E-03 0.  1.
        -11    1    3    3    0    0  0.10437789984E+02  0.39540865559E+01  0.84888627557E+01  0.14022947314E+02  0.51100000000E-03 0. -1.
        -12    1    3    3    0    0  0.11419546802E+02 -0.51838688627E+01  0.11015836103E+02  0.16692129601E+02  0.00000000000E+00 0.  1.
</event>
<event>
 7    1  0.5946946E-013  0.5052885E+02  0.7816164E-02  0.1300439E+00
        -11   -1    0    0    0    0  0.00000000000E+00  0.00000000000E+00  0.45593999997E+02  0.45594000000E+02  0.51100000000E-03 0.  1.
         11   -1    0    0    0    0 -0.00000000000E+00 -0.00000000000E+00 -0.45593999997E+02  0.45594000000E+02  0.51100000000E-03 0. -1.
    9900012    2    1    2    0    0  0.37381833371E+02  0.11167519003E+02 -0.11447763274E+02  0.50528853048E+02  0.29999979325E+02 0.  0.
         12    1    1    2    0    0 -0.37381833371E+02 -0.11167519003E+02  0.11447763274E+02  0.40659146952E+02  0.00000000000E+00 0. -1.
         11    1    3    3    0    0  0.46437368206E+01 -0.43792448788E+01  0.12555464968E+01  0.65052651471E+01  0.51100000000E-03 0. -1.
        -11    1    3    3    0    0  0.22784526391E+02  0.18177252977E+02 -0.20661452403E+01  0.29220132188E+02  0.51100000000E-03 0.  1.
        -12    1    3    3    0    0  0.99535701599E+01 -0.26304890959E+01 -0.10637164530E+02  0.14803455713E+02  0.00000000000E+00 0.  1.
</event>
<event>
 7    1  0.5946946E-013  0.5052891E+02  0.7816164E-02  0.1300439E+00
        -11   -1    0    0    0    0  0.00000000000E+00  0.00000000000E+00  0.45593999997E+02  0.45594000000E+02  0.51100000000E-03 0. -1.
         11   -1    0    0    0    0 -0.00000000000E+00 -0.00000000000E+00 -0.45593999997E+02  0.45594000000E+02  0.51100000000E-03 0.  1.
    9900012    2    1    2    0    0 -0.34871404249E+01  0.30628400148E+02 -0.26512310914E+02  0.50528909086E+02  0.30000149657E+02 0.  0.
         12    1    1    2    0    0  0.34871404249E+01 -0.30628400148E+02  0.26512310914E+02  0.40659090914E+02  0.00000000000E+00 0. -1.
         11    1    3    3    0    0 -0.31262178576E+01 -0.46774197455E+01 -0.57206856466E+01  0.80235738980E+01  0.51100000000E-03 0. -1.
        -11    1    3    3    0    0 -0.52691822413E+01  0.15314912723E+02 -0.11820165936E+02  0.20050614859E+02  0.51100000000E-03 0.  1.
         12    1    3    3    0    0  0.49082596740E+01  0.19990907170E+02 -0.89714593314E+01  0.22454720329E+02  0.00000000000E+00 0. -1.
</event>
<event>
 7    1  0.5946946E-013  0.5052886E+02  0.7816164E-02  0.1300439E+00
        -11   -1    0    0    0    0  0.00000000000E+00  0.00000000000E+00  0.45593999997E+02  0.45594000000E+02  0.51100000000E-03 0.  1.
         11   -1    0    0    0    0 -0.00000000000E+00 -0.00000000000E+00 -0.45593999997E+02  0.45594000000E+02  0.51100000000E-03 0. -1.
    9900012    2    1    2    0    0  0.18006501776E+02  0.20303406883E+02  0.30277109084E+02  0.50528858694E+02  0.29999996485E+02 0.  0.
         12    1    1    2    0    0 -0.18006501776E+02 -0.20303406883E+02 -0.30277109084E+02  0.40659141306E+02  0.00000000000E+00 0. -1.
         11    1    3    3    0    0 -0.38848845920E+01  0.45036376182E+01  0.41875979736E+01  0.72739987035E+01  0.51100000000E-03 0. -1.
        -11    1    3    3    0    0  0.21667597266E+02  0.13819038500E+02  0.10866961608E+02  0.27902355657E+02  0.51100000000E-03 0.  1.
        -12    1    3    3    0    0  0.22378910149E+00  0.19807307647E+01  0.15222549503E+02  0.15352504333E+02  0.00000000000E+00 0.  1.
</event>
<event>
 7    1  0.5946946E-013  0.5052886E+02  0.7816164E-02  0.1300439E+00
        -11   -1    0    0    0    0  0.00000000000E+00  0.00000000000E+00  0.45593999997E+02  0.45594000000E+02  0.51100000000E-03 0.  1.
         11   -1    0    0    0    0 -0.00000000000E+00 -0.00000000000E+00 -0.45593999997E+02  0.45594000000E+02  0.51100000000E-03 0. -1.
    9900012    2    1    2    0    0 -0.12834466066E+02 -0.85662679820E+01  0.37617294364E+02  0.50528864475E+02  0.30000014060E+02 0.  0.
         12    1    1    2    0    0  0.12834466066E+02  0.85662679820E+01 -0.37617294364E+02  0.40659135525E+02  0.00000000000E+00 0. -1.
         11    1    3    3    0    0 -0.10132990287E+02 -0.49893055628E+01  0.31898206431E+02  0.33838827343E+02  0.51100000000E-03 0.  1.
        -11    1    3    3    0    0  0.33621245056E+01 -0.69665094377E+00 -0.37489577003E+01  0.50836884079E+01  0.51100000000E-03 0. -1.
         12    1    3    3    0    0 -0.60636002850E+01 -0.28803114754E+01  0.94680456333E+01  0.11606348725E+02  0.00000000000E+00 0. -1.
</event>
<event>
 7    1  0.5946946E-013  0.5052886E+02  0.7816164E-02  0.1300439E+00
        -11   -1    0    0    0    0  0.00000000000E+00  0.00000000000E+00  0.45593999997E+02  0.45594000000E+02  0.51100000000E-03 0. -1.
         11   -1    0    0    0    0 -0.00000000000E+00 -0.00000000000E+00 -0.45593999997E+02  0.45594000000E+02  0.51100000000E-03 0.  1.
    9900012    2    1    2    0    0 -0.24681424124E+02 -0.14829771273E+02 -0.28706629801E+02  0.50528863175E+02  0.30000010107E+02 0.  0.
         12    1    1    2    0    0  0.24681424124E+02  0.14829771273E+02  0.28706629801E+02  0.40659136825E+02  0.00000000000E+00 0. -1.
         11    1    3    3    0    0  0.45591822266E+01  0.20277926988E+01 -0.68095596744E+01  0.84420488642E+01  0.51100000000E-03 0. -1.
        -11    1    3    3    0    0 -0.11957863539E+02 -0.49978124905E+01 -0.15430974844E+02  0.20151516444E+02  0.51100000000E-03 0.  1.
         12    1    3    3    0    0 -0.17282742812E+02 -0.11859751482E+02 -0.64660952830E+01  0.21935297867E+02  0.00000000000E+00 0. -1.
</event>
<event>
 7    1  0.5946946E-013  0.5052884E+02  0.7816164E-02  0.1300439E+00
        -11   -1    0    0    0    0  0.00000000000E+00  0.00000000000E+00  0.45593999997E+02  0.45594000000E+02  0.51100000000E-03 0.  1.
         11   -1    0    0    0    0 -0.00000000000E+00 -0.00000000000E+00 -0.45593999997E+02  0.45594000000E+02  0.51100000000E-03 0. -1.
    9900012    2    1    2    0    0 -0.37825812602E+02  0.89141137467E+01  0.11954666481E+02  0.50528836537E+02  0.29999929137E+02 0.  0.
         12    1    1    2    0    0  0.37825812602E+02 -0.89141137467E+01 -0.11954666481E+02  0.40659163463E+02  0.00000000000E+00 0. -1.
         11    1    3    3    0    0 -0.26484570996E+02  0.14148178691E+02  0.28361322294E+01  0.30160356553E+02  0.51100000000E-03 0. -1.
        -11    1    3    3    0    0  0.26201493112E+01 -0.12093360871E+01  0.40642787514E+01  0.49845800439E+01  0.51100000000E-03 0.  1.
         12    1    3    3    0    0 -0.13961390916E+02 -0.40247288569E+01  0.50542555005E+01  0.15383899940E+02  0.00000000000E+00 0. -1.
</event>
<event>
 7    1  0.5946946E-013  0.5052890E+02  0.7816164E-02  0.1300439E+00
        -11   -1    0    0    0    0  0.00000000000E+00  0.00000000000E+00  0.45593999997E+02  0.45594000000E+02  0.51100000000E-03 0.  1.
         11   -1    0    0    0    0 -0.00000000000E+00 -0.00000000000E+00 -0.45593999997E+02  0.45594000000E+02  0.51100000000E-03 0. -1.
    9900012    2    1    2    0    0  0.36913567046E+01 -0.73258693440E+01  0.39822955967E+02  0.50528901413E+02  0.30000126334E+02 0.  0.
         12    1    1    2    0    0 -0.36913567046E+01  0.73258693440E+01 -0.39822955967E+02  0.40659098587E+02  0.00000000000E+00 0. -1.
         11    1    3    3    0    0 -0.60190360326E+01 -0.10127954241E+02  0.32889249391E+01  0.12231977738E+02  0.51100000000E-03 0. -1.
        -11    1    3    3    0    0  0.85351444396E+01  0.32300375103E+00  0.30404007623E+02  0.31580954733E+02  0.51100000000E-03 0.  1.
        -12    1    3    3    0    0  0.11752482976E+01  0.24790811458E+01  0.61300234048E+01  0.67159689421E+01  0.00000000000E+00 0.  1.
</event>
<event>
 7    1  0.5946946E-013  0.5052885E+02  0.7816164E-02  0.1300439E+00
        -11   -1    0    0    0    0  0.00000000000E+00  0.00000000000E+00  0.45593999997E+02  0.45594000000E+02  0.51100000000E-03 0.  1.
         11   -1    0    0    0    0 -0.00000000000E+00 -0.00000000000E+00 -0.45593999997E+02  0.45594000000E+02  0.51100000000E-03 0. -1.
    9900012    2    1    2    0    0 -0.32197071312E+01  0.37502151176E+02 -0.15374933759E+02  0.50528850415E+02  0.29999971322E+02 0.  0.
         12    1    1    2    0    0  0.32197071312E+01 -0.37502151176E+02  0.15374933759E+02  0.40659149585E+02  0.00000000000E+00 0. -1.
         11    1    3    3    0    0 -0.71697983945E+01  0.36047136245E+01  0.49202502784E+01  0.94132264605E+01  0.51100000000E-03 0. -1.
        -11    1    3    3    0    0  0.23280206341E+01  0.93554232706E+01 -0.69540323645E+00  0.96657752182E+01  0.51100000000E-03 0.  1.
         12    1    3    3    0    0  0.16220706291E+01  0.24542014281E+02 -0.19599780801E+02  0.31449848737E+02  0.00000000000E+00 0. -1.
</event>
<event>
 7    1  0.5946946E-013  0.5052886E+02  0.7816164E-02  0.1300439E+00
        -11   -1    0    0    0    0  0.00000000000E+00  0.00000000000E+00  0.45593999997E+02  0.45594000000E+02  0.51100000000E-03 0.  1.
         11   -1    0    0    0    0 -0.00000000000E+00 -0.00000000000E+00 -0.45593999997E+02  0.45594000000E+02  0.51100000000E-03 0. -1.
    9900012    2    1    2    0    0 -0.39391055110E+02  0.19444320412E+01  0.98858404478E+01  0.50528857362E+02  0.29999992439E+02 0.  0.
         12    1    1    2    0    0  0.39391055110E+02 -0.19444320412E+01 -0.98858404478E+01  0.40659142638E+02  0.00000000000E+00 0. -1.
         11    1    3    3    0    0 -0.79052689963E+01  0.20262564781E+01  0.10287928184E+02  0.13131658684E+02  0.51100000000E-03 0. -1.
        -11    1    3    3    0    0 -0.32442378183E+02 -0.45952498720E+01 -0.70260998392E+00  0.32773737727E+02  0.51100000000E-03 0.  1.
         12    1    3    3    0    0  0.95659206923E+00  0.45134254351E+01  0.30052224793E+00  0.46234609512E+01  0.00000000000E+00 0. -1.
</event>
<event>
 7    1  0.5946946E-013  0.5052886E+02  0.7816164E-02  0.1300439E+00
        -11   -1    0    0    0    0  0.00000000000E+00  0.00000000000E+00  0.45593999997E+02  0.45594000000E+02  0.51100000000E-03 0.  1.
         11   -1    0    0    0    0 -0.00000000000E+00 -0.00000000000E+00 -0.45593999997E+02  0.45594000000E+02  0.51100000000E-03 0. -1.
    9900012    2    1    2    0    0  0.39147533983E+02 -0.20914453869E+01 -0.10782491874E+02  0.50528859677E+02  0.29999999475E+02 0.  0.
         12    1    1    2    0    0 -0.39147533983E+02  0.20914453869E+01  0.10782491874E+02  0.40659140323E+02  0.00000000000E+00 0. -1.
         11    1    3    3    0    0  0.21272248363E+01  0.50041460962E+01  0.22471049652E+01  0.58835401454E+01  0.51100000000E-03 0.  1.
        -11    1    3    3    0    0  0.24921635233E+02 -0.85116686012E+01  0.63075415194E+00  0.26342631913E+02  0.51100000000E-03 0. -1.
         12    1    3    3    0    0  0.12098673914E+02  0.14160771181E+01 -0.13660350991E+02  0.18302687619E+02  0.00000000000E+00 0. -1.
</event>
<event>
 7    1  0.5946946E-013  0.5052886E+02  0.7816164E-02  0.1300439E+00
        -11   -1    0    0    0    0  0.00000000000E+00  0.00000000000E+00  0.45593999997E+02  0.45594000000E+02  0.51100000000E-03 0. -1.
         11   -1    0    0    0    0 -0.00000000000E+00 -0.00000000000E+00 -0.45593999997E+02  0.45594000000E+02  0.51100000000E-03 0.  1.
    9900012    2    1    2    0    0  0.39941359843E+02  0.34567092631E+01  0.67752916865E+01  0.50528860284E+02  0.30000001318E+02 0.  0.
         12    1    1    2    0    0 -0.39941359843E+02 -0.34567092631E+01 -0.67752916865E+01  0.40659139716E+02  0.00000000000E+00 0. -1.
         11    1    3    3    0    0  0.27673951223E+02  0.14764761581E+02  0.45574187930E+01  0.31695675212E+02  0.51100000000E-03 0.  1.
        -11    1    3    3    0    0  0.48911697587E+01 -0.61343656757E+01  0.51189101296E+01  0.93678826332E+01  0.51100000000E-03 0. -1.
         12    1    3    3    0    0  0.73762388608E+01 -0.51736866418E+01 -0.29010372361E+01  0.94653024381E+01  0.00000000000E+00 0. -1.
</event>
<event>
 7    1  0.5946946E-013  0.5052888E+02  0.7816164E-02  0.1300439E+00
        -11   -1    0    0    0    0  0.00000000000E+00  0.00000000000E+00  0.45593999997E+02  0.45594000000E+02  0.51100000000E-03 0.  1.
         11   -1    0    0    0    0 -0.00000000000E+00 -0.00000000000E+00 -0.45593999997E+02  0.45594000000E+02  0.51100000000E-03 0. -1.
    9900012    2    1    2    0    0  0.31203763062E+02  0.17910082815E+02  0.18939862679E+02  0.50528876867E+02  0.30000051724E+02 0.  0.
         12    1    1    2    0    0 -0.31203763062E+02 -0.17910082815E+02 -0.18939862679E+02  0.40659123133E+02  0.00000000000E+00 0. -1.
         11    1    3    3    0    0  0.23291421394E+02  0.69444009910E+01  0.18603956775E+02  0.30607551742E+02  0.51100000000E-03 0. -1.
        -11    1    3    3    0    0  0.41090536123E+01  0.12385385152E+02  0.47846235237E+01  0.13898730499E+02  0.51100000000E-03 0.  1.
         12    1    3    3    0    0  0.38032880557E+01 -0.14197033277E+01 -0.44487176196E+01  0.60225946263E+01  0.00000000000E+00 0. -1.
</event>
<event>
 7    1  0.5946946E-013  0.5052886E+02  0.7816164E-02  0.1300439E+00
        -11   -1    0    0    0    0  0.00000000000E+00  0.00000000000E+00  0.45593999997E+02  0.45594000000E+02  0.51100000000E-03 0.  1.
         11   -1    0    0    0    0 -0.00000000000E+00 -0.00000000000E+00 -0.45593999997E+02  0.45594000000E+02  0.51100000000E-03 0. -1.
    9900012    2    1    2    0    0 -0.25752598548E+02 -0.30507694755E+02 -0.76974143485E+01  0.50528856392E+02  0.29999989490E+02 0.  0.
         12    1    1    2    0    0  0.25752598548E+02  0.30507694755E+02  0.76974143485E+01  0.40659143608E+02  0.00000000000E+00 0. -1.
         11    1    3    3    0    0  0.50316885882E+01 -0.80082491087E+01 -0.48451215080E+01  0.10626624418E+02  0.51100000000E-03 0. -1.
        -11    1    3    3    0    0 -0.15674666665E+02 -0.59465437045E+01 -0.47086780382E+01  0.17413449004E+02  0.51100000000E-03 0.  1.
         12    1    3    3    0    0 -0.15109620472E+02 -0.16552901942E+02  0.18563851976E+01  0.22488782970E+02  0.00000000000E+00 0. -1.
</event>
<event>
 7    1  0.5946946E-013  0.5052886E+02  0.7816164E-02  0.1300439E+00
        -11   -1    0    0    0    0  0.00000000000E+00  0.00000000000E+00  0.45593999997E+02  0.45594000000E+02  0.51100000000E-03 0. -1.
         11   -1    0    0    0    0 -0.00000000000E+00 -0.00000000000E+00 -0.45593999997E+02  0.45594000000E+02  0.51100000000E-03 0.  1.
    9900012    2    1    2    0    0 -0.27184548234E+02  0.27496310564E+02 -0.12574536569E+02  0.50528859241E+02  0.29999998150E+02 0.  0.
         12    1    1    2    0    0  0.27184548234E+02 -0.27496310564E+02  0.12574536569E+02  0.40659140759E+02  0.00000000000E+00 0. -1.
         11    1    3    3    0    0 -0.13221815434E+02  0.25084822294E+02 -0.12010589674E+02  0.30794788155E+02  0.51100000000E-03 0. -1.
        -11    1    3    3    0    0 -0.93679465784E-01 -0.31265087807E+01  0.30503895604E+01  0.43690627976E+01  0.51100000000E-03 0.  1.
        -12    1    3    3    0    0 -0.13869053334E+02  0.55379970503E+01 -0.36143364556E+01  0.15365008289E+02  0.00000000000E+00 0.  1.
</event>
<event>
 7    1  0.5946946E-013  0.5052886E+02  0.7816164E-02  0.1300439E+00
        -11   -1    0    0    0    0  0.00000000000E+00  0.00000000000E+00  0.45593999997E+02  0.45594000000E+02  0.51100000000E-03 0.  1.
         11   -1    0    0    0    0 -0.00000000000E+00 -0.00000000000E+00 -0.45593999997E+02  0.45594000000E+02  0.51100000000E-03 0. -1.
    9900012    2    1    2    0    0 -0.20610662797E+02  0.26486043979E+02  0.22953332370E+02  0.50528863099E+02  0.30000009877E+02 0.  0.
         12    1    1    2    0    0  0.20610662797E+02 -0.26486043979E+02 -0.22953332370E+02  0.40659136901E+02  0.00000000000E+00 0. -1.
         11    1    3    3    0    0 -0.12265454851E+01  0.10914716300E+02  0.17385666966E+01  0.11120164574E+02  0.51100000000E-03 0. -1.
        -11    1    3    3    0    0 -0.17143129709E+02  0.13058977499E+02  0.25865890920E+02  0.33667018028E+02  0.51100000000E-03 0.  1.
        -12    1    3    3    0    0 -0.22409876032E+01  0.25123501807E+01 -0.46511252471E+01  0.57416804973E+01  0.00000000000E+00 0.  1.
</event>
<event>
 7    1  0.5946946E-013  0.5052884E+02  0.7816164E-02  0.1300439E+00
        -11   -1    0    0    0    0  0.00000000000E+00  0.00000000000E+00  0.45593999997E+02  0.45594000000E+02  0.51100000000E-03 0.  1.
         11   -1    0    0    0    0 -0.00000000000E+00 -0.00000000000E+00 -0.45593999997E+02  0.45594000000E+02  0.51100000000E-03 0. -1.
    9900012    2    1    2    0    0 -0.19690577148E+02  0.14637407639E+02  0.32422134971E+02  0.50528839078E+02  0.29999936862E+02 0.  0.
         12    1    1    2    0    0  0.19690577148E+02 -0.14637407639E+02 -0.32422134971E+02  0.40659160922E+02  0.00000000000E+00 0. -1.
         11    1    3    3    0    0  0.22546998119E+01 -0.51093271394E+01  0.24859248343E+00  0.55902319758E+01  0.51100000000E-03 0. -1.
        -11    1    3    3    0    0 -0.60333515291E+01  0.54975391346E+01  0.28189722916E+01  0.86354427942E+01  0.51100000000E-03 0.  1.
         12    1    3    3    0    0 -0.15911925431E+02  0.14249195644E+02  0.29354570196E+02  0.36303164308E+02  0.00000000000E+00 0. -1.
</event>
<event>
 7    1  0.5946946E-013  0.5052886E+02  0.7816164E-02  0.1300439E+00
        -11   -1    0    0    0    0  0.00000000000E+00  0.00000000000E+00  0.45593999997E+02  0.45594000000E+02  0.51100000000E-03 0. -1.
         11   -1    0    0    0    0 -0.00000000000E+00 -0.00000000000E+00 -0.45593999997E+02  0.45594000000E+02  0.51100000000E-03 0.  1.
    9900012    2    1    2    0    0  0.30678833248E+02 -0.22629472826E+00 -0.26681894548E+02  0.50528861846E+02  0.30000006066E+02 0.  0.
         12    1    1    2    0    0 -0.30678833248E+02  0.22629472826E+00  0.26681894548E+02  0.40659138154E+02  0.00000000000E+00 0. -1.
         11    1    3    3    0    0  0.12829731098E+01  0.67229207150E+01  0.28051531917E+01  0.73967944158E+01  0.51100000000E-03 0. -1.
        -11    1    3    3    0    0  0.14623462148E+02 -0.16376676310E+01 -0.87384104518E+01  0.17113953896E+02  0.51100000000E-03 0.  1.
         12    1    3    3    0    0  0.14772397990E+02 -0.53115478123E+01 -0.20748637288E+02  0.26018113534E+02  0.00000000000E+00 0. -1.
</event>
<event>
 7    1  0.5946946E-013  0.5052886E+02  0.7816164E-02  0.1300439E+00
        -11   -1    0    0    0    0  0.00000000000E+00  0.00000000000E+00  0.45593999997E+02  0.45594000000E+02  0.51100000000E-03 0.  1.
         11   -1    0    0    0    0 -0.00000000000E+00 -0.00000000000E+00 -0.45593999997E+02  0.45594000000E+02  0.51100000000E-03 0. -1.
    9900012    2    1    2    0    0  0.58814196809E+00 -0.11846229992E+02  0.38890698862E+02  0.50528861618E+02  0.30000005373E+02 0.  0.
         12    1    1    2    0    0 -0.58814196809E+00  0.11846229992E+02 -0.38890698862E+02  0.40659138382E+02  0.00000000000E+00 0. -1.
         11    1    3    3    0    0  0.53891705557E+01 -0.20926872528E+01 -0.25401298008E-02  0.57812201074E+01  0.51100000000E-03 0. -1.
        -11    1    3    3    0    0 -0.10488959241E+02  0.15058029366E+00  0.21760450886E+02  0.24156948554E+02  0.51100000000E-03 0.  1.
        -12    1    3    3    0    0  0.56879306530E+01 -0.99041230324E+01  0.17132788106E+02  0.20590692957E+02  0.00000000000E+00 0.  1.
</event>
<event>
 7    1  0.5946946E-013  0.5052886E+02  0.7816164E-02  0.1300439E+00
        -11   -1    0    0    0    0  0.00000000000E+00  0.00000000000E+00  0.45593999997E+02  0.45594000000E+02  0.51100000000E-03 0.  1.
         11   -1    0    0    0    0 -0.00000000000E+00 -0.00000000000E+00 -0.45593999997E+02  0.45594000000E+02  0.51100000000E-03 0. -1.
    9900012    2    1    2    0    0 -0.35618289589E+02  0.54667288097E+01  0.18831295778E+02  0.50528863538E+02  0.30000011212E+02 0.  0.
         12    1    1    2    0    0  0.35618289589E+02 -0.54667288097E+01 -0.18831295778E+02  0.40659136462E+02  0.00000000000E+00 0. -1.
         11    1    3    3    0    0 -0.56648803936E+00 -0.77633722650E+01  0.22960293867E+01  0.81155781574E+01  0.51100000000E-03 0. -1.
        -11    1    3    3    0    0 -0.30712147083E+02  0.72631440051E+01  0.14674136599E+02  0.34804015924E+02  0.51100000000E-03 0.  1.
        -12    1    3    3    0    0 -0.43396544667E+01  0.59669570696E+01  0.18611297923E+01  0.76092694567E+01  0.00000000000E+00 0.  1.
</event>
<event>
 7    1  0.5946946E-013  0.5052886E+02  0.7816164E-02  0.1300439E+00
        -11   -1    0    0    0    0  0.00000000000E+00  0.00000000000E+00  0.45593999997E+02  0.45594000000E+02  0.51100000000E-03 0. -1.
         11   -1    0    0    0    0 -0.00000000000E+00 -0.00000000000E+00 -0.45593999997E+02  0.45594000000E+02  0.51100000000E-03 0.  1.
    9900012    2    1    2    0    0  0.19128528622E+01 -0.15344511062E+02 -0.37603890816E+02  0.50528860433E+02  0.30000001772E+02 0.  0.
         12    1    1    2    0    0 -0.19128528622E+01  0.15344511062E+02  0.37603890816E+02  0.40659139567E+02  0.00000000000E+00 0. -1.
         11    1    3    3    0    0  0.87860894659E+01  0.46760159930E+01 -0.10798673569E+02  0.14685770146E+02  0.51100000000E-03 0. -1.
        -11    1    3    3    0    0 -0.19555679913E+01 -0.13303447961E+02 -0.23105199431E+02  0.26733054723E+02  0.51100000000E-03 0.  1.
         12    1    3    3    0    0 -0.49176686125E+01 -0.67170790935E+01 -0.37000178167E+01  0.91100355638E+01  0.00000000000E+00 0. -1.
</event>
<event>
 7    1  0.5946946E-013  0.5052885E+02  0.7816164E-02  0.1300439E+00
        -11   -1    0    0    0    0  0.00000000000E+00  0.00000000000E+00  0.45593999997E+02  0.45594000000E+02  0.51100000000E-03 0.  1.
         11   -1    0    0    0    0 -0.00000000000E+00 -0.00000000000E+00 -0.45593999997E+02  0.45594000000E+02  0.51100000000E-03 0. -1.
    9900012    2    1    2    0    0  0.56872887155E+01 -0.10926967222E+01  0.40244595733E+02  0.50528846975E+02  0.29999960864E+02 0.  0.
         12    1    1    2    0    0 -0.56872887155E+01  0.10926967222E+01 -0.40244595733E+02  0.40659153025E+02  0.00000000000E+00 0. -1.
         11    1    3    3    0    0 -0.22998584387E+01  0.49405365412E+01  0.75952689464E+01  0.93480672218E+01  0.51100000000E-03 0. -1.
        -11    1    3    3    0    0  0.13397764154E+02 -0.10249900871E+02  0.16329607676E+02  0.23478003307E+02  0.51100000000E-03 0.  1.
        -12    1    3    3    0    0 -0.54106169996E+01  0.42166676079E+01  0.16319719111E+02  0.17702776446E+02  0.00000000000E+00 0.  1.
</event>
<event>
 7    1  0.7601927E-013  0.5052893E+02  0.7816164E-02  0.1300439E+00
        -11   -1    0    0    0    0  0.00000000000E+00  0.00000000000E+00  0.45593999997E+02  0.45594000000E+02  0.51100000000E-03 0. -1.
         11   -1    0    0    0    0 -0.00000000000E+00 -0.00000000000E+00 -0.45593999997E+02  0.45594000000E+02  0.51100000000E-03 0.  1.
    9900012    2    1    2    0    0  0.18364930980E+02  0.21484590323E+02 -0.29228443308E+02  0.50528927096E+02  0.30000204399E+02 0.  0.
         12    1    1    2    0    0 -0.18364930980E+02 -0.21484590323E+02  0.29228443308E+02  0.40659072904E+02  0.00000000000E+00 0. -1.
         11    1    3    3    0    0 -0.42284172088E+01  0.44700632851E+01 -0.77226369227E+01  0.98742138505E+01  0.51100000000E-03 0.  1.
        -11    1    3    3    0    0  0.16258313159E+02  0.51168547474E+00 -0.13956633415E+02  0.21433202872E+02  0.51100000000E-03 0. -1.
        -12    1    3    3    0    0  0.63350350289E+01  0.16502841563E+02 -0.75491729706E+01  0.19221510373E+02  0.00000000000E+00 0.  1.
</event>
<event>
 7    1  0.5946946E-013  0.5052886E+02  0.7816164E-02  0.1300439E+00
        -11   -1    0    0    0    0  0.00000000000E+00  0.00000000000E+00  0.45593999997E+02  0.45594000000E+02  0.51100000000E-03 0.  1.
         11   -1    0    0    0    0 -0.00000000000E+00 -0.00000000000E+00 -0.45593999997E+02  0.45594000000E+02  0.51100000000E-03 0. -1.
    9900012    2    1    2    0    0  0.27401942233E+02  0.17221141544E+02  0.24611615141E+02  0.50528858912E+02  0.29999997148E+02 0.  0.
         12    1    1    2    0    0 -0.27401942233E+02 -0.17221141544E+02 -0.24611615141E+02  0.40659141088E+02  0.00000000000E+00 0. -1.
         11    1    3    3    0    0 -0.52795450822E+01  0.66515012441E+01  0.48960889582E+01  0.98024360453E+01  0.51100000000E-03 0. -1.
        -11    1    3    3    0    0  0.22763134608E+01  0.36892662458E+01  0.35912057174E+01  0.56293025473E+01  0.51100000000E-03 0.  1.
         12    1    3    3    0    0  0.30405173854E+02  0.68803740536E+01  0.16124320466E+02  0.35097120319E+02  0.00000000000E+00 0. -1.
</event>
<event>
 7    1  0.5946946E-013  0.5052887E+02  0.7816164E-02  0.1300439E+00
        -11   -1    0    0    0    0  0.00000000000E+00  0.00000000000E+00  0.45593999997E+02  0.45594000000E+02  0.51100000000E-03 0.  1.
         11   -1    0    0    0    0 -0.00000000000E+00 -0.00000000000E+00 -0.45593999997E+02  0.45594000000E+02  0.51100000000E-03 0. -1.
    9900012    2    1    2    0    0  0.14411339251E+02 -0.65997962698E+01  0.37442236018E+02  0.50528867596E+02  0.30000023545E+02 0.  0.
         12    1    1    2    0    0 -0.14411339251E+02  0.65997962698E+01 -0.37442236018E+02  0.40659132404E+02  0.00000000000E+00 0. -1.
         11    1    3    3    0    0 -0.88651001119E+00  0.15930824139E+01 -0.35453172807E+01  0.39866134073E+01  0.51100000000E-03 0. -1.
        -11    1    3    3    0    0  0.86609899456E+01 -0.11545414942E+02  0.29769522559E+02  0.33083739611E+02  0.51100000000E-03 0.  1.
        -12    1    3    3    0    0  0.66368593163E+01  0.33525362586E+01  0.11218030740E+02  0.13458514577E+02  0.00000000000E+00 0.  1.
</event>
<event>
 7    1  0.5946946E-013  0.5052886E+02  0.7816164E-02  0.1300439E+00
        -11   -1    0    0    0    0  0.00000000000E+00  0.00000000000E+00  0.45593999997E+02  0.45594000000E+02  0.51100000000E-03 0.  1.
         11   -1    0    0    0    0 -0.00000000000E+00 -0.00000000000E+00 -0.45593999997E+02  0.45594000000E+02  0.51100000000E-03 0. -1.
    9900012    2    1    2    0    0  0.52687299574E+01 -0.24994668936E+02  0.31633407132E+02  0.50528862806E+02  0.30000008984E+02 0.  0.
         12    1    1    2    0    0 -0.52687299574E+01  0.24994668936E+02 -0.31633407132E+02  0.40659137194E+02  0.00000000000E+00 0. -1.
         11    1    3    3    0    0 -0.74555860238E+01 -0.23012516926E+01 -0.11028134964E+01  0.78802106685E+01  0.51100000000E-03 0. -1.
        -11    1    3    3    0    0 -0.60456918338E+00 -0.11065030887E+01  0.45711147756E+01  0.47418291340E+01  0.51100000000E-03 0.  1.
         12    1    3    3    0    0  0.13328885165E+02 -0.21586914155E+02  0.28165105853E+02  0.37906823003E+02  0.00000000000E+00 0. -1.
</event>
<event>
 7    1  0.5946946E-013  0.5052886E+02  0.7816164E-02  0.1300439E+00
        -11   -1    0    0    0    0  0.00000000000E+00  0.00000000000E+00  0.45593999997E+02  0.45594000000E+02  0.51100000000E-03 0.  1.
         11   -1    0    0    0    0 -0.00000000000E+00 -0.00000000000E+00 -0.45593999997E+02  0.45594000000E+02  0.51100000000E-03 0. -1.
    9900012    2    1    2    0    0  0.14293032989E+02  0.10036303913E+02  0.36717124643E+02  0.50528862893E+02  0.30000009249E+02 0.  0.
         12    1    1    2    0    0 -0.14293032989E+02 -0.10036303913E+02 -0.36717124643E+02  0.40659137107E+02  0.00000000000E+00 0. -1.
         11    1    3    3    0    0 -0.20860749830E+01  0.17469101668E+01 -0.23242840384E+00  0.27308290298E+01  0.51100000000E-03 0. -1.
        -11    1    3    3    0    0  0.18924431307E+02  0.13436698406E+02  0.34441707272E+02  0.41532037808E+02  0.51100000000E-03 0.  1.
        -12    1    3    3    0    0 -0.25453233350E+01 -0.51473046599E+01  0.25078457741E+01  0.62659960556E+01  0.00000000000E+00 0.  1.
</event>
<event>
 7    1  0.5946946E-013  0.5052886E+02  0.7816164E-02  0.1300439E+00
        -11   -1    0    0    0    0  0.00000000000E+00  0.00000000000E+00  0.45593999997E+02  0.45594000000E+02  0.51100000000E-03 0. -1.
         11   -1    0    0    0    0 -0.00000000000E+00 -0.00000000000E+00 -0.45593999997E+02  0.45594000000E+02  0.51100000000E-03 0.  1.
    9900012    2    1    2    0    0 -0.10137312884E+02 -0.35686975033E+02 -0.16638532437E+02  0.50528855135E+02  0.29999985669E+02 0.  0.
         12    1    1    2    0    0  0.10137312884E+02  0.35686975033E+02  0.16638532437E+02  0.40659144865E+02  0.00000000000E+00 0. -1.
         11    1    3    3    0    0 -0.32888437797E+01 -0.11387155669E+01 -0.22544344442E+01  0.41467627704E+01  0.51100000000E-03 0. -1.
        -11    1    3    3    0    0  0.91391669003E+01 -0.14427962909E+02 -0.31006278922E+00  0.17081762922E+02  0.51100000000E-03 0.  1.
        -12    1    3    3    0    0 -0.15987636004E+02 -0.20120296557E+02 -0.14074035204E+02  0.29300329443E+02  0.00000000000E+00 0.  1.
</event>
<event>
 7    1  0.5946946E-013  0.5052886E+02  0.7816164E-02  0.1300439E+00
        -11   -1    0    0    0    0  0.00000000000E+00  0.00000000000E+00  0.45593999997E+02  0.45594000000E+02  0.51100000000E-03 0. -1.
         11   -1    0    0    0    0 -0.00000000000E+00 -0.00000000000E+00 -0.45593999997E+02  0.45594000000E+02  0.51100000000E-03 0.  1.
    9900012    2    1    2    0    0  0.31503308104E+02 -0.16635696306E+02 -0.19594928603E+02  0.50528855395E+02  0.29999986458E+02 0.  0.
         12    1    1    2    0    0 -0.31503308104E+02  0.16635696306E+02  0.19594928603E+02  0.40659144605E+02  0.00000000000E+00 0. -1.
         11    1    3    3    0    0 -0.28480544125E+01  0.30610118209E+01 -0.16850409218E+01  0.45078343441E+01  0.51100000000E-03 0. -1.
        -11    1    3    3    0    0  0.27051725284E+02 -0.20179698501E+02 -0.18831403722E+02  0.38647611036E+02  0.51100000000E-03 0.  1.
        -12    1    3    3    0    0  0.72996372326E+01  0.48299037451E+00  0.92151604063E+00  0.73734100146E+01  0.00000000000E+00 0.  1.
</event>
<event>
 7    1  0.8074923E-013  0.5052889E+02  0.7816164E-02  0.1300439E+00
        -11   -1    0    0    0    0  0.00000000000E+00  0.00000000000E+00  0.45593999997E+02  0.45594000000E+02  0.51100000000E-03 0.  1.
         11   -1    0    0    0    0 -0.00000000000E+00 -0.00000000000E+00 -0.45593999997E+02  0.45594000000E+02  0.51100000000E-03 0. -1.
    9900012    2    1    2    0    0  0.22688663496E+02 -0.26021874854E+02  0.21476726670E+02  0.50528890189E+02  0.30000092220E+02 0.  0.
         12    1    1    2    0    0 -0.22688663496E+02  0.26021874854E+02 -0.21476726670E+02  0.40659109811E+02  0.00000000000E+00 0. -1.
         11    1    3    3    0    0  0.98945645720E+01 -0.31214580490E+01 -0.67726813701E+00  0.10397336236E+02  0.51100000000E-03 0. -1.
        -11    1    3    3    0    0 -0.56455802310E+01 -0.75522379803E+01  0.53579352415E+01  0.10845106960E+02  0.51100000000E-03 0.  1.
        -12    1    3    3    0    0  0.18439679155E+02 -0.15348178824E+02  0.16796059566E+02  0.29286446993E+02  0.00000000000E+00 0.  1.
</event>
<event>
 7    1  0.5946946E-013  0.5052887E+02  0.7816164E-02  0.1300439E+00
        -11   -1    0    0    0    0  0.00000000000E+00  0.00000000000E+00  0.45593999997E+02  0.45594000000E+02  0.51100000000E-03 0.  1.
         11   -1    0    0    0    0 -0.00000000000E+00 -0.00000000000E+00 -0.45593999997E+02  0.45594000000E+02  0.51100000000E-03 0. -1.
    9900012    2    1    2    0    0 -0.24911207520E+02  0.32018350755E+02  0.27243212905E+01  0.50528868533E+02  0.30000026391E+02 0.  0.
         12    1    1    2    0    0  0.24911207520E+02 -0.32018350755E+02 -0.27243212905E+01  0.40659131467E+02  0.00000000000E+00 0. -1.
         11    1    3    3    0    0 -0.21454457447E+01  0.26679526022E+02 -0.55596073440E+00  0.26771423922E+02  0.51100000000E-03 0. -1.
        -11    1    3    3    0    0 -0.78250012369E+01  0.92907589043E+00  0.22779639985E+00  0.78832555349E+01  0.51100000000E-03 0.  1.
         12    1    3    3    0    0 -0.14940760539E+02  0.44097488430E+01  0.30524856250E+01  0.15874189076E+02  0.00000000000E+00 0. -1.
</event>
<event>
 7    1  0.5946946E-013  0.5052886E+02  0.7816164E-02  0.1300439E+00
        -11   -1    0    0    0    0  0.00000000000E+00  0.00000000000E+00  0.45593999997E+02  0.45594000000E+02  0.51100000000E-03 0.  1.
         11   -1    0    0    0    0 -0.00000000000E+00 -0.00000000000E+00 -0.45593999997E+02  0.45594000000E+02  0.51100000000E-03 0. -1.
    9900012    2    1    2    0    0 -0.99705549832E+01  0.37415359525E+02  0.12403395110E+02  0.50528864430E+02  0.30000013922E+02 0.  0.
         12    1    1    2    0    0  0.99705549832E+01 -0.37415359525E+02 -0.12403395110E+02  0.40659135570E+02  0.00000000000E+00 0. -1.
         11    1    3    3    0    0 -0.11007034307E+02  0.34839720462E+02  0.10201361568E+02  0.37934531817E+02  0.51100000000E-03 0.  1.
        -11    1    3    3    0    0  0.61833787171E+01  0.14102852982E+01  0.33809605627E+01  0.71870697485E+01  0.51100000000E-03 0. -1.
         12    1    3    3    0    0 -0.51468993935E+01  0.11653537648E+01 -0.11789270216E+01  0.54072628645E+01  0.00000000000E+00 0. -1.
</event>
<event>
 7    1  0.5946946E-013  0.5052886E+02  0.7816164E-02  0.1300439E+00
        -11   -1    0    0    0    0  0.00000000000E+00  0.00000000000E+00  0.45593999997E+02  0.45594000000E+02  0.51100000000E-03 0. -1.
         11   -1    0    0    0    0 -0.00000000000E+00 -0.00000000000E+00 -0.45593999997E+02  0.45594000000E+02  0.51100000000E-03 0.  1.
    9900012    2    1    2    0    0 -0.10492287635E+02  0.22417035426E+02 -0.32257616747E+02  0.50528863078E+02  0.30000009812E+02 0.  0.
         12    1    1    2    0    0  0.10492287635E+02 -0.22417035426E+02  0.32257616747E+02  0.40659136922E+02  0.00000000000E+00 0. -1.
         11    1    3    3    0    0 -0.13029289231E+02  0.96421684222E+01 -0.94057549066E+00  0.16236331859E+02  0.51100000000E-03 0. -1.
        -11    1    3    3    0    0 -0.97078450146E+00  0.78021744148E+01 -0.18650857105E+02  0.20240326557E+02  0.51100000000E-03 0.  1.
         12    1    3    3    0    0  0.35077860974E+01  0.49726925886E+01 -0.12666184151E+02  0.14052204661E+02  0.00000000000E+00 0. -1.
</event>
<event>
 7    1  0.5946946E-013  0.5052886E+02  0.7816164E-02  0.1300439E+00
        -11   -1    0    0    0    0  0.00000000000E+00  0.00000000000E+00  0.45593999997E+02  0.45594000000E+02  0.51100000000E-03 0.  1.
         11   -1    0    0    0    0 -0.00000000000E+00 -0.00000000000E+00 -0.45593999997E+02  0.45594000000E+02  0.51100000000E-03 0. -1.
    9900012    2    1    2    0    0 -0.10447398596E+01 -0.44341293062E+01  0.40403126962E+02  0.50528860161E+02  0.30000000947E+02 0.  0.
         12    1    1    2    0    0  0.10447398596E+01  0.44341293062E+01 -0.40403126962E+02  0.40659139839E+02  0.00000000000E+00 0. -1.
         11    1    3    3    0    0  0.84870778020E+01 -0.76414127769E+01  0.11991450810E+02  0.16559485851E+02  0.51100000000E-03 0. -1.
        -11    1    3    3    0    0 -0.11960272074E+02 -0.24780162305E+00  0.11703105862E+02  0.16735357803E+02  0.51100000000E-03 0.  1.
        -12    1    3    3    0    0  0.24284544124E+01  0.34550850937E+01  0.16708570290E+02  0.17234016507E+02  0.00000000000E+00 0.  1.
</event>
<event>
 7    1  0.5946946E-013  0.5052890E+02  0.7816164E-02  0.1300439E+00
        -11   -1    0    0    0    0  0.00000000000E+00  0.00000000000E+00  0.45593999997E+02  0.45594000000E+02  0.51100000000E-03 0. -1.
         11   -1    0    0    0    0 -0.00000000000E+00 -0.00000000000E+00 -0.45593999997E+02  0.45594000000E+02  0.51100000000E-03 0.  1.
    9900012    2    1    2    0    0 -0.18730692836E+02  0.13434223457E+02 -0.33493958688E+02  0.50528899142E+02  0.30000119431E+02 0.  0.
         12    1    1    2    0    0  0.18730692836E+02 -0.13434223457E+02  0.33493958688E+02  0.40659100858E+02  0.00000000000E+00 0. -1.
         11    1    3    3    0    0  0.59296546794E+01  0.21200256893E+01  0.10704748251E+01  0.63875840623E+01  0.51100000000E-03 0. -1.
        -11    1    3    3    0    0 -0.12465018926E+02  0.46894188204E+01 -0.19951472321E+02  0.23988092749E+02  0.51100000000E-03 0.  1.
         12    1    3    3    0    0 -0.12195328590E+02  0.66247789472E+01 -0.14612961193E+02  0.20153222331E+02  0.00000000000E+00 0. -1.
</event>
<event>
 7    1  0.5946946E-013  0.5052885E+02  0.7816164E-02  0.1300439E+00
        -11   -1    0    0    0    0  0.00000000000E+00  0.00000000000E+00  0.45593999997E+02  0.45594000000E+02  0.51100000000E-03 0.  1.
         11   -1    0    0    0    0 -0.00000000000E+00 -0.00000000000E+00 -0.45593999997E+02  0.45594000000E+02  0.51100000000E-03 0. -1.
    9900012    2    1    2    0    0  0.22940162944E+01 -0.13042419904E+02  0.38442150354E+02  0.50528854023E+02  0.29999982290E+02 0.  0.
         12    1    1    2    0    0 -0.22940162944E+01  0.13042419904E+02 -0.38442150354E+02  0.40659145977E+02  0.00000000000E+00 0. -1.
         11    1    3    3    0    0  0.50847609218E+01  0.45388671291E+01  0.22771409612E+02  0.23769585702E+02  0.51100000000E-03 0. -1.
        -11    1    3    3    0    0 -0.65059945670E+01 -0.53389820730E+01  0.90331074112E+01  0.12346243341E+02  0.51100000000E-03 0.  1.
         12    1    3    3    0    0  0.37152499396E+01 -0.12242304960E+02  0.66376333307E+01  0.14413024981E+02  0.00000000000E+00 0. -1.
</event>
<event>
 7    1  0.5946946E-013  0.5052886E+02  0.7816164E-02  0.1300439E+00
        -11   -1    0    0    0    0  0.00000000000E+00  0.00000000000E+00  0.45593999997E+02  0.45594000000E+02  0.51100000000E-03 0. -1.
         11   -1    0    0    0    0 -0.00000000000E+00 -0.00000000000E+00 -0.45593999997E+02  0.45594000000E+02  0.51100000000E-03 0.  1.
    9900012    2    1    2    0    0  0.10071662460E+02  0.26910223841E+02  0.28767468785E+02  0.50528858443E+02  0.29999995723E+02 0.  0.
         12    1    1    2    0    0 -0.10071662460E+02 -0.26910223841E+02 -0.28767468785E+02  0.40659141557E+02  0.00000000000E+00 0. -1.
         11    1    3    3    0    0  0.11488112609E+01  0.12912981220E+02 -0.21550210334E+01  0.13141878375E+02  0.51100000000E-03 0. -1.
        -11    1    3    3    0    0  0.97396765870E+01  0.12745621452E+02  0.31826406763E+02  0.35640318937E+02  0.51100000000E-03 0.  1.
        -12    1    3    3    0    0 -0.81682538788E+00  0.12516211693E+01 -0.90391694467E+00  0.17466611316E+01  0.00000000000E+00 0.  1.
</event>
<event>
 7    1  0.5946946E-013  0.5052886E+02  0.7816164E-02  0.1300439E+00
        -11   -1    0    0    0    0  0.00000000000E+00  0.00000000000E+00  0.45593999997E+02  0.45594000000E+02  0.51100000000E-03 0.  1.
         11   -1    0    0    0    0 -0.00000000000E+00 -0.00000000000E+00 -0.45593999997E+02  0.45594000000E+02  0.51100000000E-03 0. -1.
    9900012    2    1    2    0    0 -0.31633883058E+02 -0.16520227474E+02  0.19481920347E+02  0.50528859655E+02  0.29999999408E+02 0.  0.
         12    1    1    2    0    0  0.31633883058E+02  0.16520227474E+02 -0.19481920347E+02  0.40659140345E+02  0.00000000000E+00 0. -1.
         11    1    3    3    0    0 -0.12863257047E+02 -0.37503328378E+01  0.70688199438E+01  0.15149144990E+02  0.51100000000E-03 0.  1.
        -11    1    3    3    0    0 -0.22275910200E+02 -0.26969752254E+01  0.77471018611E+01  0.23738311610E+02  0.51100000000E-03 0. -1.
        -12    1    3    3    0    0  0.35052841885E+01 -0.10072919411E+02  0.46659985420E+01  0.11641403056E+02  0.00000000000E+00 0.  1.
</event>
<event>
 7    1  0.5946946E-013  0.5052885E+02  0.7816164E-02  0.1300439E+00
        -11   -1    0    0    0    0  0.00000000000E+00  0.00000000000E+00  0.45593999997E+02  0.45594000000E+02  0.51100000000E-03 0.  1.
         11   -1    0    0    0    0 -0.00000000000E+00 -0.00000000000E+00 -0.45593999997E+02  0.45594000000E+02  0.51100000000E-03 0. -1.
    9900012    2    1    2    0    0 -0.65283201595E+01 -0.35362800972E-01  0.40131614638E+02  0.50528847179E+02  0.29999961486E+02 0.  0.
         12    1    1    2    0    0  0.65283201595E+01  0.35362800972E-01 -0.40131614638E+02  0.40659152821E+02  0.00000000000E+00 0. -1.
         11    1    3    3    0    0  0.30765764932E+01  0.34090112506E+01  0.17603143467E+02  0.18192232980E+02  0.51100000000E-03 0. -1.
        -11    1    3    3    0    0 -0.15168490223E+02 -0.65815947574E+01  0.18367450967E+02  0.24713634709E+02  0.51100000000E-03 0.  1.
        -12    1    3    3    0    0  0.55635935707E+01  0.31372207058E+01  0.41610202040E+01  0.76229794906E+01  0.00000000000E+00 0.  1.
</event>
<event>
 7    1  0.5946946E-013  0.5052885E+02  0.7816164E-02  0.1300439E+00
        -11   -1    0    0    0    0  0.00000000000E+00  0.00000000000E+00  0.45593999997E+02  0.45594000000E+02  0.51100000000E-03 0.  1.
         11   -1    0    0    0    0 -0.00000000000E+00 -0.00000000000E+00 -0.45593999997E+02  0.45594000000E+02  0.51100000000E-03 0. -1.
    9900012    2    1    2    0    0  0.30331099664E+01 -0.12779594871E+02  0.38479200425E+02  0.50528847691E+02  0.29999963043E+02 0.  0.
         12    1    1    2    0    0 -0.30331099664E+01  0.12779594871E+02 -0.38479200425E+02  0.40659152309E+02  0.00000000000E+00 0. -1.
         11    1    3    3    0    0 -0.17266891147E+01 -0.25920204138E+01 -0.38578135127E+01  0.49580994831E+01  0.51100000000E-03 0. -1.
        -11    1    3    3    0    0 -0.47926995160E+00 -0.54503127475E+01  0.34853522467E+02  0.35280357670E+02  0.51100000000E-03 0.  1.
         12    1    3    3    0    0  0.52390690327E+01 -0.47372617100E+01  0.74834914706E+01  0.10290390538E+02  0.00000000000E+00 0. -1.
</event>
<event>
 7    1  0.5946946E-013  0.5052886E+02  0.7816164E-02  0.1300439E+00
        -11   -1    0    0    0    0  0.00000000000E+00  0.00000000000E+00  0.45593999997E+02  0.45594000000E+02  0.51100000000E-03 0.  1.
         11   -1    0    0    0    0 -0.00000000000E+00 -0.00000000000E+00 -0.45593999997E+02  0.45594000000E+02  0.51100000000E-03 0. -1.
    9900012    2    1    2    0    0  0.68039314468E+01 -0.80025616663E+01  0.39278891988E+02  0.50528857951E+02  0.29999994229E+02 0.  0.
         12    1    1    2    0    0 -0.68039314468E+01  0.80025616663E+01 -0.39278891988E+02  0.40659142049E+02  0.00000000000E+00 0. -1.
         11    1    3    3    0    0 -0.33949057674E+01 -0.83428798279E+01  0.53462118564E+01  0.10474302386E+02  0.51100000000E-03 0. -1.
        -11    1    3    3    0    0  0.71352215580E+01  0.17785593307E+01  0.35550693041E+02  0.36303256547E+02  0.51100000000E-03 0.  1.
        -12    1    3    3    0    0  0.30636156562E+01 -0.14382411691E+01 -0.16180129098E+01  0.37512990184E+01  0.00000000000E+00 0.  1.
</event>
<event>
 7    1  0.5946946E-013  0.5052892E+02  0.7816164E-02  0.1300439E+00
        -11   -1    0    0    0    0  0.00000000000E+00  0.00000000000E+00  0.45593999997E+02  0.45594000000E+02  0.51100000000E-03 0.  1.
         11   -1    0    0    0    0 -0.00000000000E+00 -0.00000000000E+00 -0.45593999997E+02  0.45594000000E+02  0.51100000000E-03 0. -1.
    9900012    2    1    2    0    0 -0.23201769838E+02 -0.26691807563E+02  0.20059554983E+02  0.50528924006E+02  0.30000195008E+02 0.  0.
         12    1    1    2    0    0  0.23201769838E+02  0.26691807563E+02 -0.20059554983E+02  0.40659075994E+02  0.00000000000E+00 0. -1.
         11    1    3    3    0    0 -0.28379931476E+01  0.12917581703E+01  0.14863112284E+02  0.15186670185E+02  0.51100000000E-03 0. -1.
        -11    1    3    3    0    0 -0.71928419489E+01 -0.13914970608E+02  0.29587246180E+01  0.15941061256E+02  0.51100000000E-03 0.  1.
         12    1    3    3    0    0 -0.13170934742E+02 -0.14068595125E+02  0.22377180810E+01  0.19401192566E+02  0.00000000000E+00 0. -1.
</event>
<event>
 7    1  0.5946946E-013  0.5052886E+02  0.7816164E-02  0.1300439E+00
        -11   -1    0    0    0    0  0.00000000000E+00  0.00000000000E+00  0.45593999997E+02  0.45594000000E+02  0.51100000000E-03 0. -1.
         11   -1    0    0    0    0 -0.00000000000E+00 -0.00000000000E+00 -0.45593999997E+02  0.45594000000E+02  0.51100000000E-03 0.  1.
    9900012    2    1    2    0    0 -0.17230011570E+02  0.34551008815E+02  0.12748339837E+02  0.50528859853E+02  0.30000000010E+02 0.  0.
         12    1    1    2    0    0  0.17230011570E+02 -0.34551008815E+02 -0.12748339837E+02  0.40659140147E+02  0.00000000000E+00 0. -1.
         11    1    3    3    0    0  0.23740602780E+00 -0.22346156813E+01 -0.44154349458E+01  0.49543854197E+01  0.51100000000E-03 0. -1.
        -11    1    3    3    0    0 -0.10681482575E+02  0.26632923528E+02  0.66388023686E+01  0.29453019927E+02  0.51100000000E-03 0.  1.
        -12    1    3    3    0    0 -0.67859350229E+01  0.10152700968E+02  0.10524972414E+02  0.16121454507E+02  0.00000000000E+00 0.  1.
</event>
<event>
 7    1  0.5946946E-013  0.5052886E+02  0.7816164E-02  0.1300439E+00
        -11   -1    0    0    0    0  0.00000000000E+00  0.00000000000E+00  0.45593999997E+02  0.45594000000E+02  0.51100000000E-03 0. -1.
         11   -1    0    0    0    0 -0.00000000000E+00 -0.00000000000E+00 -0.45593999997E+02  0.45594000000E+02  0.51100000000E-03 0.  1.
    9900012    2    1    2    0    0  0.17030105424E+02 -0.36467530142E+02  0.57671968573E+01  0.50528858285E+02  0.29999995243E+02 0.  0.
         12    1    1    2    0    0 -0.17030105424E+02  0.36467530142E+02 -0.57671968573E+01  0.40659141715E+02  0.00000000000E+00 0. -1.
         11    1    3    3    0    0 -0.41053051330E+01 -0.54543001623E+01  0.27617244130E+01  0.73641050027E+01  0.51100000000E-03 0. -1.
        -11    1    3    3    0    0  0.21821338514E+02 -0.26701837042E+02  0.91030792030E+01  0.35665459021E+02  0.51100000000E-03 0.  1.
        -12    1    3    3    0    0 -0.68592795697E+00 -0.43113929378E+01 -0.60976067587E+01  0.74992942608E+01  0.00000000000E+00 0.  1.
</event>
<event>
 7    1  0.5946946E-013  0.5052886E+02  0.7816164E-02  0.1300439E+00
        -11   -1    0    0    0    0  0.00000000000E+00  0.00000000000E+00  0.45593999997E+02  0.45594000000E+02  0.51100000000E-03 0. -1.
         11   -1    0    0    0    0 -0.00000000000E+00 -0.00000000000E+00 -0.45593999997E+02  0.45594000000E+02  0.51100000000E-03 0.  1.
    9900012    2    1    2    0    0  0.33391294997E+02 -0.18447347506E+02 -0.14067064955E+02  0.50528861691E+02  0.30000005596E+02 0.  0.
         12    1    1    2    0    0 -0.33391294997E+02  0.18447347506E+02  0.14067064955E+02  0.40659138309E+02  0.00000000000E+00 0. -1.
         11    1    3    3    0    0 -0.33368030740E+00 -0.66462428059E+01  0.33645810783E+01  0.74568285535E+01  0.51100000000E-03 0. -1.
        -11    1    3    3    0    0  0.20660747687E+02  0.10525913004E+01 -0.12181296765E+02  0.24007466226E+02  0.51100000000E-03 0.  1.
         12    1    3    3    0    0  0.13064227617E+02 -0.12853696000E+02 -0.52503492684E+01  0.19064566912E+02  0.00000000000E+00 0. -1.
</event>
<event>
 7    1  0.5946946E-013  0.5052886E+02  0.7816164E-02  0.1300439E+00
        -11   -1    0    0    0    0  0.00000000000E+00  0.00000000000E+00  0.45593999997E+02  0.45594000000E+02  0.51100000000E-03 0.  1.
         11   -1    0    0    0    0 -0.00000000000E+00 -0.00000000000E+00 -0.45593999997E+02  0.45594000000E+02  0.51100000000E-03 0. -1.
    9900012    2    1    2    0    0  0.12277432962E+02 -0.27942680137E+02  0.26863297301E+02  0.50528862340E+02  0.30000007568E+02 0.  0.
         12    1    1    2    0    0 -0.12277432962E+02  0.27942680137E+02 -0.26863297301E+02  0.40659137660E+02  0.00000000000E+00 0. -1.
         11    1    3    3    0    0 -0.49431154315E-01  0.11544431975E+01  0.67584556813E+01  0.68565228791E+01  0.51100000000E-03 0. -1.
        -11    1    3    3    0    0  0.16134530536E+02 -0.28790840280E+02  0.12742622692E+02  0.35378100471E+02  0.51100000000E-03 0.  1.
        -12    1    3    3    0    0 -0.38076664194E+01 -0.30628305485E+00  0.73622189278E+01  0.82942389893E+01  0.00000000000E+00 0.  1.
</event>
<event>
 7    1  0.5946946E-013  0.5052886E+02  0.7816164E-02  0.1300439E+00
        -11   -1    0    0    0    0  0.00000000000E+00  0.00000000000E+00  0.45593999997E+02  0.45594000000E+02  0.51100000000E-03 0. -1.
         11   -1    0    0    0    0 -0.00000000000E+00 -0.00000000000E+00 -0.45593999997E+02  0.45594000000E+02  0.51100000000E-03 0.  1.
    9900012    2    1    2    0    0 -0.19405245770E+02  0.34190692721E+02  0.10372966869E+02  0.50528862358E+02  0.30000007623E+02 0.  0.
         12    1    1    2    0    0  0.19405245770E+02 -0.34190692721E+02 -0.10372966869E+02  0.40659137642E+02  0.00000000000E+00 0. -1.
         11    1    3    3    0    0 -0.67980854895E+01  0.31780734638E+02  0.90906065351E+00  0.32512389208E+02  0.51100000000E-03 0.  1.
        -11    1    3    3    0    0 -0.13223365659E+02  0.18262453353E+01  0.10272724423E+02  0.16844032733E+02  0.51100000000E-03 0. -1.
         12    1    3    3    0    0  0.61620537809E+00  0.58371274737E+00 -0.80881820747E+00  0.11724404173E+01  0.00000000000E+00 0. -1.
</event>
<event>
 7    1  0.5946946E-013  0.5052886E+02  0.7816164E-02  0.1300439E+00
        -11   -1    0    0    0    0  0.00000000000E+00  0.00000000000E+00  0.45593999997E+02  0.45594000000E+02  0.51100000000E-03 0. -1.
         11   -1    0    0    0    0 -0.00000000000E+00 -0.00000000000E+00 -0.45593999997E+02  0.45594000000E+02  0.51100000000E-03 0.  1.
    9900012    2    1    2    0    0 -0.40008771227E+02 -0.19721170355E+01 -0.69695666433E+01  0.50528857364E+02  0.29999992445E+02 0.  0.
         12    1    1    2    0    0  0.40008771227E+02  0.19721170355E+01  0.69695666433E+01  0.40659142636E+02  0.00000000000E+00 0. -1.
         11    1    3    3    0    0 -0.10290841602E+02  0.16761898695E+01  0.30254945050E+01  0.10856548744E+02  0.51100000000E-03 0. -1.
        -11    1    3    3    0    0 -0.92569352922E+01 -0.12287026536E+02 -0.80887927007E+01  0.17380749112E+02  0.51100000000E-03 0.  1.
        -12    1    3    3    0    0 -0.20460994332E+02  0.86387196306E+01 -0.19062684476E+01  0.22291559508E+02  0.00000000000E+00 0.  1.
</event>
<event>
 7    1  0.5946946E-013  0.5052886E+02  0.7816164E-02  0.1300439E+00
        -11   -1    0    0    0    0  0.00000000000E+00  0.00000000000E+00  0.45593999997E+02  0.45594000000E+02  0.51100000000E-03 0.  1.
         11   -1    0    0    0    0 -0.00000000000E+00 -0.00000000000E+00 -0.45593999997E+02  0.45594000000E+02  0.51100000000E-03 0. -1.
    9900012    2    1    2    0    0  0.38906161191E+02  0.30140137325E+01  0.11418942786E+02  0.50528856972E+02  0.29999991253E+02 0.  0.
         12    1    1    2    0    0 -0.38906161191E+02 -0.30140137325E+01 -0.11418942786E+02  0.40659143028E+02  0.00000000000E+00 0. -1.
         11    1    3    3    0    0  0.60602037285E+01  0.31671782987E+01  0.58050242088E+01  0.89696930791E+01  0.51100000000E-03 0. -1.
        -11    1    3    3    0    0  0.21538719580E+02 -0.12051790258E+02  0.20799571453E+01  0.24768696202E+02  0.51100000000E-03 0.  1.
        -12    1    3    3    0    0  0.11307237883E+02  0.11898625692E+02  0.35339614324E+01  0.16790467691E+02  0.00000000000E+00 0.  1.
</event>
<event>
 7    1  0.5946946E-013  0.5052886E+02  0.7816164E-02  0.1300439E+00
        -11   -1    0    0    0    0  0.00000000000E+00  0.00000000000E+00  0.45593999997E+02  0.45594000000E+02  0.51100000000E-03 0. -1.
         11   -1    0    0    0    0 -0.00000000000E+00 -0.00000000000E+00 -0.45593999997E+02  0.45594000000E+02  0.51100000000E-03 0.  1.
    9900012    2    1    2    0    0 -0.60440611465E+01 -0.26919294993E+02 -0.29866144182E+02  0.50528859743E+02  0.29999999676E+02 0.  0.
         12    1    1    2    0    0  0.60440611465E+01  0.26919294993E+02  0.29866144182E+02  0.40659140257E+02  0.00000000000E+00 0. -1.
         11    1    3    3    0    0  0.76580021963E+01 -0.40453774222E+01 -0.17188601231E+01  0.88297540458E+01  0.51100000000E-03 0. -1.
        -11    1    3    3    0    0 -0.23008886324E+01 -0.14980666295E+02 -0.21541646266E+02  0.26339266794E+02  0.51100000000E-03 0.  1.
         12    1    3    3    0    0 -0.11401174710E+02 -0.78932512758E+01 -0.66056377934E+01  0.15359838903E+02  0.00000000000E+00 0. -1.
</event>
<event>
 7    1  0.5946946E-013  0.5052888E+02  0.7816164E-02  0.1300439E+00
        -11   -1    0    0    0    0  0.00000000000E+00  0.00000000000E+00  0.45593999997E+02  0.45594000000E+02  0.51100000000E-03 0.  1.
         11   -1    0    0    0    0 -0.00000000000E+00 -0.00000000000E+00 -0.45593999997E+02  0.45594000000E+02  0.51100000000E-03 0. -1.
    9900012    2    1    2    0    0 -0.30549831397E+02  0.13841945767E+02  0.22984184769E+02  0.50528875434E+02  0.30000047368E+02 0.  0.
         12    1    1    2    0    0  0.30549831397E+02 -0.13841945767E+02 -0.22984184769E+02  0.40659124566E+02  0.00000000000E+00 0. -1.
         11    1    3    3    0    0 -0.39018257932E+01 -0.58558201430E+01  0.12340906142E+02  0.14206084567E+02  0.51100000000E-03 0. -1.
        -11    1    3    3    0    0 -0.15705384934E+02  0.16861359967E+02  0.45739498945E+01  0.23492245396E+02  0.51100000000E-03 0.  1.
         12    1    3    3    0    0 -0.10942620670E+02  0.28364059432E+01  0.60693287330E+01  0.12830545471E+02  0.00000000000E+00 0. -1.
</event>
<event>
 7    1  0.5946946E-013  0.5052885E+02  0.7816164E-02  0.1300439E+00
        -11   -1    0    0    0    0  0.00000000000E+00  0.00000000000E+00  0.45593999997E+02  0.45594000000E+02  0.51100000000E-03 0.  1.
         11   -1    0    0    0    0 -0.00000000000E+00 -0.00000000000E+00 -0.45593999997E+02  0.45594000000E+02  0.51100000000E-03 0. -1.
    9900012    2    1    2    0    0 -0.92198676497E+01 -0.39331736043E+02 -0.46015926304E+01  0.50528854972E+02  0.29999985174E+02 0.  0.
         12    1    1    2    0    0  0.92198676497E+01  0.39331736043E+02  0.46015926304E+01  0.40659145028E+02  0.00000000000E+00 0. -1.
         11    1    3    3    0    0 -0.30130839098E+01 -0.33443271796E+01  0.32344331411E+01  0.55429916955E+01  0.51100000000E-03 0. -1.
        -11    1    3    3    0    0 -0.11052217258E+02 -0.36947783046E+02 -0.95971669036E+01  0.39741612841E+02  0.51100000000E-03 0.  1.
        -12    1    3    3    0    0  0.48454335183E+01  0.96037418225E+00  0.17611411321E+01  0.52442504362E+01  0.00000000000E+00 0.  1.
</event>
<event>
 7    1  0.5946946E-013  0.5052886E+02  0.7816164E-02  0.1300439E+00
        -11   -1    0    0    0    0  0.00000000000E+00  0.00000000000E+00  0.45593999997E+02  0.45594000000E+02  0.51100000000E-03 0.  1.
         11   -1    0    0    0    0 -0.00000000000E+00 -0.00000000000E+00 -0.45593999997E+02  0.45594000000E+02  0.51100000000E-03 0. -1.
    9900012    2    1    2    0    0  0.11493645975E+02 -0.38999121495E+02  0.36121724943E+00  0.50528857694E+02  0.29999993447E+02 0.  0.
         12    1    1    2    0    0 -0.11493645975E+02  0.38999121495E+02 -0.36121724943E+00  0.40659142306E+02  0.00000000000E+00 0. -1.
         11    1    3    3    0    0  0.85725812839E-01 -0.37340945716E+02  0.54272609173E+01  0.37733390216E+02  0.51100000000E-03 0.  1.
        -11    1    3    3    0    0  0.10232605802E+02 -0.12734302507E+01 -0.52054391408E+01  0.11550949875E+02  0.51100000000E-03 0. -1.
        -12    1    3    3    0    0  0.11753143600E+01 -0.38474552807E+00  0.13939547288E+00  0.12445176030E+01  0.00000000000E+00 0.  1.
</event>
<event>
 7    1  0.6011012E-013  0.5052884E+02  0.7816164E-02  0.1300439E+00
        -11   -1    0    0    0    0  0.00000000000E+00  0.00000000000E+00  0.45593999997E+02  0.45594000000E+02  0.51100000000E-03 0. -1.
         11   -1    0    0    0    0 -0.00000000000E+00 -0.00000000000E+00 -0.45593999997E+02  0.45594000000E+02  0.51100000000E-03 0.  1.
    9900012    2    1    2    0    0 -0.61808291883E+01 -0.37847132757E+01 -0.40008007751E+02  0.50528838815E+02  0.29999936062E+02 0.  0.
         12    1    1    2    0    0  0.61808291883E+01  0.37847132757E+01  0.40008007751E+02  0.40659161185E+02  0.00000000000E+00 0. -1.
         11    1    3    3    0    0  0.79622767050E+01 -0.83585007483E+01 -0.14663776429E+02  0.18662495130E+02  0.51100000000E-03 0. -1.
        -11    1    3    3    0    0 -0.11405741918E+02 -0.71895683992E+00 -0.92444376155E+01  0.14699233814E+02  0.51100000000E-03 0.  1.
        -12    1    3    3    0    0 -0.27373639755E+01  0.52927443126E+01 -0.16099793707E+02  0.17167109871E+02  0.00000000000E+00 0.  1.
</event>
<event>
 7    1  0.5946946E-013  0.5052885E+02  0.7816164E-02  0.1300439E+00
        -11   -1    0    0    0    0  0.00000000000E+00  0.00000000000E+00  0.45593999997E+02  0.45594000000E+02  0.51100000000E-03 0. -1.
         11   -1    0    0    0    0 -0.00000000000E+00 -0.00000000000E+00 -0.45593999997E+02  0.45594000000E+02  0.51100000000E-03 0.  1.
    9900012    2    1    2    0    0 -0.20218644775E+01 -0.40439418549E+02 -0.37056765082E+01  0.50528849161E+02  0.29999967510E+02 0.  0.
         12    1    1    2    0    0  0.20218644775E+01  0.40439418549E+02  0.37056765082E+01  0.40659150839E+02  0.00000000000E+00 0. -1.
         11    1    3    3    0    0 -0.82069269510E+01 -0.12764578190E+02  0.80564255303E+01  0.17181213547E+02  0.51100000000E-03 0. -1.
        -11    1    3    3    0    0  0.54946732046E+00 -0.24764937393E+02 -0.83177972297E+01  0.26130246639E+02  0.51100000000E-03 0.  1.
         12    1    3    3    0    0  0.56355951530E+01 -0.29099029660E+01 -0.34443048089E+01  0.72173889750E+01  0.00000000000E+00 0. -1.
</event>
<event>
 7    1  0.5946946E-013  0.5052886E+02  0.7816164E-02  0.1300439E+00
        -11   -1    0    0    0    0  0.00000000000E+00  0.00000000000E+00  0.45593999997E+02  0.45594000000E+02  0.51100000000E-03 0.  1.
         11   -1    0    0    0    0 -0.00000000000E+00 -0.00000000000E+00 -0.45593999997E+02  0.45594000000E+02  0.51100000000E-03 0. -1.
    9900012    2    1    2    0    0 -0.49619950823E+00 -0.27746288227E+02  0.29716373873E+02  0.50528860800E+02  0.30000002886E+02 0.  0.
         12    1    1    2    0    0  0.49619950823E+00  0.27746288227E+02 -0.29716373873E+02  0.40659139200E+02  0.00000000000E+00 0. -1.
         11    1    3    3    0    0  0.60906308430E+01 -0.14871629603E+00 -0.13898639816E+01  0.62489697351E+01  0.51100000000E-03 0. -1.
        -11    1    3    3    0    0  0.11403886736E+01 -0.79376074664E+01  0.17233356902E+02  0.19007753392E+02  0.51100000000E-03 0.  1.
         12    1    3    3    0    0 -0.77272190248E+01 -0.19659964465E+02  0.13872880952E+02  0.25272137673E+02  0.00000000000E+00 0. -1.
</event>
<event>
 7    1  0.5946946E-013  0.5052887E+02  0.7816164E-02  0.1300439E+00
        -11   -1    0    0    0    0  0.00000000000E+00  0.00000000000E+00  0.45593999997E+02  0.45594000000E+02  0.51100000000E-03 0.  1.
         11   -1    0    0    0    0 -0.00000000000E+00 -0.00000000000E+00 -0.45593999997E+02  0.45594000000E+02  0.51100000000E-03 0. -1.
    9900012    2    1    2    0    0  0.21832930254E+02  0.32805626488E+02  0.10013926840E+02  0.50528871830E+02  0.30000036414E+02 0.  0.
         12    1    1    2    0    0 -0.21832930254E+02 -0.32805626488E+02 -0.10013926840E+02  0.40659128170E+02  0.00000000000E+00 0. -1.
         11    1    3    3    0    0  0.22086094646E+01 -0.55764136920E+00  0.26731382226E+01  0.35120631945E+01  0.51100000000E-03 0. -1.
        -11    1    3    3    0    0  0.54925005854E+01  0.30856739063E+02  0.88975373769E+01  0.32580240636E+02  0.51100000000E-03 0.  1.
        -12    1    3    3    0    0  0.14131820204E+02  0.25065287945E+01 -0.15567487593E+01  0.14436567999E+02  0.00000000000E+00 0.  1.
</event>
<event>
 7    1  0.5946946E-013  0.5052886E+02  0.7816164E-02  0.1300439E+00
        -11   -1    0    0    0    0  0.00000000000E+00  0.00000000000E+00  0.45593999997E+02  0.45594000000E+02  0.51100000000E-03 0. -1.
         11   -1    0    0    0    0 -0.00000000000E+00 -0.00000000000E+00 -0.45593999997E+02  0.45594000000E+02  0.51100000000E-03 0.  1.
    9900012    2    1    2    0    0 -0.16652421960E+02  0.75646521032E+01 -0.36313064721E+02  0.50528858494E+02  0.29999995878E+02 0.  0.
         12    1    1    2    0    0  0.16652421960E+02 -0.75646521032E+01  0.36313064721E+02  0.40659141506E+02  0.00000000000E+00 0. -1.
         11    1    3    3    0    0 -0.21954938473E+02  0.28717288902E+01 -0.27201964573E+02  0.35074392754E+02  0.51100000000E-03 0. -1.
        -11    1    3    3    0    0  0.33215481895E+01 -0.29698984941E+01 -0.23091060634E+01  0.50184609706E+01  0.51100000000E-03 0.  1.
         12    1    3    3    0    0  0.19809683233E+01  0.76628217071E+01 -0.68019940851E+01  0.10436004769E+02  0.00000000000E+00 0. -1.
</event>
<event>
 7    1  0.5946946E-013  0.5052887E+02  0.7816164E-02  0.1300439E+00
        -11   -1    0    0    0    0  0.00000000000E+00  0.00000000000E+00  0.45593999997E+02  0.45594000000E+02  0.51100000000E-03 0.  1.
         11   -1    0    0    0    0 -0.00000000000E+00 -0.00000000000E+00 -0.45593999997E+02  0.45594000000E+02  0.51100000000E-03 0. -1.
    9900012    2    1    2    0    0 -0.22615881989E+02  0.33756563805E+02 -0.14769479436E+01  0.50528867038E+02  0.30000021848E+02 0.  0.
         12    1    1    2    0    0  0.22615881989E+02 -0.33756563805E+02  0.14769479436E+01  0.40659132962E+02  0.00000000000E+00 0. -1.
         11    1    3    3    0    0  0.52891948167E+01  0.38175121476E+01 -0.23509288382E+01  0.69336748892E+01  0.51100000000E-03 0. -1.
        -11    1    3    3    0    0 -0.24396458734E+02  0.31126899895E+02  0.23256473923E+01  0.39616659777E+02  0.51100000000E-03 0.  1.
        -12    1    3    3    0    0 -0.35086180713E+01 -0.11878482384E+01 -0.14516664977E+01  0.39785323712E+01  0.00000000000E+00 0.  1.
</event>
<event>
 7    1  0.5946946E-013  0.5052885E+02  0.7816164E-02  0.1300439E+00
        -11   -1    0    0    0    0  0.00000000000E+00  0.00000000000E+00  0.45593999997E+02  0.45594000000E+02  0.51100000000E-03 0.  1.
         11   -1    0    0    0    0 -0.00000000000E+00 -0.00000000000E+00 -0.45593999997E+02  0.45594000000E+02  0.51100000000E-03 0. -1.
    9900012    2    1    2    0    0  0.12318895160E+01  0.87133629229E+01  0.39695415694E+02  0.50528852538E+02  0.29999977774E+02 0.  0.
         12    1    1    2    0    0 -0.12318895160E+01 -0.87133629229E+01 -0.39695415694E+02  0.40659147462E+02  0.00000000000E+00 0. -1.
         11    1    3    3    0    0 -0.37205978593E+01  0.10169051601E+02  0.97940238349E+01  0.14600526088E+02  0.51100000000E-03 0. -1.
        -11    1    3    3    0    0  0.19272112567E+01 -0.31302008922E+01  0.31780873778E+02  0.31992752917E+02  0.51100000000E-03 0.  1.
         12    1    3    3    0    0  0.30252761186E+01  0.16745122140E+01 -0.18794819190E+01  0.39355735329E+01  0.00000000000E+00 0. -1.
</event>
<event>
 7    1  0.5946946E-013  0.5052886E+02  0.7816164E-02  0.1300439E+00
        -11   -1    0    0    0    0  0.00000000000E+00  0.00000000000E+00  0.45593999997E+02  0.45594000000E+02  0.51100000000E-03 0. -1.
         11   -1    0    0    0    0 -0.00000000000E+00 -0.00000000000E+00 -0.45593999997E+02  0.45594000000E+02  0.51100000000E-03 0.  1.
    9900012    2    1    2    0    0 -0.20710192010E+02  0.20483290859E+02 -0.28367032910E+02  0.50528858179E+02  0.29999994921E+02 0.  0.
         12    1    1    2    0    0  0.20710192010E+02 -0.20483290859E+02  0.28367032910E+02  0.40659141821E+02  0.00000000000E+00 0. -1.
         11    1    3    3    0    0  0.46576122331E+01  0.55116744283E+01 -0.48842782187E+01  0.87136720558E+01  0.51100000000E-03 0. -1.
        -11    1    3    3    0    0 -0.87652246924E+01  0.27583824356E+01 -0.18430361717E+02  0.20594078539E+02  0.51100000000E-03 0.  1.
        -12    1    3    3    0    0 -0.16602579550E+02  0.12213233995E+02 -0.50523929742E+01  0.21221107584E+02  0.00000000000E+00 0.  1.
</event>
<event>
 7    1  0.5946946E-013  0.5052886E+02  0.7816164E-02  0.1300439E+00
        -11   -1    0    0    0    0  0.00000000000E+00  0.00000000000E+00  0.45593999997E+02  0.45594000000E+02  0.51100000000E-03 0. -1.
         11   -1    0    0    0    0 -0.00000000000E+00 -0.00000000000E+00 -0.45593999997E+02  0.45594000000E+02  0.51100000000E-03 0.  1.
    9900012    2    1    2    0    0 -0.60906153596E+01 -0.24404499359E+02 -0.31945114821E+02  0.50528861478E+02  0.30000004949E+02 0.  0.
         12    1    1    2    0    0  0.60906153596E+01  0.24404499359E+02  0.31945114821E+02  0.40659138522E+02  0.00000000000E+00 0. -1.
         11    1    3    3    0    0  0.39423185185E+00  0.57314808314E+01 -0.78580075169E+00  0.57985148406E+01  0.51100000000E-03 0. -1.
        -11    1    3    3    0    0 -0.20718184347E+01 -0.19199076970E+02 -0.24469746185E+02  0.31171548995E+02  0.51100000000E-03 0.  1.
         12    1    3    3    0    0 -0.44130287768E+01 -0.10936903220E+02 -0.66895678847E+01  0.13558797642E+02  0.00000000000E+00 0. -1.
</event>
<event>
 7    1  0.5946946E-013  0.5052886E+02  0.7816164E-02  0.1300439E+00
        -11   -1    0    0    0    0  0.00000000000E+00  0.00000000000E+00  0.45593999997E+02  0.45594000000E+02  0.51100000000E-03 0. -1.
         11   -1    0    0    0    0 -0.00000000000E+00 -0.00000000000E+00 -0.45593999997E+02  0.45594000000E+02  0.51100000000E-03 0.  1.
    9900012    2    1    2    0    0 -0.84443593140E+00 -0.34734774717E+02 -0.21117485581E+02  0.50528857806E+02  0.29999993788E+02 0.  0.
         12    1    1    2    0    0  0.84443593140E+00  0.34734774717E+02  0.21117485581E+02  0.40659142194E+02  0.00000000000E+00 0. -1.
         11    1    3    3    0    0  0.14072949914E+02 -0.13893536123E+02 -0.74586302317E+01  0.21135501661E+02  0.51100000000E-03 0. -1.
        -11    1    3    3    0    0 -0.91036424188E+01 -0.92564607833E+01 -0.56674208564E+01  0.14166087355E+02  0.51100000000E-03 0.  1.
         12    1    3    3    0    0 -0.58137434267E+01 -0.11584777811E+02 -0.79914344926E+01  0.15227268790E+02  0.00000000000E+00 0. -1.
</event>
<event>
 7    1  0.5946946E-013  0.5052885E+02  0.7816164E-02  0.1300439E+00
        -11   -1    0    0    0    0  0.00000000000E+00  0.00000000000E+00  0.45593999997E+02  0.45594000000E+02  0.51100000000E-03 0.  1.
         11   -1    0    0    0    0 -0.00000000000E+00 -0.00000000000E+00 -0.45593999997E+02  0.45594000000E+02  0.51100000000E-03 0. -1.
    9900012    2    1    2    0    0 -0.28685763849E+02 -0.27590741338E+02  0.83092731695E+01  0.50528854955E+02  0.29999985121E+02 0.  0.
         12    1    1    2    0    0  0.28685763849E+02  0.27590741338E+02 -0.83092731695E+01  0.40659145045E+02  0.00000000000E+00 0. -1.
         11    1    3    3    0    0 -0.11408388948E+02  0.20485682492E+01  0.28027548128E+01  0.11924906920E+02  0.51100000000E-03 0. -1.
        -11    1    3    3    0    0 -0.16727172431E+02 -0.25503008805E+02  0.10353136491E+02  0.32208526683E+02  0.51100000000E-03 0.  1.
         12    1    3    3    0    0 -0.55020247043E+00 -0.41363007824E+01 -0.48466181347E+01  0.63954213516E+01  0.00000000000E+00 0. -1.
</event>
<event>
 7    1  0.5946946E-013  0.5052886E+02  0.7816164E-02  0.1300439E+00
        -11   -1    0    0    0    0  0.00000000000E+00  0.00000000000E+00  0.45593999997E+02  0.45594000000E+02  0.51100000000E-03 0. -1.
         11   -1    0    0    0    0 -0.00000000000E+00 -0.00000000000E+00 -0.45593999997E+02  0.45594000000E+02  0.51100000000E-03 0.  1.
    9900012    2    1    2    0    0 -0.29279031493E+02 -0.72017158063E+01 -0.27277076684E+02  0.50528864395E+02  0.30000013816E+02 0.  0.
         12    1    1    2    0    0  0.29279031493E+02  0.72017158063E+01  0.27277076684E+02  0.40659135605E+02  0.00000000000E+00 0. -1.
         11    1    3    3    0    0 -0.12820648053E+02 -0.21832751812E+01  0.15610325260E+01  0.13098569762E+02  0.51100000000E-03 0. -1.
        -11    1    3    3    0    0 -0.16753940348E+02  0.19063151761E+01 -0.21694058851E+02  0.27476548990E+02  0.51100000000E-03 0.  1.
        -12    1    3    3    0    0  0.29555690746E+00 -0.69247558012E+01 -0.71440503591E+01  0.99537456430E+01  0.00000000000E+00 0.  1.
</event>
<event>
 7    1  0.5946946E-013  0.5052886E+02  0.7816164E-02  0.1300439E+00
        -11   -1    0    0    0    0  0.00000000000E+00  0.00000000000E+00  0.45593999997E+02  0.45594000000E+02  0.51100000000E-03 0.  1.
         11   -1    0    0    0    0 -0.00000000000E+00 -0.00000000000E+00 -0.45593999997E+02  0.45594000000E+02  0.51100000000E-03 0. -1.
    9900012    2    1    2    0    0 -0.22788831750E+02 -0.12186192645E+02  0.31389996182E+02  0.50528855837E+02  0.29999987803E+02 0.  0.
         12    1    1    2    0    0  0.22788831750E+02  0.12186192645E+02 -0.31389996182E+02  0.40659144163E+02  0.00000000000E+00 0. -1.
         11    1    3    3    0    0  0.24366495106E+01 -0.36148812844E+00 -0.20831375272E+01  0.32260497087E+01  0.51100000000E-03 0. -1.
        -11    1    3    3    0    0 -0.94314744250E+01 -0.57244590028E+01  0.27016343312E+02  0.29182271106E+02  0.51100000000E-03 0.  1.
        -12    1    3    3    0    0 -0.15794006836E+02 -0.61002455136E+01  0.64567903979E+01  0.18120535022E+02  0.00000000000E+00 0.  1.
</event>
<event>
 7    1  0.5946946E-013  0.5052885E+02  0.7816164E-02  0.1300439E+00
        -11   -1    0    0    0    0  0.00000000000E+00  0.00000000000E+00  0.45593999997E+02  0.45594000000E+02  0.51100000000E-03 0. -1.
         11   -1    0    0    0    0 -0.00000000000E+00 -0.00000000000E+00 -0.45593999997E+02  0.45594000000E+02  0.51100000000E-03 0.  1.
    9900012    2    1    2    0    0 -0.14392144111E+02  0.14596665083E+01 -0.37998707654E+02  0.50528853159E+02  0.29999979663E+02 0.  0.
         12    1    1    2    0    0  0.14392144111E+02 -0.14596665083E+01  0.37998707654E+02  0.40659146841E+02  0.00000000000E+00 0. -1.
         11    1    3    3    0    0 -0.22396223769E+01 -0.31536633205E+01  0.33160615782E+01  0.50948763854E+01  0.51100000000E-03 0. -1.
        -11    1    3    3    0    0 -0.51410092009E+00 -0.38804631063E+01 -0.14189580910E+02  0.14719595794E+02  0.51100000000E-03 0.  1.
         12    1    3    3    0    0 -0.11638420814E+02  0.84937929351E+01 -0.27125188322E+02  0.30714380980E+02  0.00000000000E+00 0. -1.
</event>
<event>
 7    1  0.5946946E-013  0.5052886E+02  0.7816164E-02  0.1300439E+00
        -11   -1    0    0    0    0  0.00000000000E+00  0.00000000000E+00  0.45593999997E+02  0.45594000000E+02  0.51100000000E-03 0.  1.
         11   -1    0    0    0    0 -0.00000000000E+00 -0.00000000000E+00 -0.45593999997E+02  0.45594000000E+02  0.51100000000E-03 0. -1.
    9900012    2    1    2    0    0  0.22426363261E+02 -0.91305210827E+01  0.32662781122E+02  0.50528862589E+02  0.30000008326E+02 0.  0.
         12    1    1    2    0    0 -0.22426363261E+02  0.91305210827E+01 -0.32662781122E+02  0.40659137411E+02  0.00000000000E+00 0. -1.
         11    1    3    3    0    0  0.16785493853E+02 -0.16947879403E+02  0.16717337388E+02  0.29128212951E+02  0.51100000000E-03 0. -1.
        -11    1    3    3    0    0  0.67686101424E+01  0.36889659023E+01  0.39439651590E+01  0.86589499435E+01  0.51100000000E-03 0.  1.
         12    1    3    3    0    0 -0.11277407340E+01  0.41283924175E+01  0.12001478575E+02  0.12741699694E+02  0.00000000000E+00 0. -1.
</event>
<event>
 7    1  0.5946946E-013  0.5052886E+02  0.7816164E-02  0.1300439E+00
        -11   -1    0    0    0    0  0.00000000000E+00  0.00000000000E+00  0.45593999997E+02  0.45594000000E+02  0.51100000000E-03 0.  1.
         11   -1    0    0    0    0 -0.00000000000E+00 -0.00000000000E+00 -0.45593999997E+02  0.45594000000E+02  0.51100000000E-03 0. -1.
    9900012    2    1    2    0    0 -0.31162016407E+01 -0.32674423007E+02  0.23996601064E+02  0.50528862108E+02  0.30000006864E+02 0.  0.
         12    1    1    2    0    0  0.31162016407E+01  0.32674423007E+02 -0.23996601064E+02  0.40659137892E+02  0.00000000000E+00 0. -1.
         11    1    3    3    0    0 -0.44867675339E+01 -0.11824848023E+02  0.22261855966E+02  0.25603678348E+02  0.51100000000E-03 0. -1.
        -11    1    3    3    0    0  0.33367863270E+01 -0.21721509115E+02  0.33568492903E+01  0.22231206415E+02  0.51100000000E-03 0.  1.
         12    1    3    3    0    0 -0.19662204339E+01  0.87193413136E+00 -0.16221041924E+01  0.26939773449E+01  0.00000000000E+00 0. -1.
</event>
<event>
 7    1  0.5946946E-013  0.5052886E+02  0.7816164E-02  0.1300439E+00
        -11   -1    0    0    0    0  0.00000000000E+00  0.00000000000E+00  0.45593999997E+02  0.45594000000E+02  0.51100000000E-03 0.  1.
         11   -1    0    0    0    0 -0.00000000000E+00 -0.00000000000E+00 -0.45593999997E+02  0.45594000000E+02  0.51100000000E-03 0. -1.
    9900012    2    1    2    0    0 -0.26577116980E+02 -0.26556659092E+02  0.15542397993E+02  0.50528862965E+02  0.30000009469E+02 0.  0.
         12    1    1    2    0    0  0.26577116980E+02  0.26556659092E+02 -0.15542397993E+02  0.40659137035E+02  0.00000000000E+00 0. -1.
         11    1    3    3    0    0  0.29888990556E+01 -0.74219002143E+01 -0.10697720229E+01  0.80723313112E+01  0.51100000000E-03 0. -1.
        -11    1    3    3    0    0 -0.16480101243E+02 -0.22209411360E+01  0.12191518001E+02  0.20619394461E+02  0.51100000000E-03 0.  1.
        -12    1    3    3    0    0 -0.13085914793E+02 -0.16913817741E+02  0.44206520145E+01  0.21837137193E+02  0.00000000000E+00 0.  1.
</event>
<event>
 7    1  0.5946946E-013  0.5052887E+02  0.7816164E-02  0.1300439E+00
        -11   -1    0    0    0    0  0.00000000000E+00  0.00000000000E+00  0.45593999997E+02  0.45594000000E+02  0.51100000000E-03 0. -1.
         11   -1    0    0    0    0 -0.00000000000E+00 -0.00000000000E+00 -0.45593999997E+02  0.45594000000E+02  0.51100000000E-03 0.  1.
    9900012    2    1    2    0    0 -0.27417398065E+02  0.29356346274E+02 -0.62973376785E+01  0.50528865171E+02  0.30000016173E+02 0.  0.
         12    1    1    2    0    0  0.27417398065E+02 -0.29356346274E+02  0.62973376785E+01  0.40659134829E+02  0.00000000000E+00 0. -1.
         11    1    3    3    0    0  0.18370805537E+01  0.17517051175E+02  0.20794037955E+01  0.17735440993E+02  0.51100000000E-03 0. -1.
        -11    1    3    3    0    0 -0.27496895380E+02  0.10309679496E+02 -0.75502654098E+01  0.30321201409E+02  0.51100000000E-03 0.  1.
        -12    1    3    3    0    0 -0.17575832389E+01  0.15296156034E+01 -0.82647606417E+00  0.24722227692E+01  0.00000000000E+00 0.  1.
</event>
<event>
 7    1  0.5946946E-013  0.5052880E+02  0.7816164E-02  0.1300439E+00
        -11   -1    0    0    0    0  0.00000000000E+00  0.00000000000E+00  0.45593999997E+02  0.45594000000E+02  0.51100000000E-03 0.  1.
         11   -1    0    0    0    0 -0.00000000000E+00 -0.00000000000E+00 -0.45593999997E+02  0.45594000000E+02  0.51100000000E-03 0. -1.
    9900012    2    1    2    0    0 -0.23111373810E+02 -0.31792652205E+02 -0.10404897932E+02  0.50528803812E+02  0.29999829668E+02 0.  0.
         12    1    1    2    0    0  0.23111373810E+02  0.31792652205E+02  0.10404897932E+02  0.40659196188E+02  0.00000000000E+00 0. -1.
         11    1    3    3    0    0 -0.63800131979E+01 -0.16876640842E+02 -0.14082133575E+02  0.22887377762E+02  0.51100000000E-03 0. -1.
        -11    1    3    3    0    0 -0.14187674156E+02 -0.17212539226E+02  0.64646199884E+01  0.23223972882E+02  0.51100000000E-03 0.  1.
         12    1    3    3    0    0 -0.25436864562E+01  0.22965278625E+01 -0.27873843451E+01  0.44174531687E+01  0.00000000000E+00 0. -1.
</event>
<event>
 7    1  0.5946946E-013  0.5052886E+02  0.7816164E-02  0.1300439E+00
        -11   -1    0    0    0    0  0.00000000000E+00  0.00000000000E+00  0.45593999997E+02  0.45594000000E+02  0.51100000000E-03 0.  1.
         11   -1    0    0    0    0 -0.00000000000E+00 -0.00000000000E+00 -0.45593999997E+02  0.45594000000E+02  0.51100000000E-03 0. -1.
    9900012    2    1    2    0    0  0.10630972950E+02  0.65202960761E+01  0.38699275790E+02  0.50528858427E+02  0.29999995674E+02 0.  0.
         12    1    1    2    0    0 -0.10630972950E+02 -0.65202960761E+01 -0.38699275790E+02  0.40659141573E+02  0.00000000000E+00 0. -1.
         11    1    3    3    0    0 -0.80684288808E+01 -0.32868420695E+01  0.10202749825E+02  0.13416369838E+02  0.51100000000E-03 0. -1.
        -11    1    3    3    0    0  0.13614196803E+02  0.10590335141E+02  0.15712975868E+02  0.23332363015E+02  0.51100000000E-03 0.  1.
        -12    1    3    3    0    0  0.50852050275E+01 -0.78319699514E+00  0.12783550098E+02  0.13780125573E+02  0.00000000000E+00 0.  1.
</event>
<event>
 7    1  0.5946946E-013  0.5052886E+02  0.7816164E-02  0.1300439E+00
        -11   -1    0    0    0    0  0.00000000000E+00  0.00000000000E+00  0.45593999997E+02  0.45594000000E+02  0.51100000000E-03 0.  1.
         11   -1    0    0    0    0 -0.00000000000E+00 -0.00000000000E+00 -0.45593999997E+02  0.45594000000E+02  0.51100000000E-03 0. -1.
    9900012    2    1    2    0    0 -0.38681478763E+02 -0.89701166631E+01 -0.87433293802E+01  0.50528860795E+02  0.30000002873E+02 0.  0.
         12    1    1    2    0    0  0.38681478763E+02  0.89701166631E+01  0.87433293802E+01  0.40659139205E+02  0.00000000000E+00 0. -1.
         11    1    3    3    0    0 -0.11417052814E+02  0.92218048909E+01 -0.74697764588E+00  0.14695195006E+02  0.51100000000E-03 0. -1.
        -11    1    3    3    0    0 -0.21259678163E+02 -0.87480999157E+01 -0.87947372324E+01  0.24614031993E+02  0.51100000000E-03 0.  1.
         12    1    3    3    0    0 -0.60047477861E+01 -0.94438216383E+01  0.79838549812E+00  0.11219633796E+02  0.00000000000E+00 0. -1.
</event>
<event>
 7    1  0.5946946E-013  0.5052882E+02  0.7816164E-02  0.1300439E+00
        -11   -1    0    0    0    0  0.00000000000E+00  0.00000000000E+00  0.45593999997E+02  0.45594000000E+02  0.51100000000E-03 0. -1.
         11   -1    0    0    0    0 -0.00000000000E+00 -0.00000000000E+00 -0.45593999997E+02  0.45594000000E+02  0.51100000000E-03 0.  1.
    9900012    2    1    2    0    0  0.24733921943E+02  0.16863837724E+02 -0.27513870344E+02  0.50528819257E+02  0.29999876613E+02 0.  0.
         12    1    1    2    0    0 -0.24733921943E+02 -0.16863837724E+02  0.27513870344E+02  0.40659180743E+02  0.00000000000E+00 0. -1.
         11    1    3    3    0    0  0.21587285289E+02  0.17571084642E+02 -0.75890978149E+01  0.28850447267E+02  0.51100000000E-03 0. -1.
        -11    1    3    3    0    0  0.11205238143E+01  0.34833141918E+01 -0.11300798518E+02  0.11878429979E+02  0.51100000000E-03 0.  1.
         12    1    3    3    0    0  0.20261128395E+01 -0.41905611101E+01 -0.86239740111E+01  0.97999420101E+01  0.00000000000E+00 0. -1.
</event>
<event>
 7    1  0.5946946E-013  0.5052886E+02  0.7816164E-02  0.1300439E+00
        -11   -1    0    0    0    0  0.00000000000E+00  0.00000000000E+00  0.45593999997E+02  0.45594000000E+02  0.51100000000E-03 0.  1.
         11   -1    0    0    0    0 -0.00000000000E+00 -0.00000000000E+00 -0.45593999997E+02  0.45594000000E+02  0.51100000000E-03 0. -1.
    9900012    2    1    2    0    0  0.18506846064E+02 -0.44343486320E+01  0.35930470116E+02  0.50528862260E+02  0.30000007325E+02 0.  0.
         12    1    1    2    0    0 -0.18506846064E+02  0.44343486320E+01 -0.35930470116E+02  0.40659137740E+02  0.00000000000E+00 0. -1.
         11    1    3    3    0    0 -0.48516736778E+00  0.41396785594E+01  0.59398833130E+01  0.72563448088E+01  0.51100000000E-03 0. -1.
        -11    1    3    3    0    0  0.16967032350E+02 -0.12774152893E+01  0.58826054340E+01  0.18003250360E+02  0.51100000000E-03 0.  1.
        -12    1    3    3    0    0  0.20249810826E+01 -0.72966119021E+01  0.24107981369E+02  0.25269267091E+02  0.00000000000E+00 0.  1.
</event>
<event>
 7    1  0.5946946E-013  0.5052890E+02  0.7816164E-02  0.1300439E+00
        -11   -1    0    0    0    0  0.00000000000E+00  0.00000000000E+00  0.45593999997E+02  0.45594000000E+02  0.51100000000E-03 0.  1.
         11   -1    0    0    0    0 -0.00000000000E+00 -0.00000000000E+00 -0.45593999997E+02  0.45594000000E+02  0.51100000000E-03 0. -1.
    9900012    2    1    2    0    0  0.34040515771E+02 -0.14529609457E+02 -0.16831407337E+02  0.50528898462E+02  0.30000117366E+02 0.  0.
         12    1    1    2    0    0 -0.34040515771E+02  0.14529609457E+02  0.16831407337E+02  0.40659101538E+02  0.00000000000E+00 0. -1.
         11    1    3    3    0    0 -0.38120582907E+01 -0.35608240519E+01 -0.61768928003E+01  0.80848785562E+01  0.51100000000E-03 0. -1.
        -11    1    3    3    0    0  0.37088487689E+02 -0.92873868905E+01 -0.12095748142E+02  0.40101354063E+02  0.51100000000E-03 0.  1.
        -12    1    3    3    0    0  0.76408637281E+00 -0.16813985147E+01  0.14412336051E+01  0.23426658436E+01  0.00000000000E+00 0.  1.
</event>
<event>
 7    1  0.5946946E-013  0.5052886E+02  0.7816164E-02  0.1300439E+00
        -11   -1    0    0    0    0  0.00000000000E+00  0.00000000000E+00  0.45593999997E+02  0.45594000000E+02  0.51100000000E-03 0.  1.
         11   -1    0    0    0    0 -0.00000000000E+00 -0.00000000000E+00 -0.45593999997E+02  0.45594000000E+02  0.51100000000E-03 0. -1.
    9900012    2    1    2    0    0 -0.76754796572E+01  0.10029869723E+02  0.38647829384E+02  0.50528856001E+02  0.29999988301E+02 0.  0.
         12    1    1    2    0    0  0.76754796572E+01 -0.10029869723E+02 -0.38647829384E+02  0.40659143999E+02  0.00000000000E+00 0. -1.
         11    1    3    3    0    0 -0.15009180577E+02  0.71443604585E+01  0.96882937610E+01  0.19240073394E+02  0.51100000000E-03 0. -1.
        -11    1    3    3    0    0  0.41370215208E+01 -0.18698032447E+01  0.20977035626E+02  0.21462691704E+02  0.51100000000E-03 0.  1.
        -12    1    3    3    0    0  0.31966793991E+01  0.47553125092E+01  0.79824999967E+01  0.98260909032E+01  0.00000000000E+00 0.  1.
</event>
<event>
 7    1  0.5946946E-013  0.5052886E+02  0.7816164E-02  0.1300439E+00
        -11   -1    0    0    0    0  0.00000000000E+00  0.00000000000E+00  0.45593999997E+02  0.45594000000E+02  0.51100000000E-03 0.  1.
         11   -1    0    0    0    0 -0.00000000000E+00 -0.00000000000E+00 -0.45593999997E+02  0.45594000000E+02  0.51100000000E-03 0. -1.
    9900012    2    1    2    0    0  0.89204655177E+01  0.28186407896E+02  0.27912679395E+02  0.50528856304E+02  0.29999989221E+02 0.  0.
         12    1    1    2    0    0 -0.89204655177E+01 -0.28186407896E+02 -0.27912679395E+02  0.40659143696E+02  0.00000000000E+00 0. -1.
         11    1    3    3    0    0  0.51755848927E+01 -0.39057900503E+01 -0.83189232552E+00  0.65371186313E+01  0.51100000000E-03 0. -1.
        -11    1    3    3    0    0  0.37608919005E+00  0.27635857532E+02  0.22745764001E+02  0.35794578428E+02  0.51100000000E-03 0.  1.
        -12    1    3    3    0    0  0.33687914350E+01  0.44563404140E+01  0.59988077195E+01  0.81971592441E+01  0.00000000000E+00 0.  1.
</event>
<event>
 7    1  0.5946946E-013  0.5052885E+02  0.7816164E-02  0.1300439E+00
        -11   -1    0    0    0    0  0.00000000000E+00  0.00000000000E+00  0.45593999997E+02  0.45594000000E+02  0.51100000000E-03 0.  1.
         11   -1    0    0    0    0 -0.00000000000E+00 -0.00000000000E+00 -0.45593999997E+02  0.45594000000E+02  0.51100000000E-03 0. -1.
    9900012    2    1    2    0    0 -0.81908413064E+00 -0.14766548421E+02  0.37874059850E+02  0.50528852683E+02  0.29999978214E+02 0.  0.
         12    1    1    2    0    0  0.81908413064E+00  0.14766548421E+02 -0.37874059850E+02  0.40659147317E+02  0.00000000000E+00 0. -1.
         11    1    3    3    0    0 -0.32280213906E+00 -0.11131477878E+02 -0.11394717317E+00  0.11136740331E+02  0.51100000000E-03 0. -1.
        -11    1    3    3    0    0  0.45670677950E+01 -0.10480223847E+01  0.15228829756E+02  0.15933415050E+02  0.51100000000E-03 0.  1.
         12    1    3    3    0    0 -0.50633497865E+01 -0.25870481580E+01  0.22759177267E+02  0.23458697302E+02  0.00000000000E+00 0. -1.
</event>
<event>
 7    1  0.5946946E-013  0.5052886E+02  0.7816164E-02  0.1300439E+00
        -11   -1    0    0    0    0  0.00000000000E+00  0.00000000000E+00  0.45593999997E+02  0.45594000000E+02  0.51100000000E-03 0. -1.
         11   -1    0    0    0    0 -0.00000000000E+00 -0.00000000000E+00 -0.45593999997E+02  0.45594000000E+02  0.51100000000E-03 0.  1.
    9900012    2    1    2    0    0 -0.21728657876E+02 -0.31943383108E+02 -0.12674841628E+02  0.50528857021E+02  0.29999991401E+02 0.  0.
         12    1    1    2    0    0  0.21728657876E+02  0.31943383108E+02  0.12674841628E+02  0.40659142979E+02  0.00000000000E+00 0. -1.
         11    1    3    3    0    0 -0.14899371553E+02 -0.26028542063E+02  0.51148170105E+01  0.30424293384E+02  0.51100000000E-03 0. -1.
        -11    1    3    3    0    0 -0.35090878783E+01 -0.27751293836E+01 -0.61918329850E+01  0.76389683078E+01  0.51100000000E-03 0.  1.
         12    1    3    3    0    0 -0.33201984443E+01 -0.31397116619E+01 -0.11597825653E+02  0.12465595329E+02  0.00000000000E+00 0. -1.
</event>
<event>
 7    1  0.5946946E-013  0.5052886E+02  0.7816164E-02  0.1300439E+00
        -11   -1    0    0    0    0  0.00000000000E+00  0.00000000000E+00  0.45593999997E+02  0.45594000000E+02  0.51100000000E-03 0. -1.
         11   -1    0    0    0    0 -0.00000000000E+00 -0.00000000000E+00 -0.45593999997E+02  0.45594000000E+02  0.51100000000E-03 0.  1.
    9900012    2    1    2    0    0 -0.16337465553E+02 -0.12948321987E+02 -0.34908358157E+02  0.50528864591E+02  0.30000014412E+02 0.  0.
         12    1    1    2    0    0  0.16337465553E+02  0.12948321987E+02  0.34908358157E+02  0.40659135409E+02  0.00000000000E+00 0. -1.
         11    1    3    3    0    0 -0.43935478220E+01 -0.63095603944E+01 -0.29637850335E+02  0.30618882859E+02  0.51100000000E-03 0. -1.
        -11    1    3    3    0    0 -0.27324164234E+01 -0.81991202589E+01  0.93694964865E+00  0.86930746826E+01  0.51100000000E-03 0.  1.
         12    1    3    3    0    0 -0.92115013072E+01  0.15603586664E+01 -0.62074574711E+01  0.11216907049E+02  0.00000000000E+00 0. -1.
</event>
<event>
 7    1  0.5946946E-013  0.5052885E+02  0.7816164E-02  0.1300439E+00
        -11   -1    0    0    0    0  0.00000000000E+00  0.00000000000E+00  0.45593999997E+02  0.45594000000E+02  0.51100000000E-03 0.  1.
         11   -1    0    0    0    0 -0.00000000000E+00 -0.00000000000E+00 -0.45593999997E+02  0.45594000000E+02  0.51100000000E-03 0. -1.
    9900012    2    1    2    0    0 -0.15845846889E+01 -0.14123639775E+02  0.38094333303E+02  0.50528851719E+02  0.29999975284E+02 0.  0.
         12    1    1    2    0    0  0.15845846889E+01  0.14123639775E+02 -0.38094333303E+02  0.40659148281E+02  0.00000000000E+00 0. -1.
         11    1    3    3    0    0 -0.61724758208E+01  0.33605908221E+01  0.19521846500E+02  0.20748385948E+02  0.51100000000E-03 0.  1.
        -11    1    3    3    0    0 -0.51388274911E+01 -0.90352192173E+01  0.84509455291E+01  0.13396313481E+02  0.51100000000E-03 0. -1.
         12    1    3    3    0    0  0.97267186230E+01 -0.84490113801E+01  0.10121541274E+02  0.16384152289E+02  0.00000000000E+00 0. -1.
</event>
<event>
 7    1  0.5946946E-013  0.5052879E+02  0.7816164E-02  0.1300439E+00
        -11   -1    0    0    0    0  0.00000000000E+00  0.00000000000E+00  0.45593999997E+02  0.45594000000E+02  0.51100000000E-03 0. -1.
         11   -1    0    0    0    0 -0.00000000000E+00 -0.00000000000E+00 -0.45593999997E+02  0.45594000000E+02  0.51100000000E-03 0.  1.
    9900012    2    1    2    0    0 -0.31051171772E+02 -0.67721897546E+01 -0.25360071082E+02  0.50528794059E+02  0.29999800020E+02 0.  0.
         12    1    1    2    0    0  0.31051171772E+02  0.67721897546E+01  0.25360071082E+02  0.40659205941E+02  0.00000000000E+00 0. -1.
         11    1    3    3    0    0  0.12492993754E+01  0.18995542234E+01  0.17359278224E+01  0.28605070954E+01  0.51100000000E-03 0. -1.
        -11    1    3    3    0    0 -0.49205055876E+01 -0.71404988261E+01 -0.15773456887E+02  0.18000001143E+02  0.51100000000E-03 0.  1.
         12    1    3    3    0    0 -0.27379965560E+02 -0.15312451519E+01 -0.11322542017E+02  0.29668285820E+02  0.00000000000E+00 0. -1.
</event>
<event>
 7    1  0.5946946E-013  0.5052885E+02  0.7816164E-02  0.1300439E+00
        -11   -1    0    0    0    0  0.00000000000E+00  0.00000000000E+00  0.45593999997E+02  0.45594000000E+02  0.51100000000E-03 0.  1.
         11   -1    0    0    0    0 -0.00000000000E+00 -0.00000000000E+00 -0.45593999997E+02  0.45594000000E+02  0.51100000000E-03 0. -1.
    9900012    2    1    2    0    0  0.30024740129E+02 -0.22945158816E+02  0.15006693042E+02  0.50528853809E+02  0.29999981639E+02 0.  0.
         12    1    1    2    0    0 -0.30024740129E+02  0.22945158816E+02 -0.15006693042E+02  0.40659146191E+02  0.00000000000E+00 0. -1.
         11    1    3    3    0    0  0.64368441021E+01  0.33288682572E+01  0.78290779397E+01  0.10668120149E+02  0.51100000000E-03 0. -1.
        -11    1    3    3    0    0  0.21918851149E+02 -0.28735426373E+02  0.73544953184E+01  0.36881558619E+02  0.51100000000E-03 0.  1.
        -12    1    3    3    0    0  0.16690448781E+01  0.24613992997E+01 -0.17688021607E+00  0.29791750416E+01  0.00000000000E+00 0.  1.
</event>
<event>
 7    1  0.5946946E-013  0.5052887E+02  0.7816164E-02  0.1300439E+00
        -11   -1    0    0    0    0  0.00000000000E+00  0.00000000000E+00  0.45593999997E+02  0.45594000000E+02  0.51100000000E-03 0. -1.
         11   -1    0    0    0    0 -0.00000000000E+00 -0.00000000000E+00 -0.45593999997E+02  0.45594000000E+02  0.51100000000E-03 0.  1.
    9900012    2    1    2    0    0  0.92691660511E+01  0.16712275994E+02 -0.35887986572E+02  0.50528865868E+02  0.30000018292E+02 0.  0.
         12    1    1    2    0    0 -0.92691660511E+01 -0.16712275994E+02  0.35887986572E+02  0.40659134132E+02  0.00000000000E+00 0. -1.
         11    1    3    3    0    0 -0.90822460229E+01  0.98764788346E+01 -0.15874710345E+02  0.20785534773E+02  0.51100000000E-03 0. -1.
        -11    1    3    3    0    0  0.65893604918E+01  0.55356261332E+01 -0.14089149770E+02  0.16509602353E+02  0.51100000000E-03 0.  1.
         12    1    3    3    0    0  0.11762051582E+02  0.13001710262E+01 -0.59241264574E+01  0.13233728741E+02  0.00000000000E+00 0. -1.
</event>
<event>
 7    1  0.5946946E-013  0.5052886E+02  0.7816164E-02  0.1300439E+00
        -11   -1    0    0    0    0  0.00000000000E+00  0.00000000000E+00  0.45593999997E+02  0.45594000000E+02  0.51100000000E-03 0.  1.
         11   -1    0    0    0    0 -0.00000000000E+00 -0.00000000000E+00 -0.45593999997E+02  0.45594000000E+02  0.51100000000E-03 0. -1.
    9900012    2    1    2    0    0  0.14490138649E+00  0.29719982913E+02  0.27746486340E+02  0.50528857302E+02  0.29999992255E+02 0.  0.
         12    1    1    2    0    0 -0.14490138649E+00 -0.29719982913E+02 -0.27746486340E+02  0.40659142698E+02  0.00000000000E+00 0. -1.
         11    1    3    3    0    0 -0.12720773857E+02  0.12526672369E+02  0.12437896911E+02  0.21758604918E+02  0.51100000000E-03 0. -1.
        -11    1    3    3    0    0 -0.18901102446E+01  0.12255856351E+01  0.13397235853E+00  0.22566625223E+01  0.51100000000E-03 0.  1.
         12    1    3    3    0    0  0.14755785488E+02  0.15967724908E+02  0.15174617070E+02  0.26513589862E+02  0.00000000000E+00 0. -1.
</event>
<event>
 7    1  0.5946946E-013  0.5052884E+02  0.7816164E-02  0.1300439E+00
        -11   -1    0    0    0    0  0.00000000000E+00  0.00000000000E+00  0.45593999997E+02  0.45594000000E+02  0.51100000000E-03 0.  1.
         11   -1    0    0    0    0 -0.00000000000E+00 -0.00000000000E+00 -0.45593999997E+02  0.45594000000E+02  0.51100000000E-03 0. -1.
    9900012    2    1    2    0    0 -0.27694824467E+02 -0.23886014996E+02  0.17765759056E+02  0.50528841014E+02  0.29999942746E+02 0.  0.
         12    1    1    2    0    0  0.27694824467E+02  0.23886014996E+02 -0.17765759056E+02  0.40659158986E+02  0.00000000000E+00 0. -1.
         11    1    3    3    0    0  0.95911274364E+00 -0.70118924992E+01  0.99194951057E+01  0.12185356666E+02  0.51100000000E-03 0. -1.
        -11    1    3    3    0    0 -0.16825778167E+02  0.15533447651E-01  0.48237200019E+01  0.17503580409E+02  0.51100000000E-03 0.  1.
         12    1    3    3    0    0 -0.11828159044E+02 -0.16889655944E+02  0.30225439481E+01  0.20839903939E+02  0.00000000000E+00 0. -1.
</event>
<event>
 7    1  0.5946946E-013  0.5052886E+02  0.7816164E-02  0.1300439E+00
        -11   -1    0    0    0    0  0.00000000000E+00  0.00000000000E+00  0.45593999997E+02  0.45594000000E+02  0.51100000000E-03 0.  1.
         11   -1    0    0    0    0 -0.00000000000E+00 -0.00000000000E+00 -0.45593999997E+02  0.45594000000E+02  0.51100000000E-03 0. -1.
    9900012    2    1    2    0    0 -0.29346512532E+02  0.89612138077E+01  0.26676666506E+02  0.50528859742E+02  0.29999999671E+02 0.  0.
         12    1    1    2    0    0  0.29346512532E+02 -0.89612138077E+01 -0.26676666506E+02  0.40659140258E+02  0.00000000000E+00 0. -1.
         11    1    3    3    0    0 -0.24201160480E+01  0.89801180071E+01 -0.18538594036E+01  0.94834738390E+01  0.51100000000E-03 0. -1.
        -11    1    3    3    0    0 -0.13861855495E+02  0.44491979067E+01  0.89610847075E+01  0.17095246099E+02  0.51100000000E-03 0.  1.
         12    1    3    3    0    0 -0.13064540988E+02 -0.44681021061E+01  0.19569441202E+02  0.23950139804E+02  0.00000000000E+00 0. -1.
</event>
<event>
 7    1  0.5946946E-013  0.5052886E+02  0.7816164E-02  0.1300439E+00
        -11   -1    0    0    0    0  0.00000000000E+00  0.00000000000E+00  0.45593999997E+02  0.45594000000E+02  0.51100000000E-03 0.  1.
         11   -1    0    0    0    0 -0.00000000000E+00 -0.00000000000E+00 -0.45593999997E+02  0.45594000000E+02  0.51100000000E-03 0. -1.
    9900012    2    1    2    0    0 -0.36757440335E+02  0.95415096522E+01  0.14526394364E+02  0.50528856384E+02  0.29999989464E+02 0.  0.
         12    1    1    2    0    0  0.36757440335E+02 -0.95415096522E+01 -0.14526394364E+02  0.40659143616E+02  0.00000000000E+00 0. -1.
         11    1    3    3    0    0 -0.52548517644E+01  0.13678670260E+02  0.85950764025E+01  0.16988078931E+02  0.51100000000E-03 0. -1.
        -11    1    3    3    0    0 -0.30126570189E+02 -0.47568024928E+01  0.74534912409E+01  0.31397323664E+02  0.51100000000E-03 0.  1.
        -12    1    3    3    0    0 -0.13760183810E+01  0.61964188467E+00 -0.15221732798E+01  0.21434537886E+01  0.00000000000E+00 0.  1.
</event>
<event>
 7    1  0.5946946E-013  0.5052886E+02  0.7816164E-02  0.1300439E+00
        -11   -1    0    0    0    0  0.00000000000E+00  0.00000000000E+00  0.45593999997E+02  0.45594000000E+02  0.51100000000E-03 0. -1.
         11   -1    0    0    0    0 -0.00000000000E+00 -0.00000000000E+00 -0.45593999997E+02  0.45594000000E+02  0.51100000000E-03 0.  1.
    9900012    2    1    2    0    0 -0.60169653898E+01 -0.26524892891E+02 -0.30222375797E+02  0.50528858173E+02  0.29999994901E+02 0.  0.
         12    1    1    2    0    0  0.60169653898E+01  0.26524892891E+02  0.30222375797E+02  0.40659141827E+02  0.00000000000E+00 0. -1.
         11    1    3    3    0    0  0.29687445171E+01 -0.30458675128E+01  0.15850594835E+01  0.45390711319E+01  0.51100000000E-03 0. -1.
        -11    1    3    3    0    0 -0.12129092621E+02 -0.59764955876E+01 -0.21607597947E+02  0.25489638613E+02  0.51100000000E-03 0.  1.
        -12    1    3    3    0    0  0.31433827137E+01 -0.17502529790E+02 -0.10199837333E+02  0.20500148428E+02  0.00000000000E+00 0.  1.
</event>
<event>
 7    1  0.5946946E-013  0.5052886E+02  0.7816164E-02  0.1300439E+00
        -11   -1    0    0    0    0  0.00000000000E+00  0.00000000000E+00  0.45593999997E+02  0.45594000000E+02  0.51100000000E-03 0.  1.
         11   -1    0    0    0    0 -0.00000000000E+00 -0.00000000000E+00 -0.45593999997E+02  0.45594000000E+02  0.51100000000E-03 0. -1.
    9900012    2    1    2    0    0 -0.31880122082E+02  0.17526676055E+02  0.18155963645E+02  0.50528861133E+02  0.30000003899E+02 0.  0.
         12    1    1    2    0    0  0.31880122082E+02 -0.17526676055E+02 -0.18155963645E+02  0.40659138867E+02  0.00000000000E+00 0. -1.
         11    1    3    3    0    0 -0.18305482290E+02  0.15693950103E+02 -0.89713264823E+00  0.24128729741E+02  0.51100000000E-03 0. -1.
        -11    1    3    3    0    0 -0.15707101457E+02  0.41379024909E+00  0.16334284213E+02  0.22664798688E+02  0.51100000000E-03 0.  1.
        -12    1    3    3    0    0  0.21324616638E+01  0.14189357029E+01  0.27188120803E+01  0.37353327034E+01  0.00000000000E+00 0.  1.
</event>
<event>
 7    1  0.5946946E-013  0.5052884E+02  0.7816164E-02  0.1300439E+00
        -11   -1    0    0    0    0  0.00000000000E+00  0.00000000000E+00  0.45593999997E+02  0.45594000000E+02  0.51100000000E-03 0.  1.
         11   -1    0    0    0    0 -0.00000000000E+00 -0.00000000000E+00 -0.45593999997E+02  0.45594000000E+02  0.51100000000E-03 0. -1.
    9900012    2    1    2    0    0 -0.34218655233E+02 -0.19029486864E+02  0.10960346607E+02  0.50528844401E+02  0.29999953042E+02 0.  0.
         12    1    1    2    0    0  0.34218655233E+02  0.19029486864E+02 -0.10960346607E+02  0.40659155599E+02  0.00000000000E+00 0. -1.
         11    1    3    3    0    0 -0.68504531845E+01 -0.14184432856E+02  0.77462834084E+01  0.17553681984E+02  0.51100000000E-03 0. -1.
        -11    1    3    3    0    0 -0.29651917397E+02 -0.56330980738E+01  0.19414813206E+01  0.30244625130E+02  0.51100000000E-03 0.  1.
        -12    1    3    3    0    0  0.22837153488E+01  0.78804406577E+00  0.12725818781E+01  0.27305372879E+01  0.00000000000E+00 0.  1.
</event>
<event>
 7    1  0.5946946E-013  0.5052886E+02  0.7816164E-02  0.1300439E+00
        -11   -1    0    0    0    0  0.00000000000E+00  0.00000000000E+00  0.45593999997E+02  0.45594000000E+02  0.51100000000E-03 0.  1.
         11   -1    0    0    0    0 -0.00000000000E+00 -0.00000000000E+00 -0.45593999997E+02  0.45594000000E+02  0.51100000000E-03 0. -1.
    9900012    2    1    2    0    0 -0.29421789557E+02  0.22925690404E+02  0.16184458703E+02  0.50528859763E+02  0.29999999736E+02 0.  0.
         12    1    1    2    0    0  0.29421789557E+02 -0.22925690404E+02 -0.16184458703E+02  0.40659140237E+02  0.00000000000E+00 0. -1.
         11    1    3    3    0    0 -0.11911130244E+02 -0.36243277766E+01  0.79229597648E+01  0.14757508842E+02  0.51100000000E-03 0. -1.
        -11    1    3    3    0    0 -0.19553230124E+02  0.25391551846E+02  0.90384268466E+01  0.33297940980E+02  0.51100000000E-03 0.  1.
        -12    1    3    3    0    0  0.20425708098E+01  0.11584663352E+01 -0.77692790849E+00  0.24734099413E+01  0.00000000000E+00 0.  1.
</event>
<event>
 7    1  0.5946946E-013  0.5052887E+02  0.7816164E-02  0.1300439E+00
        -11   -1    0    0    0    0  0.00000000000E+00  0.00000000000E+00  0.45593999997E+02  0.45594000000E+02  0.51100000000E-03 0. -1.
         11   -1    0    0    0    0 -0.00000000000E+00 -0.00000000000E+00 -0.45593999997E+02  0.45594000000E+02  0.51100000000E-03 0.  1.
    9900012    2    1    2    0    0  0.31739107191E+01 -0.37580661259E+02 -0.15191611716E+02  0.50528869704E+02  0.30000029952E+02 0.  0.
         12    1    1    2    0    0 -0.31739107191E+01  0.37580661259E+02  0.15191611716E+02  0.40659130296E+02  0.00000000000E+00 0. -1.
         11    1    3    3    0    0  0.14249235502E+02 -0.12992016918E+02 -0.66706059983E+01  0.20404171158E+02  0.51100000000E-03 0. -1.
        -11    1    3    3    0    0 -0.82505496697E+01 -0.69507784404E+01 -0.13336550210E+01  0.10870304814E+02  0.51100000000E-03 0.  1.
         12    1    3    3    0    0 -0.28247751127E+01 -0.17637865900E+02 -0.71873506970E+01  0.19254393732E+02  0.00000000000E+00 0. -1.
</event>
<event>
 7    1  0.5946946E-013  0.5052885E+02  0.7816164E-02  0.1300439E+00
        -11   -1    0    0    0    0  0.00000000000E+00  0.00000000000E+00  0.45593999997E+02  0.45594000000E+02  0.51100000000E-03 0.  1.
         11   -1    0    0    0    0 -0.00000000000E+00 -0.00000000000E+00 -0.45593999997E+02  0.45594000000E+02  0.51100000000E-03 0. -1.
    9900012    2    1    2    0    0  0.14490029443E+02 -0.18274466900E+02  0.33305392797E+02  0.50528852405E+02  0.29999977370E+02 0.  0.
         12    1    1    2    0    0 -0.14490029443E+02  0.18274466900E+02 -0.33305392797E+02  0.40659147595E+02  0.00000000000E+00 0. -1.
         11    1    3    3    0    0  0.19526649981E+01 -0.24471674601E+01 -0.77679539475E+00  0.32256690033E+01  0.51100000000E-03 0. -1.
        -11    1    3    3    0    0  0.18175086412E+02 -0.15022413377E+02  0.34277751294E+02  0.41604938455E+02  0.51100000000E-03 0.  1.
        -12    1    3    3    0    0 -0.56377219670E+01 -0.80488606335E+00 -0.19556310202E+00  0.56982449472E+01  0.00000000000E+00 0.  1.
</event>
<event>
 7    1  0.5946946E-013  0.5052886E+02  0.7816164E-02  0.1300439E+00
        -11   -1    0    0    0    0  0.00000000000E+00  0.00000000000E+00  0.45593999997E+02  0.45594000000E+02  0.51100000000E-03 0.  1.
         11   -1    0    0    0    0 -0.00000000000E+00 -0.00000000000E+00 -0.45593999997E+02  0.45594000000E+02  0.51100000000E-03 0. -1.
    9900012    2    1    2    0    0 -0.18824147410E+02  0.28879473122E+02  0.21559070885E+02  0.50528855506E+02  0.29999986797E+02 0.  0.
         12    1    1    2    0    0  0.18824147410E+02 -0.28879473122E+02 -0.21559070885E+02  0.40659144494E+02  0.00000000000E+00 0. -1.
         11    1    3    3    0    0 -0.11714164749E+02  0.42292577376E+01 -0.34705008228E+01  0.12928752956E+02  0.51100000000E-03 0. -1.
        -11    1    3    3    0    0 -0.88185250797E+01  0.22881392674E+02  0.25165309287E+02  0.35137121497E+02  0.51100000000E-03 0.  1.
        -12    1    3    3    0    0  0.17085424190E+01  0.17688227109E+01 -0.13573757929E+00  0.24629810536E+01  0.00000000000E+00 0.  1.
</event>
<event>
 7    1  0.5946946E-013  0.5052888E+02  0.7816164E-02  0.1300439E+00
        -11   -1    0    0    0    0  0.00000000000E+00  0.00000000000E+00  0.45593999997E+02  0.45594000000E+02  0.51100000000E-03 0.  1.
         11   -1    0    0    0    0 -0.00000000000E+00 -0.00000000000E+00 -0.45593999997E+02  0.45594000000E+02  0.51100000000E-03 0. -1.
    9900012    2    1    2    0    0 -0.22728547129E+02  0.12239412045E+02  0.31412954376E+02  0.50528883379E+02  0.30000071518E+02 0.  0.
         12    1    1    2    0    0  0.22728547129E+02 -0.12239412045E+02 -0.31412954376E+02  0.40659116621E+02  0.00000000000E+00 0. -1.
         11    1    3    3    0    0  0.25586836485E+01  0.90899686777E+01  0.96157155157E+01  0.13477254087E+02  0.51100000000E-03 0. -1.
        -11    1    3    3    0    0 -0.23731122689E+02  0.15172449655E+01  0.24080217507E+02  0.33842651961E+02  0.51100000000E-03 0.  1.
        -12    1    3    3    0    0 -0.15561080893E+01  0.16321984015E+01 -0.22829786468E+01  0.32089773307E+01  0.00000000000E+00 0.  1.
</event>
<event>
 7    1  0.5946946E-013  0.5052886E+02  0.7816164E-02  0.1300439E+00
        -11   -1    0    0    0    0  0.00000000000E+00  0.00000000000E+00  0.45593999997E+02  0.45594000000E+02  0.51100000000E-03 0. -1.
         11   -1    0    0    0    0 -0.00000000000E+00 -0.00000000000E+00 -0.45593999997E+02  0.45594000000E+02  0.51100000000E-03 0.  1.
    9900012    2    1    2    0    0 -0.96528791107E+01 -0.39458330854E+02  0.17399812446E+01  0.50528862237E+02  0.30000007256E+02 0.  0.
         12    1    1    2    0    0  0.96528791107E+01  0.39458330854E+02 -0.17399812446E+01  0.40659137763E+02  0.00000000000E+00 0. -1.
         11    1    3    3    0    0  0.66417263061E+01 -0.19973915328E+02  0.68870235963E+01  0.22147255273E+02  0.51100000000E-03 0. -1.
        -11    1    3    3    0    0 -0.14367763336E+02 -0.13243617138E+02  0.78815030632E+00  0.19556257294E+02  0.51100000000E-03 0.  1.
         12    1    3    3    0    0 -0.19268420810E+01 -0.62407983879E+01 -0.59351926580E+01  0.88253496708E+01  0.00000000000E+00 0. -1.
</event>
<event>
 7    1  0.5946946E-013  0.5052887E+02  0.7816164E-02  0.1300439E+00
        -11   -1    0    0    0    0  0.00000000000E+00  0.00000000000E+00  0.45593999997E+02  0.45594000000E+02  0.51100000000E-03 0.  1.
         11   -1    0    0    0    0 -0.00000000000E+00 -0.00000000000E+00 -0.45593999997E+02  0.45594000000E+02  0.51100000000E-03 0. -1.
    9900012    2    1    2    0    0  0.28462288597E+00  0.37314914275E+02  0.16145624674E+02  0.50528867771E+02  0.30000024077E+02 0.  0.
         12    1    1    2    0    0 -0.28462288597E+00 -0.37314914275E+02 -0.16145624674E+02  0.40659132229E+02  0.00000000000E+00 0. -1.
         11    1    3    3    0    0 -0.48814308870E+01 -0.18021717066E+01  0.77565587698E+01  0.93402566653E+01  0.51100000000E-03 0. -1.
        -11    1    3    3    0    0  0.64037270978E+01  0.30221463926E+02  0.38683550590E+01  0.31133724058E+02  0.51100000000E-03 0.  1.
         12    1    3    3    0    0 -0.12376733248E+01  0.88956220552E+01  0.45207108449E+01  0.10054887048E+02  0.00000000000E+00 0. -1.
</event>
<event>
 7    1  0.5946946E-013  0.5052886E+02  0.7816164E-02  0.1300439E+00
        -11   -1    0    0    0    0  0.00000000000E+00  0.00000000000E+00  0.45593999997E+02  0.45594000000E+02  0.51100000000E-03 0.  1.
         11   -1    0    0    0    0 -0.00000000000E+00 -0.00000000000E+00 -0.45593999997E+02  0.45594000000E+02  0.51100000000E-03 0. -1.
    9900012    2    1    2    0    0 -0.35696818086E+02 -0.18251853262E+02  0.67655638823E+01  0.50528858057E+02  0.29999994549E+02 0.  0.
         12    1    1    2    0    0  0.35696818086E+02  0.18251853262E+02 -0.67655638823E+01  0.40659141943E+02  0.00000000000E+00 0. -1.
         11    1    3    3    0    0 -0.33230485109E+02 -0.22047023256E+02  0.13150085952E+01  0.39900697023E+02  0.51100000000E-03 0.  1.
        -11    1    3    3    0    0  0.16366478035E+01  0.13720140675E+01  0.54602547385E+01  0.58630555775E+01  0.51100000000E-03 0. -1.
        -12    1    3    3    0    0 -0.41029807805E+01  0.24231559273E+01 -0.96994514312E-02  0.47651054566E+01  0.00000000000E+00 0.  1.
</event>
<event>
 7    1  0.5946946E-013  0.5052886E+02  0.7816164E-02  0.1300439E+00
        -11   -1    0    0    0    0  0.00000000000E+00  0.00000000000E+00  0.45593999997E+02  0.45594000000E+02  0.51100000000E-03 0.  1.
         11   -1    0    0    0    0 -0.00000000000E+00 -0.00000000000E+00 -0.45593999997E+02  0.45594000000E+02  0.51100000000E-03 0. -1.
    9900012    2    1    2    0    0 -0.28076273803E+02  0.28714165871E+02  0.63549570158E+01  0.50528856490E+02  0.29999989787E+02 0.  0.
         12    1    1    2    0    0  0.28076273803E+02 -0.28714165871E+02 -0.63549570158E+01  0.40659143510E+02  0.00000000000E+00 0. -1.
         11    1    3    3    0    0 -0.12821310797E+02  0.98902284942E+00 -0.55764434287E+01  0.14016450989E+02  0.51100000000E-03 0. -1.
        -11    1    3    3    0    0 -0.62316979417E+01  0.98906617926E+01  0.11677760462E+02  0.16523599475E+02  0.51100000000E-03 0.  1.
         12    1    3    3    0    0 -0.90232650646E+01  0.17834481229E+02  0.25363998224E+00  0.19988806026E+02  0.00000000000E+00 0. -1.
</event>
<event>
 7    1  0.5946946E-013  0.5052886E+02  0.7816164E-02  0.1300439E+00
        -11   -1    0    0    0    0  0.00000000000E+00  0.00000000000E+00  0.45593999997E+02  0.45594000000E+02  0.51100000000E-03 0.  1.
         11   -1    0    0    0    0 -0.00000000000E+00 -0.00000000000E+00 -0.45593999997E+02  0.45594000000E+02  0.51100000000E-03 0. -1.
    9900012    2    1    2    0    0  0.16038091899E+02  0.32730547469E+02  0.18018229804E+02  0.50528859150E+02  0.29999997873E+02 0.  0.
         12    1    1    2    0    0 -0.16038091899E+02 -0.32730547469E+02 -0.18018229804E+02  0.40659140850E+02  0.00000000000E+00 0. -1.
         11    1    3    3    0    0  0.18422471736E+02  0.12089979797E+02  0.90816349524E+00  0.22054020893E+02  0.51100000000E-03 0. -1.
        -11    1    3    3    0    0  0.38596365417E+00  0.14980702718E+02  0.69490781158E+01  0.16518477799E+02  0.51100000000E-03 0.  1.
         12    1    3    3    0    0 -0.27703434910E+01  0.56598649530E+01  0.10160988193E+02  0.11956360458E+02  0.00000000000E+00 0. -1.
</event>
<event>
 7    1  0.5946946E-013  0.5052886E+02  0.7816164E-02  0.1300439E+00
        -11   -1    0    0    0    0  0.00000000000E+00  0.00000000000E+00  0.45593999997E+02  0.45594000000E+02  0.51100000000E-03 0.  1.
         11   -1    0    0    0    0 -0.00000000000E+00 -0.00000000000E+00 -0.45593999997E+02  0.45594000000E+02  0.51100000000E-03 0. -1.
    9900012    2    1    2    0    0  0.24812061433E+02  0.30677899149E+02 -0.98180222107E+01  0.50528862665E+02  0.30000008555E+02 0.  0.
         12    1    1    2    0    0 -0.24812061433E+02 -0.30677899149E+02  0.98180222107E+01  0.40659137335E+02  0.00000000000E+00 0. -1.
         11    1    3    3    0    0 -0.56090279430E+01  0.29993076104E+01 -0.41512111299E+01  0.75953666609E+01  0.51100000000E-03 0. -1.
        -11    1    3    3    0    0  0.12717132768E+02  0.12506651808E+02  0.29455343091E+01  0.18078107697E+02  0.51100000000E-03 0.  1.
         12    1    3    3    0    0  0.17703956608E+02  0.15171939731E+02 -0.86123453899E+01  0.24855388307E+02  0.00000000000E+00 0. -1.
</event>
<event>
 7    1  0.5946946E-013  0.5052884E+02  0.7816164E-02  0.1300439E+00
        -11   -1    0    0    0    0  0.00000000000E+00  0.00000000000E+00  0.45593999997E+02  0.45594000000E+02  0.51100000000E-03 0.  1.
         11   -1    0    0    0    0 -0.00000000000E+00 -0.00000000000E+00 -0.45593999997E+02  0.45594000000E+02  0.51100000000E-03 0. -1.
    9900012    2    1    2    0    0 -0.36446564376E+02 -0.17668047099E+02  0.35574103085E+01  0.50528842222E+02  0.29999946418E+02 0.  0.
         12    1    1    2    0    0  0.36446564376E+02  0.17668047099E+02 -0.35574103085E+01  0.40659157778E+02  0.00000000000E+00 0. -1.
         11    1    3    3    0    0 -0.15646133687E+02 -0.20462374446E+02 -0.15577856053E+01  0.25805754466E+02  0.51100000000E-03 0. -1.
        -11    1    3    3    0    0 -0.11704217411E+02  0.62921688834E+01  0.66466513783E+01  0.14857929508E+02  0.51100000000E-03 0.  1.
        -12    1    3    3    0    0 -0.90962132778E+01 -0.34978415362E+01 -0.15314554645E+01  0.98651582475E+01  0.00000000000E+00 0.  1.
</event>
<event>
 7    1  0.5946946E-013  0.5052886E+02  0.7816164E-02  0.1300439E+00
        -11   -1    0    0    0    0  0.00000000000E+00  0.00000000000E+00  0.45593999997E+02  0.45594000000E+02  0.51100000000E-03 0. -1.
         11   -1    0    0    0    0 -0.00000000000E+00 -0.00000000000E+00 -0.45593999997E+02  0.45594000000E+02  0.51100000000E-03 0.  1.
    9900012    2    1    2    0    0  0.91850311227E+01  0.16840739474E+02 -0.35849553470E+02  0.50528858509E+02  0.29999995924E+02 0.  0.
         12    1    1    2    0    0 -0.91850311227E+01 -0.16840739474E+02  0.35849553470E+02  0.40659141491E+02  0.00000000000E+00 0. -1.
         11    1    3    3    0    0  0.39301556004E+01 -0.38454114336E+01 -0.38982058029E+01  0.67401276605E+01  0.51100000000E-03 0. -1.
        -11    1    3    3    0    0  0.62423019378E+01  0.22978112682E+02 -0.33311520504E+02  0.40946518710E+02  0.51100000000E-03 0.  1.
        -12    1    3    3    0    0 -0.98742641552E+00 -0.22919617738E+01  0.13601728366E+01  0.28422121392E+01  0.00000000000E+00 0.  1.
</event>
<event>
 7    1  0.5946946E-013  0.5052882E+02  0.7816164E-02  0.1300439E+00
        -11   -1    0    0    0    0  0.00000000000E+00  0.00000000000E+00  0.45593999997E+02  0.45594000000E+02  0.51100000000E-03 0.  1.
         11   -1    0    0    0    0 -0.00000000000E+00 -0.00000000000E+00 -0.45593999997E+02  0.45594000000E+02  0.51100000000E-03 0. -1.
    9900012    2    1    2    0    0  0.72085056118E+01 -0.39727071167E+02 -0.47922833808E+01  0.50528822480E+02  0.29999886409E+02 0.  0.
         12    1    1    2    0    0 -0.72085056118E+01  0.39727071167E+02  0.47922833808E+01  0.40659177520E+02  0.00000000000E+00 0. -1.
         11    1    3    3    0    0 -0.17732003010E+00  0.12002734440E+01  0.61479578693E+01  0.62665369190E+01  0.51100000000E-03 0. -1.
        -11    1    3    3    0    0  0.51367122903E+01 -0.39619121555E+02 -0.88365456992E+01  0.40916318824E+02  0.51100000000E-03 0.  1.
        -12    1    3    3    0    0  0.22491133517E+01 -0.13082230558E+01 -0.21036955509E+01  0.33459667367E+01  0.00000000000E+00 0.  1.
</event>
<event>
 7    1  0.5946946E-013  0.5052888E+02  0.7816164E-02  0.1300439E+00
        -11   -1    0    0    0    0  0.00000000000E+00  0.00000000000E+00  0.45593999997E+02  0.45594000000E+02  0.51100000000E-03 0.  1.
         11   -1    0    0    0    0 -0.00000000000E+00 -0.00000000000E+00 -0.45593999997E+02  0.45594000000E+02  0.51100000000E-03 0. -1.
    9900012    2    1    2    0    0  0.10992951674E+02  0.28919809619E+02  0.26381116798E+02  0.50528884190E+02  0.30000073985E+02 0.  0.
         12    1    1    2    0    0 -0.10992951674E+02 -0.28919809619E+02 -0.26381116798E+02  0.40659115810E+02  0.00000000000E+00 0. -1.
         11    1    3    3    0    0  0.14494786863E+02  0.22903261266E+02  0.96323877658E+01  0.28765276240E+02  0.51100000000E-03 0. -1.
        -11    1    3    3    0    0 -0.78416849095E+01  0.32283187887E+01  0.12368227420E+02  0.14996236667E+02  0.51100000000E-03 0.  1.
         12    1    3    3    0    0  0.43398497208E+01  0.27882295637E+01  0.43805016126E+01  0.67673712827E+01  0.00000000000E+00 0. -1.
</event>
<event>
 7    1  0.5946946E-013  0.5052886E+02  0.7816164E-02  0.1300439E+00
        -11   -1    0    0    0    0  0.00000000000E+00  0.00000000000E+00  0.45593999997E+02  0.45594000000E+02  0.51100000000E-03 0.  1.
         11   -1    0    0    0    0 -0.00000000000E+00 -0.00000000000E+00 -0.45593999997E+02  0.45594000000E+02  0.51100000000E-03 0. -1.
    9900012    2    1    2    0    0 -0.33856934580E+02 -0.21641708159E+02  0.62056272368E+01  0.50528863750E+02  0.30000011853E+02 0.  0.
         12    1    1    2    0    0  0.33856934580E+02  0.21641708159E+02 -0.62056272368E+01  0.40659136250E+02  0.00000000000E+00 0. -1.
         11    1    3    3    0    0 -0.62038299690E+01  0.51257594297E+01 -0.11976112658E+01  0.81360425896E+01  0.51100000000E-03 0. -1.
        -11    1    3    3    0    0 -0.13433579719E+02 -0.16642769472E+02  0.11751372730E+02  0.24403639095E+02  0.51100000000E-03 0.  1.
         12    1    3    3    0    0 -0.14219524892E+02 -0.10124698117E+02 -0.43481342275E+01  0.17989182065E+02  0.00000000000E+00 0. -1.
</event>
<event>
 7    1  0.5946946E-013  0.5052886E+02  0.7816164E-02  0.1300439E+00
        -11   -1    0    0    0    0  0.00000000000E+00  0.00000000000E+00  0.45593999997E+02  0.45594000000E+02  0.51100000000E-03 0. -1.
         11   -1    0    0    0    0 -0.00000000000E+00 -0.00000000000E+00 -0.45593999997E+02  0.45594000000E+02  0.51100000000E-03 0.  1.
    9900012    2    1    2    0    0  0.42783569647E+01 -0.13949988782E+02 -0.37950750035E+02  0.50528856458E+02  0.29999989691E+02 0.  0.
         12    1    1    2    0    0 -0.42783569647E+01  0.13949988782E+02  0.37950750035E+02  0.40659143542E+02  0.00000000000E+00 0. -1.
         11    1    3    3    0    0 -0.83312551607E+01  0.19226098145E+01 -0.23002302136E+01  0.88542249999E+01  0.51100000000E-03 0. -1.
        -11    1    3    3    0    0 -0.51692486655E+00 -0.43622492286E+00 -0.42520120251E+01  0.43054744249E+01  0.51100000000E-03 0.  1.
         12    1    3    3    0    0  0.13126536992E+02 -0.15436373673E+02 -0.31398507796E+02  0.37369157034E+02  0.00000000000E+00 0. -1.
</event>
<event>
 7    1  0.5946946E-013  0.5052887E+02  0.7816164E-02  0.1300439E+00
        -11   -1    0    0    0    0  0.00000000000E+00  0.00000000000E+00  0.45593999997E+02  0.45594000000E+02  0.51100000000E-03 0.  1.
         11   -1    0    0    0    0 -0.00000000000E+00 -0.00000000000E+00 -0.45593999997E+02  0.45594000000E+02  0.51100000000E-03 0. -1.
    9900012    2    1    2    0    0 -0.51385837899E+01 -0.17199962659E+02  0.36481788578E+02  0.50528872406E+02  0.30000038165E+02 0.  0.
         12    1    1    2    0    0  0.51385837899E+01  0.17199962659E+02 -0.36481788578E+02  0.40659127594E+02  0.00000000000E+00 0. -1.
         11    1    3    3    0    0  0.76676810797E+01 -0.20870233982E+01  0.18884878645E+02  0.20488719860E+02  0.51100000000E-03 0. -1.
        -11    1    3    3    0    0 -0.49505404130E+01 -0.78921711690E+01  0.16960827479E+02  0.19351069355E+02  0.51100000000E-03 0.  1.
         12    1    3    3    0    0 -0.78557244565E+01 -0.72207680917E+01  0.63608245398E+00  0.10689083191E+02  0.00000000000E+00 0. -1.
</event>
<event>
 7    1  0.5946946E-013  0.5052888E+02  0.7816164E-02  0.1300439E+00
        -11   -1    0    0    0    0  0.00000000000E+00  0.00000000000E+00  0.45593999997E+02  0.45594000000E+02  0.51100000000E-03 0.  1.
         11   -1    0    0    0    0 -0.00000000000E+00 -0.00000000000E+00 -0.45593999997E+02  0.45594000000E+02  0.51100000000E-03 0. -1.
    9900012    2    1    2    0    0  0.31671577791E+02  0.22978527720E+02  0.11048197588E+02  0.50528877457E+02  0.30000053519E+02 0.  0.
         12    1    1    2    0    0 -0.31671577791E+02 -0.22978527720E+02 -0.11048197588E+02  0.40659122543E+02  0.00000000000E+00 0. -1.
         11    1    3    3    0    0 -0.29226653033E+01  0.54282091533E+01 -0.13139501722E+01  0.63034825615E+01  0.51100000000E-03 0. -1.
        -11    1    3    3    0    0  0.33535707772E+02  0.13142182251E+02  0.14958045677E+02  0.39001330501E+02  0.51100000000E-03 0.  1.
        -12    1    3    3    0    0  0.10585353228E+01  0.44081363163E+01 -0.25958979165E+01  0.52240643952E+01  0.00000000000E+00 0.  1.
</event>
<event>
 7    1  0.5946946E-013  0.5052889E+02  0.7816164E-02  0.1300439E+00
        -11   -1    0    0    0    0  0.00000000000E+00  0.00000000000E+00  0.45593999997E+02  0.45594000000E+02  0.51100000000E-03 0.  1.
         11   -1    0    0    0    0 -0.00000000000E+00 -0.00000000000E+00 -0.45593999997E+02  0.45594000000E+02  0.51100000000E-03 0. -1.
    9900012    2    1    2    0    0 -0.93442908177E+01 -0.22399544727E+02  0.32620671031E+02  0.50528885974E+02  0.30000079406E+02 0.  0.
         12    1    1    2    0    0  0.93442908177E+01  0.22399544727E+02 -0.32620671031E+02  0.40659114026E+02  0.00000000000E+00 0. -1.
         11    1    3    3    0    0  0.45833165012E+01 -0.25145565060E+01 -0.33214091844E+01  0.61936696557E+01  0.51100000000E-03 0.  1.
        -11    1    3    3    0    0 -0.11326734520E+02 -0.14561988026E+02  0.19432973980E+02  0.26795277347E+02  0.51100000000E-03 0. -1.
        -12    1    3    3    0    0 -0.26008727990E+01 -0.53230001948E+01  0.16509106236E+02  0.17539938971E+02  0.00000000000E+00 0.  1.
</event>
<event>
 7    1  0.5946946E-013  0.5052886E+02  0.7816164E-02  0.1300439E+00
        -11   -1    0    0    0    0  0.00000000000E+00  0.00000000000E+00  0.45593999997E+02  0.45594000000E+02  0.51100000000E-03 0.  1.
         11   -1    0    0    0    0 -0.00000000000E+00 -0.00000000000E+00 -0.45593999997E+02  0.45594000000E+02  0.51100000000E-03 0. -1.
    9900012    2    1    2    0    0  0.18535043266E+02 -0.20441117620E+02  0.29862655965E+02  0.50528864007E+02  0.30000012635E+02 0.  0.
         12    1    1    2    0    0 -0.18535043266E+02  0.20441117620E+02 -0.29862655965E+02  0.40659135993E+02  0.00000000000E+00 0. -1.
         11    1    3    3    0    0  0.50461936480E+01 -0.13763294829E+02 -0.14797930608E+01  0.14733707702E+02  0.51100000000E-03 0. -1.
        -11    1    3    3    0    0  0.49822183118E+01 -0.71111761754E+01  0.14001325604E+02  0.16475085579E+02  0.51100000000E-03 0.  1.
        -12    1    3    3    0    0  0.85066313059E+01  0.43335338373E+00  0.17341123422E+02  0.19320070726E+02  0.00000000000E+00 0.  1.
</event>
<event>
 7    1  0.5946946E-013  0.5052885E+02  0.7816164E-02  0.1300439E+00
        -11   -1    0    0    0    0  0.00000000000E+00  0.00000000000E+00  0.45593999997E+02  0.45594000000E+02  0.51100000000E-03 0. -1.
         11   -1    0    0    0    0 -0.00000000000E+00 -0.00000000000E+00 -0.45593999997E+02  0.45594000000E+02  0.51100000000E-03 0.  1.
    9900012    2    1    2    0    0  0.24268254911E+02  0.17569567941E+02  0.27486878891E+02  0.50528850658E+02  0.29999972060E+02 0.  0.
         12    1    1    2    0    0 -0.24268254911E+02 -0.17569567941E+02 -0.27486878891E+02  0.40659149342E+02  0.00000000000E+00 0. -1.
         11    1    3    3    0    0  0.29641623413E+01  0.14245039162E+02  0.21149052421E+02  0.25670796982E+02  0.51100000000E-03 0. -1.
        -11    1    3    3    0    0  0.50363220696E+01  0.25990820389E+01 -0.26522132503E+01  0.62573159437E+01  0.51100000000E-03 0.  1.
         12    1    3    3    0    0  0.16267770500E+02  0.72544673955E+00  0.89900397200E+01  0.18600737732E+02  0.00000000000E+00 0. -1.
</event>
<event>
 7    1  0.5946946E-013  0.5052886E+02  0.7816164E-02  0.1300439E+00
        -11   -1    0    0    0    0  0.00000000000E+00  0.00000000000E+00  0.45593999997E+02  0.45594000000E+02  0.51100000000E-03 0.  1.
         11   -1    0    0    0    0 -0.00000000000E+00 -0.00000000000E+00 -0.45593999997E+02  0.45594000000E+02  0.51100000000E-03 0. -1.
    9900012    2    1    2    0    0 -0.39110320089E+02 -0.19371400103E+01  0.10945122072E+02  0.50528863929E+02  0.30000012399E+02 0.  0.
         12    1    1    2    0    0  0.39110320089E+02  0.19371400103E+01 -0.10945122072E+02  0.40659136071E+02  0.00000000000E+00 0. -1.
         11    1    3    3    0    0 -0.19880897426E+02  0.25655375686E+01  0.12664776748E+02  0.23711360902E+02  0.51100000000E-03 0.  1.
        -11    1    3    3    0    0 -0.19956771276E+02 -0.20528248861E+01 -0.67566570818E+01  0.21169299114E+02  0.51100000000E-03 0. -1.
         12    1    3    3    0    0  0.72734861316E+00 -0.24498526928E+01  0.50370024052E+01  0.56482039137E+01  0.00000000000E+00 0. -1.
</event>
<event>
 7    1  0.5946946E-013  0.5052887E+02  0.7816164E-02  0.1300439E+00
        -11   -1    0    0    0    0  0.00000000000E+00  0.00000000000E+00  0.45593999997E+02  0.45594000000E+02  0.51100000000E-03 0.  1.
         11   -1    0    0    0    0 -0.00000000000E+00 -0.00000000000E+00 -0.45593999997E+02  0.45594000000E+02  0.51100000000E-03 0. -1.
    9900012    2    1    2    0    0  0.16066825166E+02 -0.10038020820E+02  0.35975831952E+02  0.50528865509E+02  0.30000017201E+02 0.  0.
         12    1    1    2    0    0 -0.16066825166E+02  0.10038020820E+02 -0.35975831952E+02  0.40659134491E+02  0.00000000000E+00 0. -1.
         11    1    3    3    0    0  0.89081735330E+01 -0.42363271816E+01  0.42494970290E+00  0.98733280202E+01  0.51100000000E-03 0. -1.
        -11    1    3    3    0    0  0.15038736991E+01 -0.11473436930E+02  0.23362993381E+02  0.26071648415E+02  0.51100000000E-03 0.  1.
         12    1    3    3    0    0  0.56547779336E+01  0.56717432920E+01  0.12187888869E+02  0.14583889074E+02  0.00000000000E+00 0. -1.
</event>
<event>
 7    1  0.5946946E-013  0.5052885E+02  0.7816164E-02  0.1300439E+00
        -11   -1    0    0    0    0  0.00000000000E+00  0.00000000000E+00  0.45593999997E+02  0.45594000000E+02  0.51100000000E-03 0.  1.
         11   -1    0    0    0    0 -0.00000000000E+00 -0.00000000000E+00 -0.45593999997E+02  0.45594000000E+02  0.51100000000E-03 0. -1.
    9900012    2    1    2    0    0  0.17149578059E+02  0.59892415651E+01  0.36375638861E+02  0.50528854108E+02  0.29999982548E+02 0.  0.
         12    1    1    2    0    0 -0.17149578059E+02 -0.59892415651E+01 -0.36375638861E+02  0.40659145892E+02  0.00000000000E+00 0. -1.
         11    1    3    3    0    0  0.14160579843E+02  0.55255400784E+01  0.12863737097E+02  0.19913044644E+02  0.51100000000E-03 0. -1.
        -11    1    3    3    0    0 -0.45115524095E+01  0.58425924738E+00  0.22606684088E+02  0.23059870548E+02  0.51100000000E-03 0.  1.
        -12    1    3    3    0    0  0.75005506254E+01 -0.12055776063E+00  0.90521767620E+00  0.75559389158E+01  0.00000000000E+00 0.  1.
</event>
<event>
 7    1  0.5946946E-013  0.5052885E+02  0.7816164E-02  0.1300439E+00
        -11   -1    0    0    0    0  0.00000000000E+00  0.00000000000E+00  0.45593999997E+02  0.45594000000E+02  0.51100000000E-03 0.  1.
         11   -1    0    0    0    0 -0.00000000000E+00 -0.00000000000E+00 -0.45593999997E+02  0.45594000000E+02  0.51100000000E-03 0. -1.
    9900012    2    1    2    0    0 -0.34582387570E+02 -0.21207170036E+02 -0.27350701397E+01  0.50528853432E+02  0.29999980492E+02 0.  0.
         12    1    1    2    0    0  0.34582387570E+02  0.21207170036E+02  0.27350701397E+01  0.40659146568E+02  0.00000000000E+00 0. -1.
         11    1    3    3    0    0 -0.24730717202E+01 -0.11553094869E+02  0.63345263870E+01  0.13405831179E+02  0.51100000000E-03 0. -1.
        -11    1    3    3    0    0 -0.11723022010E+02 -0.69434398575E+01 -0.94028978405E+01  0.16554609333E+02  0.51100000000E-03 0.  1.
         12    1    3    3    0    0 -0.20386293839E+02 -0.27106353095E+01  0.33330131380E+00  0.20568412920E+02  0.00000000000E+00 0. -1.
</event>
<event>
 7    1  0.5946946E-013  0.5052887E+02  0.7816164E-02  0.1300439E+00
        -11   -1    0    0    0    0  0.00000000000E+00  0.00000000000E+00  0.45593999997E+02  0.45594000000E+02  0.51100000000E-03 0. -1.
         11   -1    0    0    0    0 -0.00000000000E+00 -0.00000000000E+00 -0.45593999997E+02  0.45594000000E+02  0.51100000000E-03 0.  1.
    9900012    2    1    2    0    0  0.73091379158E+01  0.31349894919E+02 -0.24837986761E+02  0.50528868248E+02  0.30000025528E+02 0.  0.
         12    1    1    2    0    0 -0.73091379158E+01 -0.31349894919E+02  0.24837986761E+02  0.40659131752E+02  0.00000000000E+00 0. -1.
         11    1    3    3    0    0 -0.21071875210E+01 -0.11615857853E+01 -0.26518652425E+01  0.35807695138E+01  0.51100000000E-03 0. -1.
        -11    1    3    3    0    0  0.15212992396E+02  0.18761597734E+02 -0.59096242223E+01  0.24866771923E+02  0.51100000000E-03 0.  1.
        -12    1    3    3    0    0 -0.57966669594E+01  0.13749882970E+02 -0.16276497296E+02  0.22081326811E+02  0.00000000000E+00 0.  1.
</event>
<event>
 7    1  0.5946946E-013  0.5052884E+02  0.7816164E-02  0.1300439E+00
        -11   -1    0    0    0    0  0.00000000000E+00  0.00000000000E+00  0.45593999997E+02  0.45594000000E+02  0.51100000000E-03 0. -1.
         11   -1    0    0    0    0 -0.00000000000E+00 -0.00000000000E+00 -0.45593999997E+02  0.45594000000E+02  0.51100000000E-03 0.  1.
    9900012    2    1    2    0    0 -0.34567741402E+02  0.19070591487E+02  0.97237590406E+01  0.50528835041E+02  0.29999924591E+02 0.  0.
         12    1    1    2    0    0  0.34567741402E+02 -0.19070591487E+02 -0.97237590406E+01  0.40659164959E+02  0.00000000000E+00 0. -1.
         11    1    3    3    0    0 -0.31912801424E+02  0.19094039935E+02  0.14646738864E+02  0.39969190828E+02  0.51100000000E-03 0. -1.
        -11    1    3    3    0    0 -0.29874721391E+01 -0.40077180934E+01 -0.13018399477E+01  0.51654217261E+01  0.51100000000E-03 0.  1.
         12    1    3    3    0    0  0.33253216172E+00  0.39842696451E+01 -0.36211398758E+01  0.53942224874E+01  0.00000000000E+00 0. -1.
</event>
<event>
 7    1  0.5946946E-013  0.5052886E+02  0.7816164E-02  0.1300439E+00
        -11   -1    0    0    0    0  0.00000000000E+00  0.00000000000E+00  0.45593999997E+02  0.45594000000E+02  0.51100000000E-03 0. -1.
         11   -1    0    0    0    0 -0.00000000000E+00 -0.00000000000E+00 -0.45593999997E+02  0.45594000000E+02  0.51100000000E-03 0.  1.
    9900012    2    1    2    0    0 -0.22612479925E+02  0.10624565731E+01 -0.33774433482E+02  0.50528863027E+02  0.30000009658E+02 0.  0.
         12    1    1    2    0    0  0.22612479925E+02 -0.10624565731E+01  0.33774433482E+02  0.40659136973E+02  0.00000000000E+00 0. -1.
         11    1    3    3    0    0 -0.17994177322E+02  0.93689458232E+01 -0.14599602050E+02  0.24994318227E+02  0.51100000000E-03 0. -1.
        -11    1    3    3    0    0 -0.89580942699E+01 -0.52446878246E+01 -0.78115779564E+01  0.12991341492E+02  0.51100000000E-03 0.  1.
         12    1    3    3    0    0  0.43397916677E+01 -0.30618014255E+01 -0.11363253476E+02  0.12543203309E+02  0.00000000000E+00 0. -1.
</event>
<event>
 7    1  0.5946946E-013  0.5052886E+02  0.7816164E-02  0.1300439E+00
        -11   -1    0    0    0    0  0.00000000000E+00  0.00000000000E+00  0.45593999997E+02  0.45594000000E+02  0.51100000000E-03 0. -1.
         11   -1    0    0    0    0 -0.00000000000E+00 -0.00000000000E+00 -0.45593999997E+02  0.45594000000E+02  0.51100000000E-03 0.  1.
    9900012    2    1    2    0    0 -0.17611780066E+02  0.36118697553E+02 -0.61992692480E+01  0.50528855282E+02  0.29999986114E+02 0.  0.
         12    1    1    2    0    0  0.17611780066E+02 -0.36118697553E+02  0.61992692480E+01  0.40659144718E+02  0.00000000000E+00 0. -1.
         11    1    3    3    0    0 -0.35240546507E+01  0.28683060182E+00 -0.95892984870E+01  0.10220365879E+02  0.51100000000E-03 0. -1.
        -11    1    3    3    0    0 -0.15127456254E+02  0.27364660359E+02  0.40417604062E+00  0.31270240290E+02  0.51100000000E-03 0.  1.
        -12    1    3    3    0    0  0.10397308383E+01  0.84672065918E+01  0.29858531983E+01  0.90382491118E+01  0.00000000000E+00 0.  1.
</event>
<event>
 7    1  0.5946946E-013  0.5052885E+02  0.7816164E-02  0.1300439E+00
        -11   -1    0    0    0    0  0.00000000000E+00  0.00000000000E+00  0.45593999997E+02  0.45594000000E+02  0.51100000000E-03 0. -1.
         11   -1    0    0    0    0 -0.00000000000E+00 -0.00000000000E+00 -0.45593999997E+02  0.45594000000E+02  0.51100000000E-03 0.  1.
    9900012    2    1    2    0    0  0.55131795093E+01 -0.37678157890E+02 -0.14252280126E+02  0.50528853193E+02  0.29999979766E+02 0.  0.
         12    1    1    2    0    0 -0.55131795093E+01  0.37678157890E+02  0.14252280126E+02  0.40659146807E+02  0.00000000000E+00 0. -1.
         11    1    3    3    0    0  0.72525519123E+00  0.32188088677E+01 -0.14275891055E+01  0.35950989604E+01  0.51100000000E-03 0. -1.
        -11    1    3    3    0    0  0.87969575557E+01 -0.39110515558E+02 -0.89398409704E+01  0.41072370838E+02  0.51100000000E-03 0.  1.
        -12    1    3    3    0    0 -0.40090332377E+01 -0.17864511998E+01 -0.38848500500E+01  0.58613833948E+01  0.00000000000E+00 0.  1.
</event>
<event>
 7    1  0.5946946E-013  0.5052885E+02  0.7816164E-02  0.1300439E+00
        -11   -1    0    0    0    0  0.00000000000E+00  0.00000000000E+00  0.45593999997E+02  0.45594000000E+02  0.51100000000E-03 0.  1.
         11   -1    0    0    0    0 -0.00000000000E+00 -0.00000000000E+00 -0.45593999997E+02  0.45594000000E+02  0.51100000000E-03 0. -1.
    9900012    2    1    2    0    0  0.24942581690E+02  0.24180124631E+02  0.21127136534E+02  0.50528847197E+02  0.29999961541E+02 0.  0.
         12    1    1    2    0    0 -0.24942581690E+02 -0.24180124631E+02 -0.21127136534E+02  0.40659152803E+02  0.00000000000E+00 0. -1.
         11    1    3    3    0    0  0.14476406394E+02  0.25756927132E+01 -0.33338519729E+01  0.15076972649E+02  0.51100000000E-03 0. -1.
        -11    1    3    3    0    0  0.95688245569E+01  0.16211710527E+02  0.13379651517E+02  0.23095389943E+02  0.51100000000E-03 0.  1.
        -12    1    3    3    0    0  0.89735073962E+00  0.53927213903E+01  0.11081336989E+02  0.12356484606E+02  0.00000000000E+00 0.  1.
</event>
<event>
 7    1  0.5946946E-013  0.5052885E+02  0.7816164E-02  0.1300439E+00
        -11   -1    0    0    0    0  0.00000000000E+00  0.00000000000E+00  0.45593999997E+02  0.45594000000E+02  0.51100000000E-03 0.  1.
         11   -1    0    0    0    0 -0.00000000000E+00 -0.00000000000E+00 -0.45593999997E+02  0.45594000000E+02  0.51100000000E-03 0. -1.
    9900012    2    1    2    0    0  0.30259851782E+02 -0.74679830994E+01  0.26110100766E+02  0.50528846499E+02  0.29999959418E+02 0.  0.
         12    1    1    2    0    0 -0.30259851782E+02  0.74679830994E+01 -0.26110100766E+02  0.40659153501E+02  0.00000000000E+00 0. -1.
         11    1    3    3    0    0  0.10095797125E+01  0.20746750665E+01 -0.55393433563E+01  0.60006543733E+01  0.51100000000E-03 0. -1.
        -11    1    3    3    0    0  0.17315701571E+02 -0.45424737715E+01  0.22129950248E+02  0.28464052542E+02  0.51100000000E-03 0.  1.
         12    1    3    3    0    0  0.11934570498E+02 -0.50001843944E+01  0.95194938737E+01  0.16064139584E+02  0.00000000000E+00 0. -1.
</event>
<event>
 7    1  0.5946946E-013  0.5052888E+02  0.7816164E-02  0.1300439E+00
        -11   -1    0    0    0    0  0.00000000000E+00  0.00000000000E+00  0.45593999997E+02  0.45594000000E+02  0.51100000000E-03 0. -1.
         11   -1    0    0    0    0 -0.00000000000E+00 -0.00000000000E+00 -0.45593999997E+02  0.45594000000E+02  0.51100000000E-03 0.  1.
    9900012    2    1    2    0    0  0.26617193525E+02 -0.19213300215E+02 -0.23990377521E+02  0.50528879130E+02  0.30000058604E+02 0.  0.
         12    1    1    2    0    0 -0.26617193525E+02  0.19213300215E+02  0.23990377521E+02  0.40659120870E+02  0.00000000000E+00 0. -1.
         11    1    3    3    0    0 -0.15659819939E+01  0.66184910183E+00  0.45970654461E+01  0.49013625469E+01  0.51100000000E-03 0. -1.
        -11    1    3    3    0    0  0.25968962695E+02 -0.17042012595E+02 -0.21805292802E+02  0.37951126613E+02  0.51100000000E-03 0.  1.
         12    1    3    3    0    0  0.22142128239E+01 -0.28331367223E+01 -0.67821501655E+01  0.76763899708E+01  0.00000000000E+00 0. -1.
</event>
<event>
 7    1  0.5946946E-013  0.5052884E+02  0.7816164E-02  0.1300439E+00
        -11   -1    0    0    0    0  0.00000000000E+00  0.00000000000E+00  0.45593999997E+02  0.45594000000E+02  0.51100000000E-03 0.  1.
         11   -1    0    0    0    0 -0.00000000000E+00 -0.00000000000E+00 -0.45593999997E+02  0.45594000000E+02  0.51100000000E-03 0. -1.
    9900012    2    1    2    0    0 -0.35998830191E+02 -0.49124018302E+01  0.18251560461E+02  0.50528844498E+02  0.29999953336E+02 0.  0.
         12    1    1    2    0    0  0.35998830191E+02  0.49124018302E+01 -0.18251560461E+02  0.40659155502E+02  0.00000000000E+00 0. -1.
         11    1    3    3    0    0 -0.68271826618E+01 -0.22308439538E+01 -0.80715953187E+01  0.10804524011E+02  0.51100000000E-03 0. -1.
        -11    1    3    3    0    0 -0.19335508968E+02  0.24646289102E+00  0.15251793596E+02  0.24628029949E+02  0.51100000000E-03 0.  1.
         12    1    3    3    0    0 -0.98361385608E+01 -0.29280207674E+01  0.11071362184E+02  0.15096290538E+02  0.00000000000E+00 0. -1.
</event>
<event>
 7    1  0.5946946E-013  0.5052886E+02  0.7816164E-02  0.1300439E+00
        -11   -1    0    0    0    0  0.00000000000E+00  0.00000000000E+00  0.45593999997E+02  0.45594000000E+02  0.51100000000E-03 0.  1.
         11   -1    0    0    0    0 -0.00000000000E+00 -0.00000000000E+00 -0.45593999997E+02  0.45594000000E+02  0.51100000000E-03 0. -1.
    9900012    2    1    2    0    0 -0.23589780511E+02  0.32603146171E+02  0.58071414910E+01  0.50528858628E+02  0.29999996286E+02 0.  0.
         12    1    1    2    0    0  0.23589780511E+02 -0.32603146171E+02 -0.58071414910E+01  0.40659141372E+02  0.00000000000E+00 0. -1.
         11    1    3    3    0    0 -0.11325134840E+02  0.19547298949E+02 -0.90704506025E+01  0.24343965366E+02  0.51100000000E-03 0. -1.
        -11    1    3    3    0    0 -0.11871588992E+02  0.51943689101E+01  0.58790764533E+01  0.14229533857E+02  0.51100000000E-03 0.  1.
         12    1    3    3    0    0 -0.39305667942E+00  0.78614783115E+01  0.89985156402E+01  0.11955359406E+02  0.00000000000E+00 0. -1.
</event>
<event>
 7    1  0.5946946E-013  0.5052877E+02  0.7816164E-02  0.1300439E+00
        -11   -1    0    0    0    0  0.00000000000E+00  0.00000000000E+00  0.45593999997E+02  0.45594000000E+02  0.51100000000E-03 0. -1.
         11   -1    0    0    0    0 -0.00000000000E+00 -0.00000000000E+00 -0.45593999997E+02  0.45594000000E+02  0.51100000000E-03 0.  1.
    9900012    2    1    2    0    0  0.38512307709E+02 -0.44454004236E+00 -0.13029872660E+02  0.50528769283E+02  0.29999724712E+02 0.  0.
         12    1    1    2    0    0 -0.38512307709E+02  0.44454004236E+00  0.13029872660E+02  0.40659230717E+02  0.00000000000E+00 0. -1.
         11    1    3    3    0    0  0.29292838189E+02  0.53909238743E+01  0.15606195391E+01  0.29825625945E+02  0.51100000000E-03 0. -1.
        -11    1    3    3    0    0  0.66754147966E+01 -0.45134793286E+01 -0.27406409258E+01  0.85113906797E+01  0.51100000000E-03 0.  1.
         12    1    3    3    0    0  0.25440547233E+01 -0.13219845881E+01 -0.11849851273E+02  0.12191752659E+02  0.00000000000E+00 0. -1.
</event>
<event>
 7    1  0.5946946E-013  0.5052886E+02  0.7816164E-02  0.1300439E+00
        -11   -1    0    0    0    0  0.00000000000E+00  0.00000000000E+00  0.45593999997E+02  0.45594000000E+02  0.51100000000E-03 0.  1.
         11   -1    0    0    0    0 -0.00000000000E+00 -0.00000000000E+00 -0.45593999997E+02  0.45594000000E+02  0.51100000000E-03 0. -1.
    9900012    2    1    2    0    0  0.24620255764E+02  0.18091822543E+02  0.26827125118E+02  0.50528859836E+02  0.29999999957E+02 0.  0.
         12    1    1    2    0    0 -0.24620255764E+02 -0.18091822543E+02 -0.26827125118E+02  0.40659140164E+02  0.00000000000E+00 0. -1.
         11    1    3    3    0    0  0.11026518770E+02  0.45392324396E+01 -0.31765018920E+01  0.12340134191E+02  0.51100000000E-03 0. -1.
        -11    1    3    3    0    0  0.33393367706E+01  0.99125454021E+00  0.17140591696E+02  0.17490958795E+02  0.51100000000E-03 0.  1.
        -12    1    3    3    0    0  0.10254400224E+02  0.12561335563E+02  0.12863035314E+02  0.20697766850E+02  0.00000000000E+00 0.  1.
</event>
<event>
 7    1  0.5946946E-013  0.5052886E+02  0.7816164E-02  0.1300439E+00
        -11   -1    0    0    0    0  0.00000000000E+00  0.00000000000E+00  0.45593999997E+02  0.45594000000E+02  0.51100000000E-03 0.  1.
         11   -1    0    0    0    0 -0.00000000000E+00 -0.00000000000E+00 -0.45593999997E+02  0.45594000000E+02  0.51100000000E-03 0. -1.
    9900012    2    1    2    0    0  0.19703295611E+02 -0.11549054073E+02  0.33638746423E+02  0.50528858730E+02  0.29999996596E+02 0.  0.
         12    1    1    2    0    0 -0.19703295611E+02  0.11549054073E+02 -0.33638746423E+02  0.40659141270E+02  0.00000000000E+00 0. -1.
         11    1    3    3    0    0 -0.57324846074E+01 -0.79879099465E+00  0.34211259021E+01  0.67233585005E+01  0.51100000000E-03 0. -1.
        -11    1    3    3    0    0  0.22373728122E+02 -0.97640510574E+01  0.31905096773E+02  0.40172821702E+02  0.51100000000E-03 0.  1.
        -12    1    3    3    0    0  0.30620520957E+01 -0.98621202077E+00 -0.16874762518E+01  0.36326785279E+01  0.00000000000E+00 0.  1.
</event>
<event>
 7    1  0.5946946E-013  0.5052887E+02  0.7816164E-02  0.1300439E+00
        -11   -1    0    0    0    0  0.00000000000E+00  0.00000000000E+00  0.45593999997E+02  0.45594000000E+02  0.51100000000E-03 0.  1.
         11   -1    0    0    0    0 -0.00000000000E+00 -0.00000000000E+00 -0.45593999997E+02  0.45594000000E+02  0.51100000000E-03 0. -1.
    9900012    2    1    2    0    0 -0.35441018569E+02  0.71087589183E+00  0.19914653502E+02  0.50528873523E+02  0.30000041562E+02 0.  0.
         12    1    1    2    0    0  0.35441018569E+02 -0.71087589183E+00 -0.19914653502E+02  0.40659126477E+02  0.00000000000E+00 0. -1.
         11    1    3    3    0    0  0.15877666757E+01 -0.22051282326E+01  0.25084160145E+01  0.36980731066E+01  0.51100000000E-03 0. -1.
        -11    1    3    3    0    0 -0.25076491313E+02  0.44670986491E+01  0.22269921684E+02  0.33833929700E+02  0.51100000000E-03 0.  1.
        -12    1    3    3    0    0 -0.11952293932E+02 -0.15510945247E+01 -0.48636841966E+01  0.12996870717E+02  0.00000000000E+00 0.  1.
</event>
<event>
 7    1  0.5946946E-013  0.5052886E+02  0.7816164E-02  0.1300439E+00
        -11   -1    0    0    0    0  0.00000000000E+00  0.00000000000E+00  0.45593999997E+02  0.45594000000E+02  0.51100000000E-03 0.  1.
         11   -1    0    0    0    0 -0.00000000000E+00 -0.00000000000E+00 -0.45593999997E+02  0.45594000000E+02  0.51100000000E-03 0. -1.
    9900012    2    1    2    0    0 -0.97021907696E+01  0.14458856052E+02  0.36742006203E+02  0.50528855348E+02  0.29999986314E+02 0.  0.
         12    1    1    2    0    0  0.97021907696E+01 -0.14458856052E+02 -0.36742006203E+02  0.40659144652E+02  0.00000000000E+00 0. -1.
         11    1    3    3    0    0  0.35317068051E+01  0.90074170640E+01  0.14918498095E+01  0.97893887060E+01  0.51100000000E-03 0. -1.
        -11    1    3    3    0    0 -0.15648455705E+02  0.15622860788E+01  0.29035332113E+02  0.33020681623E+02  0.51100000000E-03 0.  1.
        -12    1    3    3    0    0  0.24145581299E+01  0.38891529096E+01  0.62148242806E+01  0.77187850181E+01  0.00000000000E+00 0.  1.
</event>
<event>
 7    1  0.5946946E-013  0.5052886E+02  0.7816164E-02  0.1300439E+00
        -11   -1    0    0    0    0  0.00000000000E+00  0.00000000000E+00  0.45593999997E+02  0.45594000000E+02  0.51100000000E-03 0.  1.
         11   -1    0    0    0    0 -0.00000000000E+00 -0.00000000000E+00 -0.45593999997E+02  0.45594000000E+02  0.51100000000E-03 0. -1.
    9900012    2    1    2    0    0  0.34288612085E+02  0.83731335591E+01  0.20182844332E+02  0.50528862163E+02  0.30000007029E+02 0.  0.
         12    1    1    2    0    0 -0.34288612085E+02 -0.83731335591E+01 -0.20182844332E+02  0.40659137837E+02  0.00000000000E+00 0. -1.
         11    1    3    3    0    0  0.88610641485E+01 -0.68502655675E+01  0.29766181154E+01  0.11588997017E+02  0.51100000000E-03 0. -1.
        -11    1    3    3    0    0  0.14751232718E+02  0.12381241323E+02  0.94659263894E+00  0.19281857827E+02  0.51100000000E-03 0.  1.
        -12    1    3    3    0    0  0.10676315219E+02  0.28421578038E+01  0.16259633578E+02  0.19658007319E+02  0.00000000000E+00 0.  1.
</event>
<event>
 7    1  0.5946946E-013  0.5052886E+02  0.7816164E-02  0.1300439E+00
        -11   -1    0    0    0    0  0.00000000000E+00  0.00000000000E+00  0.45593999997E+02  0.45594000000E+02  0.51100000000E-03 0. -1.
         11   -1    0    0    0    0 -0.00000000000E+00 -0.00000000000E+00 -0.45593999997E+02  0.45594000000E+02  0.51100000000E-03 0.  1.
    9900012    2    1    2    0    0 -0.55815499845E+01 -0.38997948699E+02 -0.10058424087E+02  0.50528860829E+02  0.30000002977E+02 0.  0.
         12    1    1    2    0    0  0.55815499845E+01  0.38997948699E+02  0.10058424087E+02  0.40659139171E+02  0.00000000000E+00 0. -1.
         11    1    3    3    0    0 -0.77982225567E+01 -0.33338611081E+02 -0.43437886230E+01  0.34512950667E+02  0.51100000000E-03 0. -1.
        -11    1    3    3    0    0  0.69746084600E+01 -0.54963070869E+01 -0.41176136633E+00  0.88895501825E+01  0.51100000000E-03 0.  1.
         12    1    3    3    0    0 -0.47579358878E+01 -0.16303053094E+00 -0.53028740977E+01  0.71263599799E+01  0.00000000000E+00 0. -1.
</event>
<event>
 7    1  0.5946946E-013  0.5052886E+02  0.7816164E-02  0.1300439E+00
        -11   -1    0    0    0    0  0.00000000000E+00  0.00000000000E+00  0.45593999997E+02  0.45594000000E+02  0.51100000000E-03 0. -1.
         11   -1    0    0    0    0 -0.00000000000E+00 -0.00000000000E+00 -0.45593999997E+02  0.45594000000E+02  0.51100000000E-03 0.  1.
    9900012    2    1    2    0    0  0.59815828124E+01  0.38178322178E+02 -0.12641290435E+02  0.50528857841E+02  0.29999993893E+02 0.  0.
         12    1    1    2    0    0 -0.59815828124E+01 -0.38178322178E+02  0.12641290435E+02  0.40659142159E+02  0.00000000000E+00 0. -1.
         11    1    3    3    0    0  0.99950939263E+01  0.12774604491E+02 -0.78449215308E+01  0.18017636265E+02  0.51100000000E-03 0. -1.
        -11    1    3    3    0    0 -0.45293289781E+00  0.20203996721E+02  0.50410743801E+01  0.20828323574E+02  0.51100000000E-03 0.  1.
        -12    1    3    3    0    0 -0.35605782161E+01  0.51997209656E+01 -0.98374432844E+01  0.11682898002E+02  0.00000000000E+00 0.  1.
</event>
<event>
 7    1  0.5946946E-013  0.5052886E+02  0.7816164E-02  0.1300439E+00
        -11   -1    0    0    0    0  0.00000000000E+00  0.00000000000E+00  0.45593999997E+02  0.45594000000E+02  0.51100000000E-03 0.  1.
         11   -1    0    0    0    0 -0.00000000000E+00 -0.00000000000E+00 -0.45593999997E+02  0.45594000000E+02  0.51100000000E-03 0. -1.
    9900012    2    1    2    0    0  0.25657065683E+02 -0.31536678786E+02 -0.56447793166E+00  0.50528858793E+02  0.29999996789E+02 0.  0.
         12    1    1    2    0    0 -0.25657065683E+02  0.31536678786E+02  0.56447793166E+00  0.40659141207E+02  0.00000000000E+00 0. -1.
         11    1    3    3    0    0  0.16234524019E+02 -0.81876612816E+01 -0.31244607017E+01  0.18448843387E+02  0.51100000000E-03 0. -1.
        -11    1    3    3    0    0  0.87961341885E+00 -0.17778315364E+02  0.90730068983E+01  0.19979030792E+02  0.51100000000E-03 0.  1.
        -12    1    3    3    0    0  0.85429282450E+01 -0.55707021405E+01 -0.65130241283E+01  0.12100984614E+02  0.00000000000E+00 0.  1.
</event>
<event>
 7    1  0.5946946E-013  0.5052885E+02  0.7816164E-02  0.1300439E+00
        -11   -1    0    0    0    0  0.00000000000E+00  0.00000000000E+00  0.45593999997E+02  0.45594000000E+02  0.51100000000E-03 0.  1.
         11   -1    0    0    0    0 -0.00000000000E+00 -0.00000000000E+00 -0.45593999997E+02  0.45594000000E+02  0.51100000000E-03 0. -1.
    9900012    2    1    2    0    0  0.34526425133E+02 -0.21360827148E+02  0.21925922356E+01  0.50528850603E+02  0.29999971894E+02 0.  0.
         12    1    1    2    0    0 -0.34526425133E+02  0.21360827148E+02 -0.21925922356E+01  0.40659149397E+02  0.00000000000E+00 0. -1.
         11    1    3    3    0    0  0.24399775851E+02 -0.17685106959E+02  0.11062107163E+02  0.32101125913E+02  0.51100000000E-03 0. -1.
        -11    1    3    3    0    0  0.12618009260E+02 -0.31825350723E+01 -0.90973831558E+01  0.15877816843E+02  0.51100000000E-03 0.  1.
         12    1    3    3    0    0 -0.24913599778E+01 -0.49318511664E+00  0.22786822888E+00  0.25499078470E+01  0.00000000000E+00 0. -1.
</event>
<event>
 7    1  0.5946946E-013  0.5052884E+02  0.7816164E-02  0.1300439E+00
        -11   -1    0    0    0    0  0.00000000000E+00  0.00000000000E+00  0.45593999997E+02  0.45594000000E+02  0.51100000000E-03 0.  1.
         11   -1    0    0    0    0 -0.00000000000E+00 -0.00000000000E+00 -0.45593999997E+02  0.45594000000E+02  0.51100000000E-03 0. -1.
    9900012    2    1    2    0    0  0.21061953593E+02  0.30580225587E+02  0.16565358167E+02  0.50528841409E+02  0.29999943947E+02 0.  0.
         12    1    1    2    0    0 -0.21061953593E+02 -0.30580225587E+02 -0.16565358167E+02  0.40659158591E+02  0.00000000000E+00 0. -1.
         11    1    3    3    0    0 -0.35388684610E+00  0.32157928425E+01  0.22038111759E+01  0.39145042426E+01  0.51100000000E-03 0. -1.
        -11    1    3    3    0    0  0.62294103385E+01  0.18912346167E+02 -0.50670102650E+01  0.20546459160E+02  0.51100000000E-03 0.  1.
        -12    1    3    3    0    0  0.15186430101E+02  0.84520865774E+01  0.19428557256E+02  0.26067878007E+02  0.00000000000E+00 0.  1.
</event>
<event>
 7    1  0.5946946E-013  0.5052891E+02  0.7816164E-02  0.1300439E+00
        -11   -1    0    0    0    0  0.00000000000E+00  0.00000000000E+00  0.45593999997E+02  0.45594000000E+02  0.51100000000E-03 0.  1.
         11   -1    0    0    0    0 -0.00000000000E+00 -0.00000000000E+00 -0.45593999997E+02  0.45594000000E+02  0.51100000000E-03 0. -1.
    9900012    2    1    2    0    0 -0.12674429321E+02 -0.25291465460E+02  0.29203807144E+02  0.50528908330E+02  0.30000147361E+02 0.  0.
         12    1    1    2    0    0  0.12674429321E+02  0.25291465460E+02 -0.29203807144E+02  0.40659091670E+02  0.00000000000E+00 0. -1.
         11    1    3    3    0    0  0.17342921821E+01 -0.38788392096E+01  0.24688916860E+01  0.49141214276E+01  0.51100000000E-03 0. -1.
        -11    1    3    3    0    0 -0.13088569546E+02 -0.28308720971E+01  0.23001655576E+02  0.26615796984E+02  0.51100000000E-03 0.  1.
        -12    1    3    3    0    0 -0.13201519570E+01 -0.18581754153E+02  0.37332598817E+01  0.18998989919E+02  0.00000000000E+00 0.  1.
</event>
<event>
 7    1  0.5946946E-013  0.5052886E+02  0.7816164E-02  0.1300439E+00
        -11   -1    0    0    0    0  0.00000000000E+00  0.00000000000E+00  0.45593999997E+02  0.45594000000E+02  0.51100000000E-03 0.  1.
         11   -1    0    0    0    0 -0.00000000000E+00 -0.00000000000E+00 -0.45593999997E+02  0.45594000000E+02  0.51100000000E-03 0. -1.
    9900012    2    1    2    0    0 -0.55159555839E+01  0.13366357749E+02  0.38001057374E+02  0.50528860227E+02  0.30000001147E+02 0.  0.
         12    1    1    2    0    0  0.55159555839E+01 -0.13366357749E+02 -0.38001057374E+02  0.40659139773E+02  0.00000000000E+00 0. -1.
         11    1    3    3    0    0 -0.43499782510E+01 -0.58179205132E+01  0.26778981618E+02  0.27746790205E+02  0.51100000000E-03 0. -1.
        -11    1    3    3    0    0 -0.24192723670E+01  0.89292034428E+01  0.70877746859E+01  0.11654188224E+02  0.51100000000E-03 0.  1.
         12    1    3    3    0    0  0.12532950341E+01  0.10255074819E+02  0.41343010703E+01  0.11127881799E+02  0.00000000000E+00 0. -1.
</event>
<event>
 7    1  0.5946946E-013  0.5052887E+02  0.7816164E-02  0.1300439E+00
        -11   -1    0    0    0    0  0.00000000000E+00  0.00000000000E+00  0.45593999997E+02  0.45594000000E+02  0.51100000000E-03 0.  1.
         11   -1    0    0    0    0 -0.00000000000E+00 -0.00000000000E+00 -0.45593999997E+02  0.45594000000E+02  0.51100000000E-03 0. -1.
    9900012    2    1    2    0    0 -0.29822158399E+02 -0.23400811772E+02  0.14703941281E+02  0.50528868033E+02  0.30000024872E+02 0.  0.
         12    1    1    2    0    0  0.29822158399E+02  0.23400811772E+02 -0.14703941281E+02  0.40659131967E+02  0.00000000000E+00 0. -1.
         11    1    3    3    0    0 -0.41244892169E+01 -0.53986828305E+01  0.29962338618E+00  0.68005118954E+01  0.51100000000E-03 0. -1.
        -11    1    3    3    0    0 -0.13382609325E+02 -0.53821447404E+01  0.20504588493E+02  0.25069899559E+02  0.51100000000E-03 0.  1.
        -12    1    3    3    0    0 -0.12315059857E+02 -0.12619984201E+02 -0.61002705989E+01  0.18658456579E+02  0.00000000000E+00 0.  1.
</event>
<event>
 7    1  0.5946946E-013  0.5052884E+02  0.7816164E-02  0.1300439E+00
        -11   -1    0    0    0    0  0.00000000000E+00  0.00000000000E+00  0.45593999997E+02  0.45594000000E+02  0.51100000000E-03 0.  1.
         11   -1    0    0    0    0 -0.00000000000E+00 -0.00000000000E+00 -0.45593999997E+02  0.45594000000E+02  0.51100000000E-03 0. -1.
    9900012    2    1    2    0    0  0.16159730918E+02 -0.16378439775E+02  0.33522787177E+02  0.50528838020E+02  0.29999933646E+02 0.  0.
         12    1    1    2    0    0 -0.16159730918E+02  0.16378439775E+02 -0.33522787177E+02  0.40659161980E+02  0.00000000000E+00 0. -1.
         11    1    3    3    0    0 -0.53025905888E+00 -0.10262885936E+02  0.53609332897E-01  0.10276715264E+02  0.51100000000E-03 0. -1.
        -11    1    3    3    0    0  0.18347550782E+02 -0.28845883344E+01  0.26063557855E+02  0.32004101579E+02  0.51100000000E-03 0.  1.
        -12    1    3    3    0    0 -0.16575608047E+01 -0.32309655051E+01  0.74056199890E+01  0.82480211771E+01  0.00000000000E+00 0.  1.
</event>
<event>
 7    1  0.5946946E-013  0.5052886E+02  0.7816164E-02  0.1300439E+00
        -11   -1    0    0    0    0  0.00000000000E+00  0.00000000000E+00  0.45593999997E+02  0.45594000000E+02  0.51100000000E-03 0. -1.
         11   -1    0    0    0    0 -0.00000000000E+00 -0.00000000000E+00 -0.45593999997E+02  0.45594000000E+02  0.51100000000E-03 0.  1.
    9900012    2    1    2    0    0  0.95207833061E+01  0.37447723388E+02 -0.12656546862E+02  0.50528862280E+02  0.30000007385E+02 0.  0.
         12    1    1    2    0    0 -0.95207833061E+01 -0.37447723388E+02  0.12656546862E+02  0.40659137720E+02  0.00000000000E+00 0. -1.
         11    1    3    3    0    0  0.14099912155E+02  0.19394955508E+02 -0.42321004638E+01  0.24349178560E+02  0.51100000000E-03 0.  1.
        -11    1    3    3    0    0 -0.83790205924E+01  0.28869206895E+01 -0.11539157650E+01  0.89372153946E+01  0.51100000000E-03 0. -1.
        -12    1    3    3    0    0  0.37998917439E+01  0.15165847190E+02 -0.72705306329E+01  0.17242468325E+02  0.00000000000E+00 0.  1.
</event>
<event>
 7    1  0.5946946E-013  0.5052887E+02  0.7816164E-02  0.1300439E+00
        -11   -1    0    0    0    0  0.00000000000E+00  0.00000000000E+00  0.45593999997E+02  0.45594000000E+02  0.51100000000E-03 0.  1.
         11   -1    0    0    0    0 -0.00000000000E+00 -0.00000000000E+00 -0.45593999997E+02  0.45594000000E+02  0.51100000000E-03 0. -1.
    9900012    2    1    2    0    0  0.34143218256E+02 -0.20917162851E+02  0.70624323598E+01  0.50528868117E+02  0.30000025128E+02 0.  0.
         12    1    1    2    0    0 -0.34143218256E+02  0.20917162851E+02 -0.70624323598E+01  0.40659131883E+02  0.00000000000E+00 0. -1.
         11    1    3    3    0    0  0.14324344855E+02 -0.82559097584E+01 -0.11511266365E+01  0.16573231255E+02  0.51100000000E-03 0. -1.
        -11    1    3    3    0    0  0.44927547465E+01 -0.16231899820E+02  0.67738249593E+01  0.18153350154E+02  0.51100000000E-03 0.  1.
        -12    1    3    3    0    0  0.15326118655E+02  0.35706467270E+01  0.14397340370E+01  0.15802286708E+02  0.00000000000E+00 0.  1.
</event>
<event>
 7    1  0.5946946E-013  0.5052886E+02  0.7816164E-02  0.1300439E+00
        -11   -1    0    0    0    0  0.00000000000E+00  0.00000000000E+00  0.45593999997E+02  0.45594000000E+02  0.51100000000E-03 0. -1.
         11   -1    0    0    0    0 -0.00000000000E+00 -0.00000000000E+00 -0.45593999997E+02  0.45594000000E+02  0.51100000000E-03 0.  1.
    9900012    2    1    2    0    0 -0.11758377015E+00  0.40222011652E+02  0.59448865743E+01  0.50528859286E+02  0.29999998285E+02 0.  0.
         12    1    1    2    0    0  0.11758377015E+00 -0.40222011652E+02 -0.59448865743E+01  0.40659140714E+02  0.00000000000E+00 0. -1.
         11    1    3    3    0    0  0.66909960354E+00 -0.14299475413E+01 -0.81127790528E+00  0.17749975637E+01  0.51100000000E-03 0. -1.
        -11    1    3    3    0    0  0.34235110100E+01  0.38424460080E+02 -0.18755950667E+01  0.38622239930E+02  0.51100000000E-03 0.  1.
        -12    1    3    3    0    0 -0.42101943837E+01  0.32274991124E+01  0.86317595463E+01  0.10131621792E+02  0.00000000000E+00 0.  1.
</event>
<event>
 7    1  0.5946946E-013  0.5052887E+02  0.7816164E-02  0.1300439E+00
        -11   -1    0    0    0    0  0.00000000000E+00  0.00000000000E+00  0.45593999997E+02  0.45594000000E+02  0.51100000000E-03 0. -1.
         11   -1    0    0    0    0 -0.00000000000E+00 -0.00000000000E+00 -0.45593999997E+02  0.45594000000E+02  0.51100000000E-03 0.  1.
    9900012    2    1    2    0    0 -0.18136990385E+02 -0.35853420663E+02  0.62246895004E+01  0.50528868764E+02  0.30000027096E+02 0.  0.
         12    1    1    2    0    0  0.18136990385E+02  0.35853420663E+02 -0.62246895004E+01  0.40659131236E+02  0.00000000000E+00 0. -1.
         11    1    3    3    0    0 -0.96566722127E+01  0.23239913542E+01  0.36755519128E+01  0.10590653245E+02  0.51100000000E-03 0. -1.
        -11    1    3    3    0    0 -0.96537015090E+01 -0.28356985758E+02  0.15047307093E+01  0.29992945985E+02  0.51100000000E-03 0.  1.
         12    1    3    3    0    0  0.11733833368E+01 -0.98204262594E+01  0.10444068783E+01  0.99452695338E+01  0.00000000000E+00 0. -1.
</event>
<event>
 7    1  0.5946946E-013  0.5052885E+02  0.7816164E-02  0.1300439E+00
        -11   -1    0    0    0    0  0.00000000000E+00  0.00000000000E+00  0.45593999997E+02  0.45594000000E+02  0.51100000000E-03 0.  1.
         11   -1    0    0    0    0 -0.00000000000E+00 -0.00000000000E+00 -0.45593999997E+02  0.45594000000E+02  0.51100000000E-03 0. -1.
    9900012    2    1    2    0    0 -0.13188748248E+02  0.27018602216E+02  0.27371851301E+02  0.50528853554E+02  0.29999980862E+02 0.  0.
         12    1    1    2    0    0  0.13188748248E+02 -0.27018602216E+02 -0.27371851301E+02  0.40659146446E+02  0.00000000000E+00 0. -1.
         11    1    3    3    0    0  0.25278430438E+01  0.54641395937E+00 -0.41050060776E+01  0.48517660524E+01  0.51100000000E-03 0. -1.
        -11    1    3    3    0    0 -0.12752127037E+02  0.95910335292E+01  0.14816728922E+02  0.21774758881E+02  0.51100000000E-03 0.  1.
        -12    1    3    3    0    0 -0.29644642554E+01  0.16881154728E+02  0.16660128457E+02  0.23902328620E+02  0.00000000000E+00 0.  1.
</event>
<event>
 7    1  0.5946946E-013  0.5052887E+02  0.7816164E-02  0.1300439E+00
        -11   -1    0    0    0    0  0.00000000000E+00  0.00000000000E+00  0.45593999997E+02  0.45594000000E+02  0.51100000000E-03 0.  1.
         11   -1    0    0    0    0 -0.00000000000E+00 -0.00000000000E+00 -0.45593999997E+02  0.45594000000E+02  0.51100000000E-03 0. -1.
    9900012    2    1    2    0    0  0.12700985529E+02  0.36724849664E+02  0.11963918641E+02  0.50528868609E+02  0.30000026624E+02 0.  0.
         12    1    1    2    0    0 -0.12700985529E+02 -0.36724849664E+02 -0.11963918641E+02  0.40659131391E+02  0.00000000000E+00 0. -1.
         11    1    3    3    0    0 -0.27167699835E+01  0.49024801462E+01 -0.31051187809E+01  0.64075669042E+01  0.51100000000E-03 0. -1.
        -11    1    3    3    0    0  0.44808733566E+01  0.16897126863E+02  0.18333626814E+02  0.25332054688E+02  0.51100000000E-03 0.  1.
        -12    1    3    3    0    0  0.10936882155E+02  0.14925242654E+02 -0.32645893927E+01  0.18789247017E+02  0.00000000000E+00 0.  1.
</event>
<event>
 7    1  0.5946946E-013  0.5052884E+02  0.7816164E-02  0.1300439E+00
        -11   -1    0    0    0    0  0.00000000000E+00  0.00000000000E+00  0.45593999997E+02  0.45594000000E+02  0.51100000000E-03 0. -1.
         11   -1    0    0    0    0 -0.00000000000E+00 -0.00000000000E+00 -0.45593999997E+02  0.45594000000E+02  0.51100000000E-03 0.  1.
    9900012    2    1    2    0    0 -0.86874393616E+01 -0.11776188626E+02 -0.37934377642E+02  0.50528840782E+02  0.29999942041E+02 0.  0.
         12    1    1    2    0    0  0.86874393616E+01  0.11776188626E+02  0.37934377642E+02  0.40659159218E+02  0.00000000000E+00 0. -1.
         11    1    3    3    0    0 -0.24063350150E+01 -0.14998029738E+02 -0.14296566970E+02  0.20859606219E+02  0.51100000000E-03 0. -1.
        -11    1    3    3    0    0 -0.78389098976E+01  0.65533911308E+01 -0.64288836674E+01  0.12071702000E+02  0.51100000000E-03 0.  1.
         12    1    3    3    0    0  0.15578055510E+01 -0.33315500191E+01 -0.17208927005E+02  0.17597532564E+02  0.00000000000E+00 0. -1.
</event>
<event>
 7    1  0.5946946E-013  0.5052889E+02  0.7816164E-02  0.1300439E+00
        -11   -1    0    0    0    0  0.00000000000E+00  0.00000000000E+00  0.45593999997E+02  0.45594000000E+02  0.51100000000E-03 0.  1.
         11   -1    0    0    0    0 -0.00000000000E+00 -0.00000000000E+00 -0.45593999997E+02  0.45594000000E+02  0.51100000000E-03 0. -1.
    9900012    2    1    2    0    0 -0.30727592688E+02 -0.21961693752E+02  0.15055314507E+02  0.50528887371E+02  0.30000083653E+02 0.  0.
         12    1    1    2    0    0  0.30727592688E+02  0.21961693752E+02 -0.15055314507E+02  0.40659112629E+02  0.00000000000E+00 0. -1.
         11    1    3    3    0    0 -0.28666500365E+02 -0.15330287642E+02 -0.11100657645E+01  0.32527191834E+02  0.51100000000E-03 0. -1.
        -11    1    3    3    0    0  0.37417880737E-01 -0.48042771759E+01  0.75582050124E+01  0.89559445371E+01  0.51100000000E-03 0.  1.
         12    1    3    3    0    0 -0.20985102043E+01 -0.18271289346E+01  0.86071752589E+01  0.90457510003E+01  0.00000000000E+00 0. -1.
</event>
<event>
 7    1  0.5946946E-013  0.5052886E+02  0.7816164E-02  0.1300439E+00
        -11   -1    0    0    0    0  0.00000000000E+00  0.00000000000E+00  0.45593999997E+02  0.45594000000E+02  0.51100000000E-03 0.  1.
         11   -1    0    0    0    0 -0.00000000000E+00 -0.00000000000E+00 -0.45593999997E+02  0.45594000000E+02  0.51100000000E-03 0. -1.
    9900012    2    1    2    0    0 -0.34106757809E+01 -0.12720441417E+02  0.38467172777E+02  0.50528859323E+02  0.29999998397E+02 0.  0.
         12    1    1    2    0    0  0.34106757809E+01  0.12720441417E+02 -0.38467172777E+02  0.40659140677E+02  0.00000000000E+00 0. -1.
         11    1    3    3    0    0  0.21429411334E+01 -0.11286827388E+02  0.37115403759E+02  0.38852771659E+02  0.51100000000E-03 0. -1.
        -11    1    3    3    0    0 -0.20087717147E+01  0.39220139573E+01  0.26242265853E+01  0.51287350015E+01  0.51100000000E-03 0.  1.
         12    1    3    3    0    0 -0.35448451996E+01 -0.53556279865E+01 -0.12724575667E+01  0.65473526617E+01  0.00000000000E+00 0. -1.
</event>
<event>
 7    1  0.5946946E-013  0.5052883E+02  0.7816164E-02  0.1300439E+00
        -11   -1    0    0    0    0  0.00000000000E+00  0.00000000000E+00  0.45593999997E+02  0.45594000000E+02  0.51100000000E-03 0. -1.
         11   -1    0    0    0    0 -0.00000000000E+00 -0.00000000000E+00 -0.45593999997E+02  0.45594000000E+02  0.51100000000E-03 0.  1.
    9900012    2    1    2    0    0  0.62245369909E+01  0.45626750229E+01 -0.39919983373E+02  0.50528832072E+02  0.29999915566E+02 0.  0.
         12    1    1    2    0    0 -0.62245369909E+01 -0.45626750229E+01  0.39919983373E+02  0.40659167928E+02  0.00000000000E+00 0. -1.
         11    1    3    3    0    0 -0.25962073483E+01 -0.48850798662E+01  0.84179925930E+00  0.55957952204E+01  0.51100000000E-03 0. -1.
        -11    1    3    3    0    0 -0.14099209118E+01  0.62624033491E+01 -0.25432559440E+02  0.26230147781E+02  0.51100000000E-03 0.  1.
         12    1    3    3    0    0  0.10230665251E+02  0.31853515400E+01 -0.15329223193E+02  0.18702889071E+02  0.00000000000E+00 0. -1.
</event>
<event>
 7    1  0.5946946E-013  0.5052891E+02  0.7816164E-02  0.1300439E+00
        -11   -1    0    0    0    0  0.00000000000E+00  0.00000000000E+00  0.45593999997E+02  0.45594000000E+02  0.51100000000E-03 0. -1.
         11   -1    0    0    0    0 -0.00000000000E+00 -0.00000000000E+00 -0.45593999997E+02  0.45594000000E+02  0.51100000000E-03 0.  1.
    9900012    2    1    2    0    0 -0.16380312759E+02 -0.21647390496E+02 -0.30269412100E+02  0.50528911591E+02  0.30000157273E+02 0.  0.
         12    1    1    2    0    0  0.16380312759E+02  0.21647390496E+02  0.30269412100E+02  0.40659088409E+02  0.00000000000E+00 0. -1.
         11    1    3    3    0    0 -0.16004389173E+02 -0.11147536038E+02 -0.24514165618E+02  0.31326543836E+02  0.51100000000E-03 0. -1.
        -11    1    3    3    0    0  0.36223040101E+01 -0.12825311199E+02 -0.59003657605E+01  0.14574773070E+02  0.51100000000E-03 0.  1.
         12    1    3    3    0    0 -0.39982275958E+01  0.23254567409E+01  0.14511927861E+00  0.46275946848E+01  0.00000000000E+00 0. -1.
</event>
<event>
 7    1  0.5946946E-013  0.5052893E+02  0.7816164E-02  0.1300439E+00
        -11   -1    0    0    0    0  0.00000000000E+00  0.00000000000E+00  0.45593999997E+02  0.45594000000E+02  0.51100000000E-03 0.  1.
         11   -1    0    0    0    0 -0.00000000000E+00 -0.00000000000E+00 -0.45593999997E+02  0.45594000000E+02  0.51100000000E-03 0. -1.
    9900012    2    1    2    0    0  0.47134017420E+01 -0.39604649428E+02  0.79003456942E+01  0.50528931216E+02  0.30000216924E+02 0.  0.
         12    1    1    2    0    0 -0.47134017420E+01  0.39604649428E+02 -0.79003456942E+01  0.40659068784E+02  0.00000000000E+00 0. -1.
         11    1    3    3    0    0  0.10248509046E+02 -0.84284750390E+01  0.63952451965E+01  0.14729911423E+02  0.51100000000E-03 0. -1.
        -11    1    3    3    0    0 -0.68428896052E+01 -0.32497642914E+02 -0.29442837338E+00  0.33211573607E+02  0.51100000000E-03 0.  1.
        -12    1    3    3    0    0  0.13077823011E+01  0.13214685250E+01  0.17995288711E+01  0.25874461864E+01  0.00000000000E+00 0.  1.
</event>
<event>
 7    1  0.5946946E-013  0.5052886E+02  0.7816164E-02  0.1300439E+00
        -11   -1    0    0    0    0  0.00000000000E+00  0.00000000000E+00  0.45593999997E+02  0.45594000000E+02  0.51100000000E-03 0.  1.
         11   -1    0    0    0    0 -0.00000000000E+00 -0.00000000000E+00 -0.45593999997E+02  0.45594000000E+02  0.51100000000E-03 0. -1.
    9900012    2    1    2    0    0 -0.29353080021E+02  0.20427720065E+02  0.19346075355E+02  0.50528859756E+02  0.29999999713E+02 0.  0.
         12    1    1    2    0    0  0.29353080021E+02 -0.20427720065E+02 -0.19346075355E+02  0.40659140244E+02  0.00000000000E+00 0. -1.
         11    1    3    3    0    0 -0.77181589914E+01 -0.15011935472E+01 -0.16305794427E+01  0.80300902774E+01  0.51100000000E-03 0. -1.
        -11    1    3    3    0    0 -0.20608642851E+02  0.16728102815E+02  0.24509433286E+02  0.36128353190E+02  0.51100000000E-03 0.  1.
        -12    1    3    3    0    0 -0.10262781791E+01  0.52008107967E+01 -0.35327784881E+01  0.63704162886E+01  0.00000000000E+00 0.  1.
</event>
<event>
 7    1  0.5946946E-013  0.5052894E+02  0.7816164E-02  0.1300439E+00
        -11   -1    0    0    0    0  0.00000000000E+00  0.00000000000E+00  0.45593999997E+02  0.45594000000E+02  0.51100000000E-03 0.  1.
         11   -1    0    0    0    0 -0.00000000000E+00 -0.00000000000E+00 -0.45593999997E+02  0.45594000000E+02  0.51100000000E-03 0. -1.
    9900012    2    1    2    0    0  0.81128762795E+01 -0.22599573254E+02  0.32811583191E+02  0.50528936259E+02  0.30000232253E+02 0.  0.
         12    1    1    2    0    0 -0.81128762795E+01  0.22599573254E+02 -0.32811583191E+02  0.40659063741E+02  0.00000000000E+00 0. -1.
         11    1    3    3    0    0 -0.27532178460E+01 -0.47852638017E+01 -0.33528049305E+01  0.64591221790E+01  0.51100000000E-03 0. -1.
        -11    1    3    3    0    0  0.67945994189E+01 -0.17474496887E+02  0.20070506772E+02  0.27465430364E+02  0.51100000000E-03 0.  1.
         12    1    3    3    0    0  0.40714947067E+01 -0.33981256510E+00  0.16093881349E+02  0.16604383716E+02  0.00000000000E+00 0. -1.
</event>
<event>
 7    1  0.5946946E-013  0.5052886E+02  0.7816164E-02  0.1300439E+00
        -11   -1    0    0    0    0  0.00000000000E+00  0.00000000000E+00  0.45593999997E+02  0.45594000000E+02  0.51100000000E-03 0. -1.
         11   -1    0    0    0    0 -0.00000000000E+00 -0.00000000000E+00 -0.45593999997E+02  0.45594000000E+02  0.51100000000E-03 0.  1.
    9900012    2    1    2    0    0  0.65012930450E+01  0.11632612668E+02 -0.38413292666E+02  0.50528861517E+02  0.30000005068E+02 0.  0.
         12    1    1    2    0    0 -0.65012930450E+01 -0.11632612668E+02  0.38413292666E+02  0.40659138483E+02  0.00000000000E+00 0. -1.
         11    1    3    3    0    0 -0.31610089919E+01 -0.18463562428E+01 -0.20735185203E+02  0.21055852272E+02  0.51100000000E-03 0. -1.
        -11    1    3    3    0    0  0.14212226103E+02  0.12036242019E+02 -0.15482188774E+02  0.24218931897E+02  0.51100000000E-03 0.  1.
         12    1    3    3    0    0 -0.45499240665E+01  0.14427268917E+01 -0.21959186891E+01  0.52540773485E+01  0.00000000000E+00 0. -1.
</event>
<event>
 7    1  0.5946946E-013  0.5052885E+02  0.7816164E-02  0.1300439E+00
        -11   -1    0    0    0    0  0.00000000000E+00  0.00000000000E+00  0.45593999997E+02  0.45594000000E+02  0.51100000000E-03 0.  1.
         11   -1    0    0    0    0 -0.00000000000E+00 -0.00000000000E+00 -0.45593999997E+02  0.45594000000E+02  0.51100000000E-03 0. -1.
    9900012    2    1    2    0    0 -0.21894083598E+02  0.32276669919E+02 -0.11490510828E+02  0.50528853959E+02  0.29999982094E+02 0.  0.
         12    1    1    2    0    0  0.21894083598E+02 -0.32276669919E+02  0.11490510828E+02  0.40659146041E+02  0.00000000000E+00 0. -1.
         11    1    3    3    0    0 -0.14141344843E+02  0.24861784859E+02 -0.15689801467E+02  0.32622934428E+02  0.51100000000E-03 0.  1.
        -11    1    3    3    0    0 -0.98498608284E+01  0.55444849806E+01  0.75045584065E+01  0.13567588923E+02  0.51100000000E-03 0. -1.
         12    1    3    3    0    0  0.20971220738E+01  0.18704000796E+01 -0.33052677675E+01  0.43383306081E+01  0.00000000000E+00 0. -1.
</event>
<event>
 7    1  0.5946946E-013  0.5052885E+02  0.7816164E-02  0.1300439E+00
        -11   -1    0    0    0    0  0.00000000000E+00  0.00000000000E+00  0.45593999997E+02  0.45594000000E+02  0.51100000000E-03 0.  1.
         11   -1    0    0    0    0 -0.00000000000E+00 -0.00000000000E+00 -0.45593999997E+02  0.45594000000E+02  0.51100000000E-03 0. -1.
    9900012    2    1    2    0    0 -0.52564600543E+01 -0.33470833983E+02  0.22477527156E+02  0.50528851867E+02  0.29999975736E+02 0.  0.
         12    1    1    2    0    0  0.52564600543E+01  0.33470833983E+02 -0.22477527156E+02  0.40659148133E+02  0.00000000000E+00 0. -1.
         11    1    3    3    0    0  0.72250174342E+01 -0.10325235638E+02 -0.24575548481E+01  0.12839429270E+02  0.51100000000E-03 0. -1.
        -11    1    3    3    0    0 -0.12982524652E+02 -0.13971953498E+02  0.17040059581E+02  0.25575868738E+02  0.51100000000E-03 0.  1.
         12    1    3    3    0    0  0.50104716385E+00 -0.91736448475E+01  0.78950224229E+01  0.12113553859E+02  0.00000000000E+00 0. -1.
</event>
<event>
 7    1  0.5946946E-013  0.5052887E+02  0.7816164E-02  0.1300439E+00
        -11   -1    0    0    0    0  0.00000000000E+00  0.00000000000E+00  0.45593999997E+02  0.45594000000E+02  0.51100000000E-03 0.  1.
         11   -1    0    0    0    0 -0.00000000000E+00 -0.00000000000E+00 -0.45593999997E+02  0.45594000000E+02  0.51100000000E-03 0. -1.
    9900012    2    1    2    0    0 -0.28363444645E+02  0.96084218083E+01  0.27501964963E+02  0.50528870169E+02  0.30000031365E+02 0.  0.
         12    1    1    2    0    0  0.28363444645E+02 -0.96084218083E+01 -0.27501964963E+02  0.40659129831E+02  0.00000000000E+00 0. -1.
         11    1    3    3    0    0 -0.87134699303E+01  0.15983773803E+02  0.73824509095E+01  0.19644494519E+02  0.51100000000E-03 0. -1.
        -11    1    3    3    0    0 -0.87854544355E+01 -0.28204571701E+01  0.19702262471E+01  0.94350930049E+01  0.51100000000E-03 0.  1.
         12    1    3    3    0    0 -0.10864520280E+02 -0.35548948242E+01  0.18149287807E+02  0.21449282645E+02  0.00000000000E+00 0. -1.
</event>
<event>
 7    1  0.5946946E-013  0.5052886E+02  0.7816164E-02  0.1300439E+00
        -11   -1    0    0    0    0  0.00000000000E+00  0.00000000000E+00  0.45593999997E+02  0.45594000000E+02  0.51100000000E-03 0.  1.
         11   -1    0    0    0    0 -0.00000000000E+00 -0.00000000000E+00 -0.45593999997E+02  0.45594000000E+02  0.51100000000E-03 0. -1.
    9900012    2    1    2    0    0  0.75366861404E+01 -0.31485762730E+02  0.24596972125E+02  0.50528856744E+02  0.29999990558E+02 0.  0.
         12    1    1    2    0    0 -0.75366861404E+01  0.31485762730E+02 -0.24596972125E+02  0.40659143256E+02  0.00000000000E+00 0. -1.
         11    1    3    3    0    0  0.72107760671E+01  0.49679462425E+00  0.94559071168E+01  0.11901944213E+02  0.51100000000E-03 0. -1.
        -11    1    3    3    0    0 -0.60982414861E+01 -0.12302904946E+02  0.10812851663E+02  0.17477636587E+02  0.51100000000E-03 0.  1.
        -12    1    3    3    0    0  0.64241515593E+01 -0.19679652408E+02  0.43282133448E+01  0.21149275943E+02  0.00000000000E+00 0.  1.
</event>
<event>
 7    1  0.5946946E-013  0.5052886E+02  0.7816164E-02  0.1300439E+00
        -11   -1    0    0    0    0  0.00000000000E+00  0.00000000000E+00  0.45593999997E+02  0.45594000000E+02  0.51100000000E-03 0.  1.
         11   -1    0    0    0    0 -0.00000000000E+00 -0.00000000000E+00 -0.45593999997E+02  0.45594000000E+02  0.51100000000E-03 0. -1.
    9900012    2    1    2    0    0  0.39052272221E+02  0.10991737624E+02 -0.26957951513E+01  0.50528861137E+02  0.30000003911E+02 0.  0.
         12    1    1    2    0    0 -0.39052272221E+02 -0.10991737624E+02  0.26957951513E+01  0.40659138863E+02  0.00000000000E+00 0. -1.
         11    1    3    3    0    0  0.27194624416E+02  0.14964497126E+02  0.90864834042E+01  0.32342664582E+02  0.51100000000E-03 0.  1.
        -11    1    3    3    0    0  0.31848090594E+01 -0.35963796373E+01 -0.62863600924E+01  0.79117178105E+01  0.51100000000E-03 0. -1.
        -12    1    3    3    0    0  0.86728387453E+01 -0.37637986444E+00 -0.54959184631E+01  0.10274478744E+02  0.00000000000E+00 0.  1.
</event>
<event>
 7    1  0.5946946E-013  0.5052885E+02  0.7816164E-02  0.1300439E+00
        -11   -1    0    0    0    0  0.00000000000E+00  0.00000000000E+00  0.45593999997E+02  0.45594000000E+02  0.51100000000E-03 0.  1.
         11   -1    0    0    0    0 -0.00000000000E+00 -0.00000000000E+00 -0.45593999997E+02  0.45594000000E+02  0.51100000000E-03 0. -1.
    9900012    2    1    2    0    0 -0.22622584542E+02  0.11654557732E+02  0.31710506446E+02  0.50528852612E+02  0.29999978000E+02 0.  0.
         12    1    1    2    0    0  0.22622584542E+02 -0.11654557732E+02 -0.31710506446E+02  0.40659147388E+02  0.00000000000E+00 0. -1.
         11    1    3    3    0    0 -0.43048565484E+01  0.12376634153E+02  0.19652083210E+02  0.23620271752E+02  0.51100000000E-03 0.  1.
        -11    1    3    3    0    0 -0.75396249275E+01  0.45444308064E+01 -0.13622716964E+01  0.89080626310E+01  0.51100000000E-03 0. -1.
         12    1    3    3    0    0 -0.10778103066E+02 -0.52665072281E+01  0.13420694932E+02  0.18000518229E+02  0.00000000000E+00 0. -1.
</event>
<event>
 7    1  0.5946946E-013  0.5052887E+02  0.7816164E-02  0.1300439E+00
        -11   -1    0    0    0    0  0.00000000000E+00  0.00000000000E+00  0.45593999997E+02  0.45594000000E+02  0.51100000000E-03 0.  1.
         11   -1    0    0    0    0 -0.00000000000E+00 -0.00000000000E+00 -0.45593999997E+02  0.45594000000E+02  0.51100000000E-03 0. -1.
    9900012    2    1    2    0    0 -0.29552637575E+02 -0.19221176386E+01  0.27858781554E+02  0.50528872690E+02  0.30000039030E+02 0.  0.
         12    1    1    2    0    0  0.29552637575E+02  0.19221176386E+01 -0.27858781554E+02  0.40659127310E+02  0.00000000000E+00 0. -1.
         11    1    3    3    0    0 -0.41567406239E+01 -0.96306556961E+01  0.16662827348E+02  0.19689536237E+02  0.51100000000E-03 0. -1.
        -11    1    3    3    0    0 -0.13256806888E+02  0.91850667466E+00  0.10458825846E+02  0.16910754617E+02  0.51100000000E-03 0.  1.
         12    1    3    3    0    0 -0.12139090063E+02  0.67900313828E+01  0.73712836035E+00  0.13928581836E+02  0.00000000000E+00 0. -1.
</event>
<event>
 7    1  0.5946946E-013  0.5052886E+02  0.7816164E-02  0.1300439E+00
        -11   -1    0    0    0    0  0.00000000000E+00  0.00000000000E+00  0.45593999997E+02  0.45594000000E+02  0.51100000000E-03 0.  1.
         11   -1    0    0    0    0 -0.00000000000E+00 -0.00000000000E+00 -0.45593999997E+02  0.45594000000E+02  0.51100000000E-03 0. -1.
    9900012    2    1    2    0    0 -0.94601708848E+01  0.24020756952E+01  0.39470251603E+02  0.50528861268E+02  0.30000004310E+02 0.  0.
         12    1    1    2    0    0  0.94601708848E+01 -0.24020756952E+01 -0.39470251603E+02  0.40659138732E+02  0.00000000000E+00 0. -1.
         11    1    3    3    0    0  0.46311889185E+00 -0.11753491292E+02  0.13345390471E+02  0.17789280023E+02  0.51100000000E-03 0. -1.
        -11    1    3    3    0    0 -0.27433603725E+01  0.11490904332E+02  0.18367207900E+02  0.21838526388E+02  0.51100000000E-03 0.  1.
        -12    1    3    3    0    0 -0.71799294041E+01  0.26646626559E+01  0.77576532324E+01  0.10901054857E+02  0.00000000000E+00 0.  1.
</event>
<event>
 7    1  0.5946946E-013  0.5052886E+02  0.7816164E-02  0.1300439E+00
        -11   -1    0    0    0    0  0.00000000000E+00  0.00000000000E+00  0.45593999997E+02  0.45594000000E+02  0.51100000000E-03 0.  1.
         11   -1    0    0    0    0 -0.00000000000E+00 -0.00000000000E+00 -0.45593999997E+02  0.45594000000E+02  0.51100000000E-03 0. -1.
    9900012    2    1    2    0    0 -0.34521042062E+01  0.28194746349E+02  0.29091319688E+02  0.50528860482E+02  0.30000001921E+02 0.  0.
         12    1    1    2    0    0  0.34521042062E+01 -0.28194746349E+02 -0.29091319688E+02  0.40659139518E+02  0.00000000000E+00 0. -1.
         11    1    3    3    0    0  0.55813680605E+01  0.56826862229E+01 -0.29150955110E+01  0.84818850637E+01  0.51100000000E-03 0. -1.
        -11    1    3    3    0    0 -0.10774370362E+02  0.10325158158E+02  0.18583249511E+02  0.23833445205E+02  0.51100000000E-03 0.  1.
        -12    1    3    3    0    0  0.17408980948E+01  0.12186901968E+02  0.13423165688E+02  0.18213530213E+02  0.00000000000E+00 0.  1.
</event>
<event>
 7    1  0.5946946E-013  0.5052888E+02  0.7816164E-02  0.1300439E+00
        -11   -1    0    0    0    0  0.00000000000E+00  0.00000000000E+00  0.45593999997E+02  0.45594000000E+02  0.51100000000E-03 0.  1.
         11   -1    0    0    0    0 -0.00000000000E+00 -0.00000000000E+00 -0.45593999997E+02  0.45594000000E+02  0.51100000000E-03 0. -1.
    9900012    2    1    2    0    0  0.26839380032E+01  0.36002862448E+02  0.18701716230E+02  0.50528882725E+02  0.30000069531E+02 0.  0.
         12    1    1    2    0    0 -0.26839380032E+01 -0.36002862448E+02 -0.18701716230E+02  0.40659117275E+02  0.00000000000E+00 0. -1.
         11    1    3    3    0    0 -0.28069172996E+01  0.23769012633E+02  0.59804053950E+01  0.24670022197E+02  0.51100000000E-03 0.  1.
        -11    1    3    3    0    0  0.52113333441E+01 -0.38033290345E+01  0.31364732095E+01  0.71736163420E+01  0.51100000000E-03 0. -1.
         12    1    3    3    0    0  0.27952195879E+00  0.16037178849E+02  0.95848376257E+01  0.18685244186E+02  0.00000000000E+00 0. -1.
</event>
<event>
 7    1  0.5946946E-013  0.5052887E+02  0.7816164E-02  0.1300439E+00
        -11   -1    0    0    0    0  0.00000000000E+00  0.00000000000E+00  0.45593999997E+02  0.45594000000E+02  0.51100000000E-03 0.  1.
         11   -1    0    0    0    0 -0.00000000000E+00 -0.00000000000E+00 -0.45593999997E+02  0.45594000000E+02  0.51100000000E-03 0. -1.
    9900012    2    1    2    0    0 -0.17283018421E+02  0.20958085653E+02  0.30252615000E+02  0.50528870714E+02  0.30000033021E+02 0.  0.
         12    1    1    2    0    0  0.17283018421E+02 -0.20958085653E+02 -0.30252615000E+02  0.40659129286E+02  0.00000000000E+00 0. -1.
         11    1    3    3    0    0 -0.37676010141E+01 -0.67044767564E+01  0.26927208189E+01  0.81483477864E+01  0.51100000000E-03 0. -1.
        -11    1    3    3    0    0 -0.13129441559E+02  0.17223702382E+02  0.20068416116E+02  0.29525912096E+02  0.51100000000E-03 0.  1.
         12    1    3    3    0    0 -0.38597584743E+00  0.10438860028E+02  0.74914780651E+01  0.12854610832E+02  0.00000000000E+00 0. -1.
</event>
<event>
 7    1  0.5946946E-013  0.5052886E+02  0.7816164E-02  0.1300439E+00
        -11   -1    0    0    0    0  0.00000000000E+00  0.00000000000E+00  0.45593999997E+02  0.45594000000E+02  0.51100000000E-03 0.  1.
         11   -1    0    0    0    0 -0.00000000000E+00 -0.00000000000E+00 -0.45593999997E+02  0.45594000000E+02  0.51100000000E-03 0. -1.
    9900012    2    1    2    0    0  0.36263468920E+02  0.18327461385E+02 -0.14935065211E+01  0.50528861043E+02  0.30000003628E+02 0.  0.
         12    1    1    2    0    0 -0.36263468920E+02 -0.18327461385E+02  0.14935065211E+01  0.40659138957E+02  0.00000000000E+00 0. -1.
         11    1    3    3    0    0 -0.43441540198E+01  0.11046325033E+01  0.97713109241E+00  0.45876652611E+01  0.51100000000E-03 0. -1.
        -11    1    3    3    0    0  0.35934972884E+02  0.17805003707E+02  0.95938487739E+00  0.40115593636E+02  0.51100000000E-03 0.  1.
         12    1    3    3    0    0  0.46726500564E+01 -0.58217482549E+00 -0.34300224909E+01  0.58256021462E+01  0.00000000000E+00 0. -1.
</event>
<event>
 7    1  0.5946946E-013  0.5052885E+02  0.7816164E-02  0.1300439E+00
        -11   -1    0    0    0    0  0.00000000000E+00  0.00000000000E+00  0.45593999997E+02  0.45594000000E+02  0.51100000000E-03 0. -1.
         11   -1    0    0    0    0 -0.00000000000E+00 -0.00000000000E+00 -0.45593999997E+02  0.45594000000E+02  0.51100000000E-03 0.  1.
    9900012    2    1    2    0    0  0.29430532364E+02 -0.17231716554E+02 -0.22137705995E+02  0.50528851985E+02  0.29999976092E+02 0.  0.
         12    1    1    2    0    0 -0.29430532364E+02  0.17231716554E+02  0.22137705995E+02  0.40659148015E+02  0.00000000000E+00 0. -1.
         11    1    3    3    0    0  0.19258506358E+02 -0.14806785426E+02 -0.20944610880E+02  0.32075032143E+02  0.51100000000E-03 0. -1.
        -11    1    3    3    0    0 -0.23138430034E+01  0.35495366842E+01  0.12069090155E+01  0.44056452138E+01  0.51100000000E-03 0.  1.
        -12    1    3    3    0    0  0.12485869009E+02 -0.59744678124E+01 -0.24000041309E+01  0.14048174628E+02  0.00000000000E+00 0.  1.
</event>
<event>
 7    1  0.5946946E-013  0.5052886E+02  0.7816164E-02  0.1300439E+00
        -11   -1    0    0    0    0  0.00000000000E+00  0.00000000000E+00  0.45593999997E+02  0.45594000000E+02  0.51100000000E-03 0.  1.
         11   -1    0    0    0    0 -0.00000000000E+00 -0.00000000000E+00 -0.45593999997E+02  0.45594000000E+02  0.51100000000E-03 0. -1.
    9900012    2    1    2    0    0  0.21704095627E+02  0.27153334321E+02  0.21090140369E+02  0.50528863849E+02  0.30000012156E+02 0.  0.
         12    1    1    2    0    0 -0.21704095627E+02 -0.27153334321E+02 -0.21090140369E+02  0.40659136151E+02  0.00000000000E+00 0. -1.
         11    1    3    3    0    0  0.79323656058E+01  0.21305454437E+02  0.18328476316E+02  0.29202360473E+02  0.51100000000E-03 0.  1.
        -11    1    3    3    0    0  0.16090263271E+02  0.31738676582E+01 -0.64657993696E+00  0.16413045845E+02  0.51100000000E-03 0. -1.
         12    1    3    3    0    0 -0.23185332495E+01  0.26740122261E+01  0.34082439900E+01  0.49134575311E+01  0.00000000000E+00 0. -1.
</event>
<event>
 7    1  0.5946946E-013  0.5052887E+02  0.7816164E-02  0.1300439E+00
        -11   -1    0    0    0    0  0.00000000000E+00  0.00000000000E+00  0.45593999997E+02  0.45594000000E+02  0.51100000000E-03 0. -1.
         11   -1    0    0    0    0 -0.00000000000E+00 -0.00000000000E+00 -0.45593999997E+02  0.45594000000E+02  0.51100000000E-03 0.  1.
    9900012    2    1    2    0    0 -0.37435333060E+02  0.15858652710E+02  0.51341956183E+00  0.50528872774E+02  0.30000039285E+02 0.  0.
         12    1    1    2    0    0  0.37435333060E+02 -0.15858652710E+02 -0.51341956183E+00  0.40659127226E+02  0.00000000000E+00 0. -1.
         11    1    3    3    0    0 -0.28453765522E+02  0.21578516438E+01 -0.26333551427E+01  0.28656720951E+02  0.51100000000E-03 0. -1.
        -11    1    3    3    0    0  0.22782315153E+01  0.24178465313E+01 -0.32955053942E+01  0.46793885018E+01  0.51100000000E-03 0.  1.
         12    1    3    3    0    0 -0.11259799053E+02  0.11282954535E+02  0.64422800988E+01  0.17192763322E+02  0.00000000000E+00 0. -1.
</event>
<event>
 7    1  0.5946946E-013  0.5052886E+02  0.7816164E-02  0.1300439E+00
        -11   -1    0    0    0    0  0.00000000000E+00  0.00000000000E+00  0.45593999997E+02  0.45594000000E+02  0.51100000000E-03 0.  1.
         11   -1    0    0    0    0 -0.00000000000E+00 -0.00000000000E+00 -0.45593999997E+02  0.45594000000E+02  0.51100000000E-03 0. -1.
    9900012    2    1    2    0    0 -0.10424033615E+02 -0.22079806099E+02  0.32511347260E+02  0.50528855705E+02  0.29999987402E+02 0.  0.
         12    1    1    2    0    0  0.10424033615E+02  0.22079806099E+02 -0.32511347260E+02  0.40659144295E+02  0.00000000000E+00 0. -1.
         11    1    3    3    0    0 -0.20219405423E+01  0.19439653083E+01  0.37014909692E+01  0.46441662689E+01  0.51100000000E-03 0. -1.
        -11    1    3    3    0    0  0.17253029135E+01 -0.25421074728E+02  0.20070789790E+02  0.32435232595E+02  0.51100000000E-03 0.  1.
        -12    1    3    3    0    0 -0.10127395986E+02  0.13973033210E+01  0.87390665007E+01  0.13449456841E+02  0.00000000000E+00 0.  1.
</event>
<event>
 7    1  0.5946946E-013  0.5052886E+02  0.7816164E-02  0.1300439E+00
        -11   -1    0    0    0    0  0.00000000000E+00  0.00000000000E+00  0.45593999997E+02  0.45594000000E+02  0.51100000000E-03 0.  1.
         11   -1    0    0    0    0 -0.00000000000E+00 -0.00000000000E+00 -0.45593999997E+02  0.45594000000E+02  0.51100000000E-03 0. -1.
    9900012    2    1    2    0    0 -0.34428494049E+02 -0.17506466754E+01  0.21558753013E+02  0.50528858374E+02  0.29999995514E+02 0.  0.
         12    1    1    2    0    0  0.34428494049E+02  0.17506466754E+01 -0.21558753013E+02  0.40659141626E+02  0.00000000000E+00 0. -1.
         11    1    3    3    0    0  0.12774423734E+01 -0.31502509481E+01 -0.43831213561E+01  0.55468633602E+01  0.51100000000E-03 0. -1.
        -11    1    3    3    0    0 -0.20091164345E+02  0.48703704102E+01  0.16079030093E+02  0.26189895030E+02  0.51100000000E-03 0.  1.
         12    1    3    3    0    0 -0.15614772077E+02 -0.34707661375E+01  0.98628442762E+01  0.18792099985E+02  0.00000000000E+00 0. -1.
</event>
<event>
 7    1  0.5946946E-013  0.5052886E+02  0.7816164E-02  0.1300439E+00
        -11   -1    0    0    0    0  0.00000000000E+00  0.00000000000E+00  0.45593999997E+02  0.45594000000E+02  0.51100000000E-03 0. -1.
         11   -1    0    0    0    0 -0.00000000000E+00 -0.00000000000E+00 -0.45593999997E+02  0.45594000000E+02  0.51100000000E-03 0.  1.
    9900012    2    1    2    0    0  0.37163565612E+02 -0.16037594308E+02  0.38510932052E+01  0.50528856391E+02  0.29999989485E+02 0.  0.
         12    1    1    2    0    0 -0.37163565612E+02  0.16037594308E+02 -0.38510932052E+01  0.40659143609E+02  0.00000000000E+00 0. -1.
         11    1    3    3    0    0  0.20740651177E+02 -0.18454248449E+02 -0.15839182408E-01  0.27762099132E+02  0.51100000000E-03 0. -1.
        -11    1    3    3    0    0  0.18162833520E+02  0.92395934464E+00 -0.98231195927E-01  0.18186584945E+02  0.51100000000E-03 0.  1.
         12    1    3    3    0    0 -0.17399190845E+01  0.14926947971E+01  0.39651635835E+01  0.45801723136E+01  0.00000000000E+00 0. -1.
</event>
<event>
 7    1  0.5946946E-013  0.5052886E+02  0.7816164E-02  0.1300439E+00
        -11   -1    0    0    0    0  0.00000000000E+00  0.00000000000E+00  0.45593999997E+02  0.45594000000E+02  0.51100000000E-03 0.  1.
         11   -1    0    0    0    0 -0.00000000000E+00 -0.00000000000E+00 -0.45593999997E+02  0.45594000000E+02  0.51100000000E-03 0. -1.
    9900012    2    1    2    0    0 -0.20688663411E+02  0.22801815599E+02  0.26556016181E+02  0.50528861006E+02  0.30000003514E+02 0.  0.
         12    1    1    2    0    0  0.20688663411E+02 -0.22801815599E+02 -0.26556016181E+02  0.40659138994E+02  0.00000000000E+00 0. -1.
         11    1    3    3    0    0 -0.58892396344E+01  0.64726688824E+01 -0.29221547283E+01  0.92259186236E+01  0.51100000000E-03 0. -1.
        -11    1    3    3    0    0 -0.15790370396E+02  0.75286516648E+01  0.26884579004E+02  0.32074865263E+02  0.51100000000E-03 0.  1.
         12    1    3    3    0    0  0.99094661981E+00  0.88004950517E+01  0.25935919054E+01  0.92280771199E+01  0.00000000000E+00 0. -1.
</event>
<event>
 7    1  0.5946946E-013  0.5052887E+02  0.7816164E-02  0.1300439E+00
        -11   -1    0    0    0    0  0.00000000000E+00  0.00000000000E+00  0.45593999997E+02  0.45594000000E+02  0.51100000000E-03 0.  1.
         11   -1    0    0    0    0 -0.00000000000E+00 -0.00000000000E+00 -0.45593999997E+02  0.45594000000E+02  0.51100000000E-03 0. -1.
    9900012    2    1    2    0    0 -0.30728832745E+02 -0.11565807806E+02  0.23981989232E+02  0.50528869665E+02  0.30000029835E+02 0.  0.
         12    1    1    2    0    0  0.30728832745E+02  0.11565807806E+02 -0.23981989232E+02  0.40659130335E+02  0.00000000000E+00 0. -1.
         11    1    3    3    0    0 -0.11215444477E+02 -0.11649979985E+02  0.62085056085E+01  0.17322060231E+02  0.51100000000E-03 0. -1.
        -11    1    3    3    0    0 -0.13134557627E+02 -0.47967149475E+01  0.20421137082E+02  0.24749705419E+02  0.51100000000E-03 0.  1.
        -12    1    3    3    0    0 -0.63788306410E+01  0.48808871271E+01 -0.26476534590E+01  0.84571040158E+01  0.00000000000E+00 0.  1.
</event>
<event>
 7    1  0.5946946E-013  0.5052885E+02  0.7816164E-02  0.1300439E+00
        -11   -1    0    0    0    0  0.00000000000E+00  0.00000000000E+00  0.45593999997E+02  0.45594000000E+02  0.51100000000E-03 0.  1.
         11   -1    0    0    0    0 -0.00000000000E+00 -0.00000000000E+00 -0.45593999997E+02  0.45594000000E+02  0.51100000000E-03 0. -1.
    9900012    2    1    2    0    0 -0.27406651368E+02 -0.27765935522E+02 -0.11449672437E+02  0.50528847112E+02  0.29999961281E+02 0.  0.
         12    1    1    2    0    0  0.27406651368E+02  0.27765935522E+02  0.11449672437E+02  0.40659152888E+02  0.00000000000E+00 0. -1.
         11    1    3    3    0    0  0.39911424922E+01 -0.54514843959E+01 -0.23714730735E+01  0.71604319221E+01  0.51100000000E-03 0. -1.
        -11    1    3    3    0    0 -0.24418722212E+02 -0.15538890183E+02  0.15195228377E+01  0.28983444456E+02  0.51100000000E-03 0.  1.
        -12    1    3    3    0    0 -0.69790716482E+01 -0.67755609436E+01 -0.10597722201E+02  0.14384970734E+02  0.00000000000E+00 0.  1.
</event>
<event>
 7    1  0.5946946E-013  0.5052888E+02  0.7816164E-02  0.1300439E+00
        -11   -1    0    0    0    0  0.00000000000E+00  0.00000000000E+00  0.45593999997E+02  0.45594000000E+02  0.51100000000E-03 0.  1.
         11   -1    0    0    0    0 -0.00000000000E+00 -0.00000000000E+00 -0.45593999997E+02  0.45594000000E+02  0.51100000000E-03 0. -1.
    9900012    2    1    2    0    0  0.28029445460E+02 -0.12528576597E+02  0.26656128136E+02  0.50528877880E+02  0.30000054805E+02 0.  0.
         12    1    1    2    0    0 -0.28029445460E+02  0.12528576597E+02 -0.26656128136E+02  0.40659122120E+02  0.00000000000E+00 0. -1.
         11    1    3    3    0    0  0.26997650881E+02 -0.34404879704E+01  0.89410868372E+01  0.28647044257E+02  0.51100000000E-03 0. -1.
        -11    1    3    3    0    0 -0.64910595164E+00 -0.84451096268E+01  0.69189712784E+01  0.10936790158E+02  0.51100000000E-03 0.  1.
         12    1    3    3    0    0  0.16809005310E+01 -0.64297900005E+00  0.10796070020E+02  0.10945043466E+02  0.00000000000E+00 0. -1.
</event>
<event>
 7    1  0.5946946E-013  0.5052891E+02  0.7816164E-02  0.1300439E+00
        -11   -1    0    0    0    0  0.00000000000E+00  0.00000000000E+00  0.45593999997E+02  0.45594000000E+02  0.51100000000E-03 0.  1.
         11   -1    0    0    0    0 -0.00000000000E+00 -0.00000000000E+00 -0.45593999997E+02  0.45594000000E+02  0.51100000000E-03 0. -1.
    9900012    2    1    2    0    0 -0.16359641644E+02 -0.10070265169E+02  0.35834525727E+02  0.50528913078E+02  0.30000161791E+02 0.  0.
         12    1    1    2    0    0  0.16359641644E+02  0.10070265169E+02 -0.35834525727E+02  0.40659086922E+02  0.00000000000E+00 0. -1.
         11    1    3    3    0    0 -0.15752508280E+02 -0.14098779547E+02  0.27248783638E+02  0.34487871953E+02  0.51100000000E-03 0. -1.
        -11    1    3    3    0    0 -0.18472536500E+01 -0.14100766185E+01  0.10016281642E+02  0.10282342160E+02  0.51100000000E-03 0.  1.
         12    1    3    3    0    0  0.12401202859E+01  0.54385909967E+01 -0.14305395529E+01  0.57586989646E+01  0.00000000000E+00 0. -1.
</event>
<event>
 7    1  0.5946946E-013  0.5052882E+02  0.7816164E-02  0.1300439E+00
        -11   -1    0    0    0    0  0.00000000000E+00  0.00000000000E+00  0.45593999997E+02  0.45594000000E+02  0.51100000000E-03 0.  1.
         11   -1    0    0    0    0 -0.00000000000E+00 -0.00000000000E+00 -0.45593999997E+02  0.45594000000E+02  0.51100000000E-03 0. -1.
    9900012    2    1    2    0    0  0.31502064396E+02  0.19974126862E+02  0.16180942330E+02  0.50528822687E+02  0.29999887039E+02 0.  0.
         12    1    1    2    0    0 -0.31502064396E+02 -0.19974126862E+02 -0.16180942330E+02  0.40659177313E+02  0.00000000000E+00 0. -1.
         11    1    3    3    0    0  0.53656882841E+01  0.15096121344E+02 -0.10153325350E+01  0.16053485317E+02  0.51100000000E-03 0. -1.
        -11    1    3    3    0    0  0.11828645317E+02  0.25175682953E-01  0.33213570086E+00  0.11833334198E+02  0.51100000000E-03 0.  1.
         12    1    3    3    0    0  0.14307730794E+02  0.48528298345E+01  0.16864139165E+02  0.22642003172E+02  0.00000000000E+00 0. -1.
</event>
<event>
 7    1  0.5946946E-013  0.5052886E+02  0.7816164E-02  0.1300439E+00
        -11   -1    0    0    0    0  0.00000000000E+00  0.00000000000E+00  0.45593999997E+02  0.45594000000E+02  0.51100000000E-03 0.  1.
         11   -1    0    0    0    0 -0.00000000000E+00 -0.00000000000E+00 -0.45593999997E+02  0.45594000000E+02  0.51100000000E-03 0. -1.
    9900012    2    1    2    0    0  0.28614368681E+02 -0.27427134186E+02  0.90628655231E+01  0.50528864296E+02  0.30000013515E+02 0.  0.
         12    1    1    2    0    0 -0.28614368681E+02  0.27427134186E+02 -0.90628655231E+01  0.40659135704E+02  0.00000000000E+00 0. -1.
         11    1    3    3    0    0  0.17160771220E+02 -0.26387331641E+02  0.16698687471E+02  0.35631860792E+02  0.51100000000E-03 0.  1.
        -11    1    3    3    0    0  0.79723721751E+01  0.19352017959E+01 -0.51527316820E+01  0.96878464137E+01  0.51100000000E-03 0. -1.
         12    1    3    3    0    0  0.34812252856E+01 -0.29750043415E+01 -0.24830902662E+01  0.52091570902E+01  0.00000000000E+00 0. -1.
</event>
<event>
 7    1  0.5946946E-013  0.5052882E+02  0.7816164E-02  0.1300439E+00
        -11   -1    0    0    0    0  0.00000000000E+00  0.00000000000E+00  0.45593999997E+02  0.45594000000E+02  0.51100000000E-03 0.  1.
         11   -1    0    0    0    0 -0.00000000000E+00 -0.00000000000E+00 -0.45593999997E+02  0.45594000000E+02  0.51100000000E-03 0. -1.
    9900012    2    1    2    0    0  0.19152133736E+02  0.30811242497E+02  0.18358437806E+02  0.50528817402E+02  0.29999870974E+02 0.  0.
         12    1    1    2    0    0 -0.19152133736E+02 -0.30811242497E+02 -0.18358437806E+02  0.40659182598E+02  0.00000000000E+00 0. -1.
         11    1    3    3    0    0  0.17133124831E+02  0.15345823544E+02  0.27699318438E+01  0.23167019433E+02  0.51100000000E-03 0. -1.
        -11    1    3    3    0    0  0.20956476162E+01  0.73667547223E+01  0.17445397028E+02  0.19052629524E+02  0.51100000000E-03 0.  1.
        -12    1    3    3    0    0 -0.76638711210E-01  0.80986642308E+01 -0.18568910654E+01  0.83091684448E+01  0.00000000000E+00 0.  1.
</event>
<event>
 7    1  0.5946946E-013  0.5052886E+02  0.7816164E-02  0.1300439E+00
        -11   -1    0    0    0    0  0.00000000000E+00  0.00000000000E+00  0.45593999997E+02  0.45594000000E+02  0.51100000000E-03 0. -1.
         11   -1    0    0    0    0 -0.00000000000E+00 -0.00000000000E+00 -0.45593999997E+02  0.45594000000E+02  0.51100000000E-03 0.  1.
    9900012    2    1    2    0    0 -0.25935439744E+02 -0.18550328571E+02 -0.25227047805E+02  0.50528859998E+02  0.30000000449E+02 0.  0.
         12    1    1    2    0    0  0.25935439744E+02  0.18550328571E+02  0.25227047805E+02  0.40659140002E+02  0.00000000000E+00 0. -1.
         11    1    3    3    0    0 -0.13562136571E+02  0.10905003769E+01  0.14025215482E+01  0.13678004475E+02  0.51100000000E-03 0. -1.
        -11    1    3    3    0    0 -0.35258546019E+01 -0.14884174970E+02 -0.14216275520E+02  0.20882356312E+02  0.51100000000E-03 0.  1.
        -12    1    3    3    0    0 -0.88474485707E+01 -0.47566539777E+01 -0.12413293833E+02  0.15968499211E+02  0.00000000000E+00 0.  1.
</event>
<event>
 7    1  0.5946946E-013  0.5052886E+02  0.7816164E-02  0.1300439E+00
        -11   -1    0    0    0    0  0.00000000000E+00  0.00000000000E+00  0.45593999997E+02  0.45594000000E+02  0.51100000000E-03 0.  1.
         11   -1    0    0    0    0 -0.00000000000E+00 -0.00000000000E+00 -0.45593999997E+02  0.45594000000E+02  0.51100000000E-03 0. -1.
    9900012    2    1    2    0    0  0.11873616003E+01 -0.28242542045E+02  0.29225236347E+02  0.50528862672E+02  0.30000008577E+02 0.  0.
         12    1    1    2    0    0 -0.11873616003E+01  0.28242542045E+02 -0.29225236347E+02  0.40659137328E+02  0.00000000000E+00 0. -1.
         11    1    3    3    0    0 -0.83979745490E+01 -0.12501674151E+02  0.13241653597E+01  0.15118572924E+02  0.51100000000E-03 0. -1.
        -11    1    3    3    0    0  0.15869357970E+01 -0.12650762893E+02  0.20188008460E+02  0.23877098921E+02  0.51100000000E-03 0.  1.
         12    1    3    3    0    0  0.79984003523E+01 -0.30901050007E+01  0.77130625268E+01  0.11533190827E+02  0.00000000000E+00 0. -1.
</event>
<event>
 7    1  0.5946946E-013  0.5052886E+02  0.7816164E-02  0.1300439E+00
        -11   -1    0    0    0    0  0.00000000000E+00  0.00000000000E+00  0.45593999997E+02  0.45594000000E+02  0.51100000000E-03 0.  1.
         11   -1    0    0    0    0 -0.00000000000E+00 -0.00000000000E+00 -0.45593999997E+02  0.45594000000E+02  0.51100000000E-03 0. -1.
    9900012    2    1    2    0    0  0.18021101395E+02  0.63749155131E+01  0.35885460353E+02  0.50528857018E+02  0.29999991392E+02 0.  0.
         12    1    1    2    0    0 -0.18021101395E+02 -0.63749155131E+01 -0.35885460353E+02  0.40659142982E+02  0.00000000000E+00 0. -1.
         11    1    3    3    0    0  0.13000650478E+02  0.17316610315E+01 -0.45426229977E+00  0.13123334838E+02  0.51100000000E-03 0. -1.
        -11    1    3    3    0    0  0.28462000460E+01  0.55953245371E+01  0.22307667276E+02  0.23174134956E+02  0.51100000000E-03 0.  1.
         12    1    3    3    0    0  0.21742508709E+01 -0.95207005548E+00  0.14032055377E+02  0.14231387225E+02  0.00000000000E+00 0. -1.
</event>
<event>
 7    1  0.5946946E-013  0.5052887E+02  0.7816164E-02  0.1300439E+00
        -11   -1    0    0    0    0  0.00000000000E+00  0.00000000000E+00  0.45593999997E+02  0.45594000000E+02  0.51100000000E-03 0.  1.
         11   -1    0    0    0    0 -0.00000000000E+00 -0.00000000000E+00 -0.45593999997E+02  0.45594000000E+02  0.51100000000E-03 0. -1.
    9900012    2    1    2    0    0 -0.27222597404E+02  0.73630049129E+01  0.29289608024E+02  0.50528870779E+02  0.30000033220E+02 0.  0.
         12    1    1    2    0    0  0.27222597404E+02 -0.73630049129E+01 -0.29289608024E+02  0.40659129221E+02  0.00000000000E+00 0. -1.
         11    1    3    3    0    0 -0.13623879653E+02  0.12653459678E+01 -0.34006432247E+01  0.14098779090E+02  0.51100000000E-03 0. -1.
        -11    1    3    3    0    0 -0.16502753246E+01  0.22229247577E+01  0.11209532207E+02  0.11546359413E+02  0.51100000000E-03 0.  1.
         12    1    3    3    0    0 -0.11948442426E+02  0.38747341874E+01  0.21480719042E+02  0.24883732276E+02  0.00000000000E+00 0. -1.
</event>
<event>
 7    1  0.5946946E-013  0.5052887E+02  0.7816164E-02  0.1300439E+00
        -11   -1    0    0    0    0  0.00000000000E+00  0.00000000000E+00  0.45593999997E+02  0.45594000000E+02  0.51100000000E-03 0. -1.
         11   -1    0    0    0    0 -0.00000000000E+00 -0.00000000000E+00 -0.45593999997E+02  0.45594000000E+02  0.51100000000E-03 0.  1.
    9900012    2    1    2    0    0  0.39832975913E+02 -0.55725769474E+01 -0.59535934818E+01  0.50528869915E+02  0.30000030595E+02 0.  0.
         12    1    1    2    0    0 -0.39832975913E+02  0.55725769474E+01  0.59535934818E+01  0.40659130085E+02  0.00000000000E+00 0. -1.
         11    1    3    3    0    0 -0.11539378482E+01  0.43737686838E+01  0.65556813813E-01  0.45239057255E+01  0.51100000000E-03 0. -1.
        -11    1    3    3    0    0  0.26871343265E+02 -0.61005737995E+00  0.26163281055E+01  0.27005303773E+02  0.51100000000E-03 0.  1.
        -12    1    3    3    0    0  0.14115570496E+02 -0.93362882512E+01 -0.86354784012E+01  0.18999660417E+02  0.00000000000E+00 0.  1.
</event>
<event>
 7    1  0.5946946E-013  0.5052886E+02  0.7816164E-02  0.1300439E+00
        -11   -1    0    0    0    0  0.00000000000E+00  0.00000000000E+00  0.45593999997E+02  0.45594000000E+02  0.51100000000E-03 0.  1.
         11   -1    0    0    0    0 -0.00000000000E+00 -0.00000000000E+00 -0.45593999997E+02  0.45594000000E+02  0.51100000000E-03 0. -1.
    9900012    2    1    2    0    0 -0.42533931720E+01 -0.33018085099E+02  0.23342673164E+02  0.50528859730E+02  0.29999999636E+02 0.  0.
         12    1    1    2    0    0  0.42533931720E+01  0.33018085099E+02 -0.23342673164E+02  0.40659140270E+02  0.00000000000E+00 0. -1.
         11    1    3    3    0    0 -0.50336295658E+01 -0.18120536416E+02  0.57225432342E+01  0.19658045883E+02  0.51100000000E-03 0. -1.
        -11    1    3    3    0    0  0.55624121875E+01  0.33295980832E+01  0.50722536191E+01  0.82313066871E+01  0.51100000000E-03 0.  1.
        -12    1    3    3    0    0 -0.47821757937E+01 -0.18227146766E+02  0.12547876311E+02  0.22639507160E+02  0.00000000000E+00 0.  1.
</event>
<event>
 7    1  0.5946946E-013  0.5052889E+02  0.7816164E-02  0.1300439E+00
        -11   -1    0    0    0    0  0.00000000000E+00  0.00000000000E+00  0.45593999997E+02  0.45594000000E+02  0.51100000000E-03 0.  1.
         11   -1    0    0    0    0 -0.00000000000E+00 -0.00000000000E+00 -0.45593999997E+02  0.45594000000E+02  0.51100000000E-03 0. -1.
    9900012    2    1    2    0    0  0.21062094321E+02  0.20674965865E+02  0.27966007745E+02  0.50528885156E+02  0.30000076921E+02 0.  0.
         12    1    1    2    0    0 -0.21062094321E+02 -0.20674965865E+02 -0.27966007745E+02  0.40659114844E+02  0.00000000000E+00 0. -1.
         11    1    3    3    0    0  0.70652447341E+01  0.84337108985E+01  0.19307771781E+02  0.22222403427E+02  0.51100000000E-03 0. -1.
        -11    1    3    3    0    0  0.88738541568E+01  0.14751513510E+02 -0.83035434849E+00  0.17234904323E+02  0.51100000000E-03 0.  1.
         12    1    3    3    0    0  0.51229954296E+01 -0.25102585437E+01  0.94885903125E+01  0.11071577406E+02  0.00000000000E+00 0. -1.
</event>
<event>
 7    1  0.5946946E-013  0.5052885E+02  0.7816164E-02  0.1300439E+00
        -11   -1    0    0    0    0  0.00000000000E+00  0.00000000000E+00  0.45593999997E+02  0.45594000000E+02  0.51100000000E-03 0.  1.
         11   -1    0    0    0    0 -0.00000000000E+00 -0.00000000000E+00 -0.45593999997E+02  0.45594000000E+02  0.51100000000E-03 0. -1.
    9900012    2    1    2    0    0  0.20743350032E+02  0.24502726526E+02  0.24949870678E+02  0.50528853125E+02  0.29999979558E+02 0.  0.
         12    1    1    2    0    0 -0.20743350032E+02 -0.24502726526E+02 -0.24949870678E+02  0.40659146875E+02  0.00000000000E+00 0. -1.
         11    1    3    3    0    0  0.75268500963E+01 -0.12874852058E+01 -0.46483365701E+01  0.89396937116E+01  0.51100000000E-03 0. -1.
        -11    1    3    3    0    0  0.21775815903E+01  0.62495232208E+01  0.50258954741E+01  0.83101159828E+01  0.51100000000E-03 0.  1.
         12    1    3    3    0    0  0.11038918346E+02  0.19540688511E+02  0.24572311774E+02  0.33279043430E+02  0.00000000000E+00 0. -1.
</event>
<event>
 7    1  0.5946946E-013  0.5052885E+02  0.7816164E-02  0.1300439E+00
        -11   -1    0    0    0    0  0.00000000000E+00  0.00000000000E+00  0.45593999997E+02  0.45594000000E+02  0.51100000000E-03 0. -1.
         11   -1    0    0    0    0 -0.00000000000E+00 -0.00000000000E+00 -0.45593999997E+02  0.45594000000E+02  0.51100000000E-03 0.  1.
    9900012    2    1    2    0    0 -0.10027431610E+02 -0.36867552405E+02 -0.13906846914E+02  0.50528853476E+02  0.29999980624E+02 0.  0.
         12    1    1    2    0    0  0.10027431610E+02  0.36867552405E+02  0.13906846914E+02  0.40659146524E+02  0.00000000000E+00 0. -1.
         11    1    3    3    0    0  0.12791643458E+01  0.29608890807E+01 -0.12965369214E+01  0.34762240752E+01  0.51100000000E-03 0. -1.
        -11    1    3    3    0    0 -0.52723091654E+01 -0.29218494439E+02 -0.16841283374E+02  0.34134242150E+02  0.51100000000E-03 0.  1.
        -12    1    3    3    0    0 -0.60342867908E+01 -0.10609947046E+02  0.42309733813E+01  0.12918387250E+02  0.00000000000E+00 0.  1.
</event>
<event>
 7    1  0.5946946E-013  0.5052877E+02  0.7816164E-02  0.1300439E+00
        -11   -1    0    0    0    0  0.00000000000E+00  0.00000000000E+00  0.45593999997E+02  0.45594000000E+02  0.51100000000E-03 0.  1.
         11   -1    0    0    0    0 -0.00000000000E+00 -0.00000000000E+00 -0.45593999997E+02  0.45594000000E+02  0.51100000000E-03 0. -1.
    9900012    2    1    2    0    0  0.19422541060E+02  0.10576833649E+02  0.34118452711E+02  0.50528765788E+02  0.29999714089E+02 0.  0.
         12    1    1    2    0    0 -0.19422541060E+02 -0.10576833649E+02 -0.34118452711E+02  0.40659234212E+02  0.00000000000E+00 0. -1.
         11    1    3    3    0    0 -0.11440610769E+00  0.23961909492E+01 -0.26982494976E+00  0.24140475527E+01  0.51100000000E-03 0. -1.
        -11    1    3    3    0    0  0.22350468453E+02  0.25791266849E+01  0.35218470295E+02  0.41791577916E+02  0.51100000000E-03 0.  1.
        -12    1    3    3    0    0 -0.28135212855E+01  0.56015160152E+01 -0.83019263397E+00  0.63231403197E+01  0.00000000000E+00 0.  1.
</event>
<event>
 7    1  0.5946946E-013  0.5052886E+02  0.7816164E-02  0.1300439E+00
        -11   -1    0    0    0    0  0.00000000000E+00  0.00000000000E+00  0.45593999997E+02  0.45594000000E+02  0.51100000000E-03 0.  1.
         11   -1    0    0    0    0 -0.00000000000E+00 -0.00000000000E+00 -0.45593999997E+02  0.45594000000E+02  0.51100000000E-03 0. -1.
    9900012    2    1    2    0    0 -0.20719932289E+02 -0.26611575527E+02  0.22708467742E+02  0.50528855232E+02  0.29999985964E+02 0.  0.
         12    1    1    2    0    0  0.20719932289E+02  0.26611575527E+02 -0.22708467742E+02  0.40659144768E+02  0.00000000000E+00 0. -1.
         11    1    3    3    0    0 -0.86078103499E+01 -0.23238620213E+02  0.16401986634E+02  0.29717890811E+02  0.51100000000E-03 0. -1.
        -11    1    3    3    0    0  0.48304772776E+00  0.39604949745E+01  0.46738910199E+01  0.61452512623E+01  0.51100000000E-03 0.  1.
        -12    1    3    3    0    0 -0.12595169667E+02 -0.73334502881E+01  0.16325900875E+01  0.14665713159E+02  0.00000000000E+00 0.  1.
</event>
<event>
 7    1  0.5946946E-013  0.5052891E+02  0.7816164E-02  0.1300439E+00
        -11   -1    0    0    0    0  0.00000000000E+00  0.00000000000E+00  0.45593999997E+02  0.45594000000E+02  0.51100000000E-03 0.  1.
         11   -1    0    0    0    0 -0.00000000000E+00 -0.00000000000E+00 -0.45593999997E+02  0.45594000000E+02  0.51100000000E-03 0. -1.
    9900012    2    1    2    0    0 -0.36209127953E+01 -0.13957153833E+02  0.38016426626E+02  0.50528906970E+02  0.30000143225E+02 0.  0.
         12    1    1    2    0    0  0.36209127953E+01  0.13957153833E+02 -0.38016426626E+02  0.40659093030E+02  0.00000000000E+00 0. -1.
         11    1    3    3    0    0 -0.10802247353E+02 -0.11015494871E+02  0.22156737926E+02  0.26999087223E+02  0.51100000000E-03 0. -1.
        -11    1    3    3    0    0  0.10828485906E+02 -0.54453755101E+01  0.14506571862E+02  0.18903672895E+02  0.51100000000E-03 0.  1.
         12    1    3    3    0    0 -0.36471513489E+01  0.25037165478E+01  0.13531168381E+01  0.46261468514E+01  0.00000000000E+00 0. -1.
</event>
<event>
 7    1  0.5946946E-013  0.5052887E+02  0.7816164E-02  0.1300439E+00
        -11   -1    0    0    0    0  0.00000000000E+00  0.00000000000E+00  0.45593999997E+02  0.45594000000E+02  0.51100000000E-03 0.  1.
         11   -1    0    0    0    0 -0.00000000000E+00 -0.00000000000E+00 -0.45593999997E+02  0.45594000000E+02  0.51100000000E-03 0. -1.
    9900012    2    1    2    0    0 -0.71632843868E+01 -0.35593450817E+02 -0.18301864315E+02  0.50528872837E+02  0.30000039476E+02 0.  0.
         12    1    1    2    0    0  0.71632843868E+01  0.35593450817E+02  0.18301864315E+02  0.40659127163E+02  0.00000000000E+00 0. -1.
         11    1    3    3    0    0 -0.16142458670E+02 -0.18592041137E+02 -0.40783053276E+01  0.24957474635E+02  0.51100000000E-03 0. -1.
        -11    1    3    3    0    0  0.31907405509E+01  0.58349161278E-01 -0.27521552778E+01  0.42140940689E+01  0.51100000000E-03 0.  1.
         12    1    3    3    0    0  0.57884337320E+01 -0.17059758841E+02 -0.11471403709E+02  0.21357304133E+02  0.00000000000E+00 0. -1.
</event>
<event>
 7    1  0.5946946E-013  0.5052886E+02  0.7816164E-02  0.1300439E+00
        -11   -1    0    0    0    0  0.00000000000E+00  0.00000000000E+00  0.45593999997E+02  0.45594000000E+02  0.51100000000E-03 0. -1.
         11   -1    0    0    0    0 -0.00000000000E+00 -0.00000000000E+00 -0.45593999997E+02  0.45594000000E+02  0.51100000000E-03 0.  1.
    9900012    2    1    2    0    0 -0.21524412250E+02  0.85387560924E+01 -0.33420874385E+02  0.50528861753E+02  0.30000005785E+02 0.  0.
         12    1    1    2    0    0  0.21524412250E+02 -0.85387560924E+01  0.33420874385E+02  0.40659138247E+02  0.00000000000E+00 0. -1.
         11    1    3    3    0    0  0.56384674123E+01  0.27313993582E+01 -0.10971845573E+02  0.12634644940E+02  0.51100000000E-03 0. -1.
        -11    1    3    3    0    0 -0.24325006658E+02  0.64999512075E+00 -0.15797200371E+02  0.29011721465E+02  0.51100000000E-03 0.  1.
         12    1    3    3    0    0 -0.28378730049E+01  0.51573616134E+01 -0.66518284406E+01  0.88824953480E+01  0.00000000000E+00 0. -1.
</event>
<event>
 7    1  0.5946946E-013  0.5052886E+02  0.7816164E-02  0.1300439E+00
        -11   -1    0    0    0    0  0.00000000000E+00  0.00000000000E+00  0.45593999997E+02  0.45594000000E+02  0.51100000000E-03 0. -1.
         11   -1    0    0    0    0 -0.00000000000E+00 -0.00000000000E+00 -0.45593999997E+02  0.45594000000E+02  0.51100000000E-03 0.  1.
    9900012    2    1    2    0    0  0.20703160829E+02 -0.34417456052E+02 -0.63232503435E+01  0.50528860261E+02  0.30000001251E+02 0.  0.
         12    1    1    2    0    0 -0.20703160829E+02  0.34417456052E+02  0.63232503435E+01  0.40659139739E+02  0.00000000000E+00 0. -1.
         11    1    3    3    0    0  0.58731245217E+01 -0.10652842526E+02  0.36183768047E+01  0.12691307911E+02  0.51100000000E-03 0. -1.
        -11    1    3    3    0    0 -0.58678296070E+01 -0.39559403027E+01 -0.52385727388E+01  0.88047448899E+01  0.51100000000E-03 0.  1.
        -12    1    3    3    0    0  0.20697865914E+02 -0.19808673223E+02 -0.47030544093E+01  0.29032807460E+02  0.00000000000E+00 0.  1.
</event>
<event>
 7    1  0.5946946E-013  0.5052889E+02  0.7816164E-02  0.1300439E+00
        -11   -1    0    0    0    0  0.00000000000E+00  0.00000000000E+00  0.45593999997E+02  0.45594000000E+02  0.51100000000E-03 0.  1.
         11   -1    0    0    0    0 -0.00000000000E+00 -0.00000000000E+00 -0.45593999997E+02  0.45594000000E+02  0.51100000000E-03 0. -1.
    9900012    2    1    2    0    0 -0.13385970931E+02  0.37819344791E+02 -0.66088254169E+01  0.50528885012E+02  0.30000076483E+02 0.  0.
         12    1    1    2    0    0  0.13385970931E+02 -0.37819344791E+02  0.66088254169E+01  0.40659114988E+02  0.00000000000E+00 0. -1.
         11    1    3    3    0    0  0.23371378308E+01  0.43608175900E+01 -0.73372730554E+01  0.88495491096E+01  0.51100000000E-03 0. -1.
        -11    1    3    3    0    0 -0.96387050586E+01  0.34101608716E+02 -0.48950281643E+00  0.35440992727E+02  0.51100000000E-03 0.  1.
         12    1    3    3    0    0 -0.60844037036E+01 -0.64308151492E+00  0.12179504549E+01  0.62383431754E+01  0.00000000000E+00 0. -1.
</event>
<event>
 7    1  0.5946946E-013  0.5052886E+02  0.7816164E-02  0.1300439E+00
        -11   -1    0    0    0    0  0.00000000000E+00  0.00000000000E+00  0.45593999997E+02  0.45594000000E+02  0.51100000000E-03 0.  1.
         11   -1    0    0    0    0 -0.00000000000E+00 -0.00000000000E+00 -0.45593999997E+02  0.45594000000E+02  0.51100000000E-03 0. -1.
    9900012    2    1    2    0    0  0.32403082814E+02 -0.24003610039E+02  0.51993166802E+01  0.50528856322E+02  0.29999989275E+02 0.  0.
         12    1    1    2    0    0 -0.32403082814E+02  0.24003610039E+02 -0.51993166802E+01  0.40659143678E+02  0.00000000000E+00 0. -1.
         11    1    3    3    0    0  0.75278692017E+01  0.43036472118E+01  0.20266025325E+01  0.89049038247E+01  0.51100000000E-03 0. -1.
        -11    1    3    3    0    0  0.95775385477E+01 -0.23237928499E+02  0.41680708188E+01  0.25477507338E+02  0.51100000000E-03 0.  1.
        -12    1    3    3    0    0  0.15297675064E+02 -0.50693287516E+01 -0.99535667115E+00  0.16146445159E+02  0.00000000000E+00 0.  1.
</event>
<event>
 7    1  0.5946946E-013  0.5052886E+02  0.7816164E-02  0.1300439E+00
        -11   -1    0    0    0    0  0.00000000000E+00  0.00000000000E+00  0.45593999997E+02  0.45594000000E+02  0.51100000000E-03 0. -1.
         11   -1    0    0    0    0 -0.00000000000E+00 -0.00000000000E+00 -0.45593999997E+02  0.45594000000E+02  0.51100000000E-03 0.  1.
    9900012    2    1    2    0    0 -0.18546446018E+02 -0.17464077132E+02 -0.31689130001E+02  0.50528860681E+02  0.30000002525E+02 0.  0.
         12    1    1    2    0    0  0.18546446018E+02  0.17464077132E+02  0.31689130001E+02  0.40659139319E+02  0.00000000000E+00 0. -1.
         11    1    3    3    0    0 -0.45004518631E+01  0.67710820468E+01 -0.26722245789E+01  0.85581775816E+01  0.51100000000E-03 0. -1.
        -11    1    3    3    0    0 -0.71904863878E+01 -0.86064557637E+01 -0.19327804163E+02  0.22345876339E+02  0.51100000000E-03 0.  1.
         12    1    3    3    0    0 -0.68555077667E+01 -0.15628703415E+02 -0.96891012592E+01  0.19624806760E+02  0.00000000000E+00 0. -1.
</event>
<event>
 7    1  0.5946946E-013  0.5052886E+02  0.7816164E-02  0.1300439E+00
        -11   -1    0    0    0    0  0.00000000000E+00  0.00000000000E+00  0.45593999997E+02  0.45594000000E+02  0.51100000000E-03 0.  1.
         11   -1    0    0    0    0 -0.00000000000E+00 -0.00000000000E+00 -0.45593999997E+02  0.45594000000E+02  0.51100000000E-03 0. -1.
    9900012    2    1    2    0    0 -0.17756297391E+01  0.37444623327E+02  0.15745246578E+02  0.50528862443E+02  0.30000007880E+02 0.  0.
         12    1    1    2    0    0  0.17756297391E+01 -0.37444623327E+02 -0.15745246578E+02  0.40659137557E+02  0.00000000000E+00 0. -1.
         11    1    3    3    0    0  0.20203593546E+01  0.34386109595E+00 -0.56106439498E+01  0.59732251061E+01  0.51100000000E-03 0. -1.
        -11    1    3    3    0    0 -0.55555518913E+01  0.75485105212E+01  0.67063997476E+01  0.11524754476E+02  0.51100000000E-03 0.  1.
         12    1    3    3    0    0  0.17595627976E+01  0.29552251710E+02  0.14649490781E+02  0.33030882860E+02  0.00000000000E+00 0. -1.
</event>
<event>
 7    1  0.5946946E-013  0.5052886E+02  0.7816164E-02  0.1300439E+00
        -11   -1    0    0    0    0  0.00000000000E+00  0.00000000000E+00  0.45593999997E+02  0.45594000000E+02  0.51100000000E-03 0. -1.
         11   -1    0    0    0    0 -0.00000000000E+00 -0.00000000000E+00 -0.45593999997E+02  0.45594000000E+02  0.51100000000E-03 0.  1.
    9900012    2    1    2    0    0  0.20403122595E+02 -0.27860221234E+02 -0.21463602348E+02  0.50528861241E+02  0.30000004229E+02 0.  0.
         12    1    1    2    0    0 -0.20403122595E+02  0.27860221234E+02  0.21463602348E+02  0.40659138759E+02  0.00000000000E+00 0. -1.
         11    1    3    3    0    0  0.22114071707E+02 -0.25123588354E+02 -0.24825470885E+02  0.41671703399E+02  0.51100000000E-03 0. -1.
        -11    1    3    3    0    0  0.29878258332E+01 -0.11049641997E+01  0.17130301379E+01  0.36169768601E+01  0.51100000000E-03 0.  1.
         12    1    3    3    0    0 -0.46987749447E+01 -0.16316686806E+01  0.16488383993E+01  0.52401809827E+01  0.00000000000E+00 0. -1.
</event>
<event>
 7    1  0.5946946E-013  0.5052886E+02  0.7816164E-02  0.1300439E+00
        -11   -1    0    0    0    0  0.00000000000E+00  0.00000000000E+00  0.45593999997E+02  0.45594000000E+02  0.51100000000E-03 0. -1.
         11   -1    0    0    0    0 -0.00000000000E+00 -0.00000000000E+00 -0.45593999997E+02  0.45594000000E+02  0.51100000000E-03 0.  1.
    9900012    2    1    2    0    0 -0.22055005144E+02 -0.33951915089E+02 -0.37429908222E+01  0.50528858710E+02  0.29999996536E+02 0.  0.
         12    1    1    2    0    0  0.22055005144E+02  0.33951915089E+02  0.37429908222E+01  0.40659141290E+02  0.00000000000E+00 0. -1.
         11    1    3    3    0    0 -0.37683147946E+01  0.63841660422E+00 -0.10289646192E+01  0.39580981039E+01  0.51100000000E-03 0. -1.
        -11    1    3    3    0    0 -0.13106630314E+02 -0.30706824056E+02 -0.11802834974E+02  0.35411858402E+02  0.51100000000E-03 0.  1.
        -12    1    3    3    0    0 -0.51800600350E+01 -0.38835076373E+01  0.90888087706E+01  0.11158902204E+02  0.00000000000E+00 0.  1.
</event>
<event>
 7    1  0.5946946E-013  0.5052881E+02  0.7816164E-02  0.1300439E+00
        -11   -1    0    0    0    0  0.00000000000E+00  0.00000000000E+00  0.45593999997E+02  0.45594000000E+02  0.51100000000E-03 0. -1.
         11   -1    0    0    0    0 -0.00000000000E+00 -0.00000000000E+00 -0.45593999997E+02  0.45594000000E+02  0.51100000000E-03 0.  1.
    9900012    2    1    2    0    0  0.37328200257E+02 -0.51470299972E+01 -0.15273622458E+02  0.50528806756E+02  0.29999838616E+02 0.  0.
         12    1    1    2    0    0 -0.37328200257E+02  0.51470299972E+01  0.15273622458E+02  0.40659193244E+02  0.00000000000E+00 0. -1.
         11    1    3    3    0    0  0.93816717025E+01  0.43642397149E+01  0.20590006981E+01  0.10549968548E+02  0.51100000000E-03 0. -1.
        -11    1    3    3    0    0  0.21764339807E+02 -0.33727976451E+01 -0.21087792742E+02  0.30491921130E+02  0.51100000000E-03 0.  1.
        -12    1    3    3    0    0  0.61821887483E+01 -0.61384720669E+01  0.37551695868E+01  0.94869170789E+01  0.00000000000E+00 0.  1.
</event>
<event>
 7    1  0.5946946E-013  0.5052884E+02  0.7816164E-02  0.1300439E+00
        -11   -1    0    0    0    0  0.00000000000E+00  0.00000000000E+00  0.45593999997E+02  0.45594000000E+02  0.51100000000E-03 0.  1.
         11   -1    0    0    0    0 -0.00000000000E+00 -0.00000000000E+00 -0.45593999997E+02  0.45594000000E+02  0.51100000000E-03 0. -1.
    9900012    2    1    2    0    0 -0.34610856069E+01 -0.19921189170E+02  0.35275126644E+02  0.50528838040E+02  0.29999933707E+02 0.  0.
         12    1    1    2    0    0  0.34610856069E+01  0.19921189170E+02 -0.35275126644E+02  0.40659161960E+02  0.00000000000E+00 0. -1.
         11    1    3    3    0    0  0.47515218293E+01 -0.80137277025E+01  0.23386687531E+02  0.25174072879E+02  0.51100000000E-03 0.  1.
        -11    1    3    3    0    0 -0.60345734833E+01 -0.92275135325E+01 -0.18581385286E+01  0.11181044771E+02  0.51100000000E-03 0. -1.
         12    1    3    3    0    0 -0.21780339529E+01 -0.26799479347E+01  0.13746577642E+02  0.14173720390E+02  0.00000000000E+00 0. -1.
</event>
<event>
 7    1  0.5946946E-013  0.5052889E+02  0.7816164E-02  0.1300439E+00
        -11   -1    0    0    0    0  0.00000000000E+00  0.00000000000E+00  0.45593999997E+02  0.45594000000E+02  0.51100000000E-03 0. -1.
         11   -1    0    0    0    0 -0.00000000000E+00 -0.00000000000E+00 -0.45593999997E+02  0.45594000000E+02  0.51100000000E-03 0.  1.
    9900012    2    1    2    0    0 -0.32739401435E+02  0.72771180339E+01  0.22985609917E+02  0.50528891347E+02  0.30000095738E+02 0.  0.
         12    1    1    2    0    0  0.32739401435E+02 -0.72771180339E+01 -0.22985609917E+02  0.40659108653E+02  0.00000000000E+00 0. -1.
         11    1    3    3    0    0  0.51564892341E-01 -0.12573861628E+01  0.21321515479E+01  0.24758330688E+01  0.51100000000E-03 0. -1.
        -11    1    3    3    0    0 -0.26303114455E+02  0.17183135260E+02  0.10615608406E+02  0.33163309688E+02  0.51100000000E-03 0.  1.
        -12    1    3    3    0    0 -0.64878518724E+01 -0.86486310636E+01  0.10237849964E+02  0.14889748590E+02  0.00000000000E+00 0.  1.
</event>
<event>
 7    1  0.5946946E-013  0.5052887E+02  0.7816164E-02  0.1300439E+00
        -11   -1    0    0    0    0  0.00000000000E+00  0.00000000000E+00  0.45593999997E+02  0.45594000000E+02  0.51100000000E-03 0.  1.
         11   -1    0    0    0    0 -0.00000000000E+00 -0.00000000000E+00 -0.45593999997E+02  0.45594000000E+02  0.51100000000E-03 0. -1.
    9900012    2    1    2    0    0  0.13904981894E+02 -0.10941092471E+01  0.38191874878E+02  0.50528869374E+02  0.30000028950E+02 0.  0.
         12    1    1    2    0    0 -0.13904981894E+02  0.10941092471E+01 -0.38191874878E+02  0.40659130626E+02  0.00000000000E+00 0. -1.
         11    1    3    3    0    0 -0.83679300197E+00 -0.34004637709E+01 -0.26038613206E+01  0.43638824942E+01  0.51100000000E-03 0. -1.
        -11    1    3    3    0    0  0.17763437928E+02  0.34556569540E+01  0.36930937083E+02  0.41126334703E+02  0.51100000000E-03 0.  1.
        -12    1    3    3    0    0 -0.30216630321E+01 -0.11493024301E+01  0.38647991156E+01  0.50386521768E+01  0.00000000000E+00 0.  1.
</event>
<event>
 7    1  0.5946946E-013  0.5052885E+02  0.7816164E-02  0.1300439E+00
        -11   -1    0    0    0    0  0.00000000000E+00  0.00000000000E+00  0.45593999997E+02  0.45594000000E+02  0.51100000000E-03 0.  1.
         11   -1    0    0    0    0 -0.00000000000E+00 -0.00000000000E+00 -0.45593999997E+02  0.45594000000E+02  0.51100000000E-03 0. -1.
    9900012    2    1    2    0    0  0.37198737886E+02 -0.37382519606E+01  0.15982675311E+02  0.50528849269E+02  0.29999967838E+02 0.  0.
         12    1    1    2    0    0 -0.37198737886E+02  0.37382519606E+01 -0.15982675311E+02  0.40659150731E+02  0.00000000000E+00 0. -1.
         11    1    3    3    0    0  0.15658592937E+02  0.41946608386E+00 -0.48536859788E+01  0.16398955833E+02  0.51100000000E-03 0. -1.
        -11    1    3    3    0    0  0.13970645642E+01 -0.44644001134E+01  0.10483791671E+02  0.11480093459E+02  0.51100000000E-03 0.  1.
        -12    1    3    3    0    0  0.20143080385E+02  0.30668206893E+00  0.10352569619E+02  0.22649799977E+02  0.00000000000E+00 0.  1.
</event>
<event>
 7    1  0.5946946E-013  0.5052886E+02  0.7816164E-02  0.1300439E+00
        -11   -1    0    0    0    0  0.00000000000E+00  0.00000000000E+00  0.45593999997E+02  0.45594000000E+02  0.51100000000E-03 0.  1.
         11   -1    0    0    0    0 -0.00000000000E+00 -0.00000000000E+00 -0.45593999997E+02  0.45594000000E+02  0.51100000000E-03 0. -1.
    9900012    2    1    2    0    0 -0.47234300786E+01 -0.26669158863E+02  0.30325084208E+02  0.50528861317E+02  0.30000004460E+02 0.  0.
         12    1    1    2    0    0  0.47234300786E+01  0.26669158863E+02 -0.30325084208E+02  0.40659138683E+02  0.00000000000E+00 0. -1.
         11    1    3    3    0    0 -0.61080631568E+00 -0.22839184919E+02  0.16855886639E+02  0.28392294144E+02  0.51100000000E-03 0. -1.
        -11    1    3    3    0    0  0.52119535676E+01  0.17148887106E+01  0.94595613864E+00  0.55677766261E+01  0.51100000000E-03 0.  1.
        -12    1    3    3    0    0 -0.93245773305E+01 -0.55448626547E+01  0.12523241431E+02  0.16568790547E+02  0.00000000000E+00 0.  1.
</event>
<event>
 7    1  0.5946946E-013  0.5052887E+02  0.7816164E-02  0.1300439E+00
        -11   -1    0    0    0    0  0.00000000000E+00  0.00000000000E+00  0.45593999997E+02  0.45594000000E+02  0.51100000000E-03 0.  1.
         11   -1    0    0    0    0 -0.00000000000E+00 -0.00000000000E+00 -0.45593999997E+02  0.45594000000E+02  0.51100000000E-03 0. -1.
    9900012    2    1    2    0    0  0.23413383751E+02 -0.30836502203E+02  0.12413230465E+02  0.50528871906E+02  0.30000036644E+02 0.  0.
         12    1    1    2    0    0 -0.23413383751E+02  0.30836502203E+02 -0.12413230465E+02  0.40659128094E+02  0.00000000000E+00 0. -1.
         11    1    3    3    0    0  0.82842308345E+01 -0.23412923850E+02  0.11593762384E+02  0.27408188744E+02  0.51100000000E-03 0. -1.
        -11    1    3    3    0    0  0.64464622188E+01  0.66501150747E+00 -0.64996799094E+01  0.91785050323E+01  0.51100000000E-03 0.  1.
        -12    1    3    3    0    0  0.86826906978E+01 -0.80885898609E+01  0.73191479905E+01  0.13942178130E+02  0.00000000000E+00 0.  1.
</event>
<event>
 7    1  0.5946946E-013  0.5052886E+02  0.7816164E-02  0.1300439E+00
        -11   -1    0    0    0    0  0.00000000000E+00  0.00000000000E+00  0.45593999997E+02  0.45594000000E+02  0.51100000000E-03 0.  1.
         11   -1    0    0    0    0 -0.00000000000E+00 -0.00000000000E+00 -0.45593999997E+02  0.45594000000E+02  0.51100000000E-03 0. -1.
    9900012    2    1    2    0    0  0.28237216429E+02 -0.92281615285E+01  0.27760876725E+02  0.50528860395E+02  0.30000001656E+02 0.  0.
         12    1    1    2    0    0 -0.28237216429E+02  0.92281615285E+01 -0.27760876725E+02  0.40659139605E+02  0.00000000000E+00 0. -1.
         11    1    3    3    0    0  0.26469182560E+02 -0.48701131458E+01  0.10495203679E+02  0.28887452778E+02  0.51100000000E-03 0. -1.
        -11    1    3    3    0    0 -0.17388476814E+01 -0.77417445938E+01  0.86125057709E+01  0.11710399503E+02  0.51100000000E-03 0.  1.
        -12    1    3    3    0    0  0.35068815502E+01  0.33836962111E+01  0.86531672756E+01  0.99310081137E+01  0.00000000000E+00 0.  1.
</event>
<event>
 7    1  0.5946946E-013  0.5052886E+02  0.7816164E-02  0.1300439E+00
        -11   -1    0    0    0    0  0.00000000000E+00  0.00000000000E+00  0.45593999997E+02  0.45594000000E+02  0.51100000000E-03 0.  1.
         11   -1    0    0    0    0 -0.00000000000E+00 -0.00000000000E+00 -0.45593999997E+02  0.45594000000E+02  0.51100000000E-03 0. -1.
    9900012    2    1    2    0    0 -0.36412256850E+02 -0.12852081372E+02  0.12733314264E+02  0.50528859126E+02  0.29999997799E+02 0.  0.
         12    1    1    2    0    0  0.36412256850E+02  0.12852081372E+02 -0.12733314264E+02  0.40659140874E+02  0.00000000000E+00 0. -1.
         11    1    3    3    0    0 -0.89799062435E+00  0.38562570361E+00 -0.47185879126E+01  0.48187307971E+01  0.51100000000E-03 0. -1.
        -11    1    3    3    0    0 -0.25139543486E+02 -0.17717648138E+02  0.10798548629E+02  0.32596324256E+02  0.51100000000E-03 0.  1.
        -12    1    3    3    0    0 -0.10374722739E+02  0.44799410626E+01  0.66533535476E+01  0.13113804073E+02  0.00000000000E+00 0.  1.
</event>
<event>
 7    1  0.5946946E-013  0.5052887E+02  0.7816164E-02  0.1300439E+00
        -11   -1    0    0    0    0  0.00000000000E+00  0.00000000000E+00  0.45593999997E+02  0.45594000000E+02  0.51100000000E-03 0. -1.
         11   -1    0    0    0    0 -0.00000000000E+00 -0.00000000000E+00 -0.45593999997E+02  0.45594000000E+02  0.51100000000E-03 0.  1.
    9900012    2    1    2    0    0  0.35146374598E+02  0.15196863684E+01 -0.20385975161E+02  0.50528867234E+02  0.30000022444E+02 0.  0.
         12    1    1    2    0    0 -0.35146374598E+02 -0.15196863684E+01  0.20385975161E+02  0.40659132766E+02  0.00000000000E+00 0. -1.
         11    1    3    3    0    0  0.21904244261E+02  0.87862904447E+01 -0.15997824622E+01  0.23654896335E+02  0.51100000000E-03 0. -1.
        -11    1    3    3    0    0  0.99292382257E+01 -0.10369176243E+02 -0.16215785462E+02  0.21657822746E+02  0.51100000000E-03 0.  1.
        -12    1    3    3    0    0  0.33128921111E+01  0.31025721664E+01 -0.25704072366E+01  0.52161481525E+01  0.00000000000E+00 0.  1.
</event>
<event>
 7    1  0.5946946E-013  0.5052887E+02  0.7816164E-02  0.1300439E+00
        -11   -1    0    0    0    0  0.00000000000E+00  0.00000000000E+00  0.45593999997E+02  0.45594000000E+02  0.51100000000E-03 0.  1.
         11   -1    0    0    0    0 -0.00000000000E+00 -0.00000000000E+00 -0.45593999997E+02  0.45594000000E+02  0.51100000000E-03 0. -1.
    9900012    2    1    2    0    0 -0.17589526470E+02  0.24817967993E+02  0.26978549058E+02  0.50528867126E+02  0.30000022117E+02 0.  0.
         12    1    1    2    0    0  0.17589526470E+02 -0.24817967993E+02 -0.26978549058E+02  0.40659132874E+02  0.00000000000E+00 0. -1.
         11    1    3    3    0    0  0.35258769945E+01  0.61974820950E+01  0.14908272524E+02  0.16525652265E+02  0.51100000000E-03 0. -1.
        -11    1    3    3    0    0 -0.12822128796E+02  0.26172089256E+01  0.16679968834E+01  0.13192383533E+02  0.51100000000E-03 0.  1.
         12    1    3    3    0    0 -0.82932746679E+01  0.16003276973E+02  0.10402279651E+02  0.20810831327E+02  0.00000000000E+00 0. -1.
</event>
<event>
 7    1  0.5946946E-013  0.5052887E+02  0.7816164E-02  0.1300439E+00
        -11   -1    0    0    0    0  0.00000000000E+00  0.00000000000E+00  0.45593999997E+02  0.45594000000E+02  0.51100000000E-03 0.  1.
         11   -1    0    0    0    0 -0.00000000000E+00 -0.00000000000E+00 -0.45593999997E+02  0.45594000000E+02  0.51100000000E-03 0. -1.
    9900012    2    1    2    0    0  0.14561914994E+02  0.19910696588E+02  0.32321507817E+02  0.50528867268E+02  0.30000022549E+02 0.  0.
         12    1    1    2    0    0 -0.14561914994E+02 -0.19910696588E+02 -0.32321507817E+02  0.40659132732E+02  0.00000000000E+00 0. -1.
         11    1    3    3    0    0  0.12447885879E+02  0.19779114356E+02  0.12132677100E+02  0.26331826398E+02  0.51100000000E-03 0.  1.
        -11    1    3    3    0    0  0.71336588911E+01 -0.13230724847E+01  0.73149732031E+01  0.10302836658E+02  0.51100000000E-03 0. -1.
         12    1    3    3    0    0 -0.50196297754E+01  0.14546547168E+01  0.12873857513E+02  0.13894204213E+02  0.00000000000E+00 0. -1.
</event>
<event>
 7    1  0.5946946E-013  0.5052885E+02  0.7816164E-02  0.1300439E+00
        -11   -1    0    0    0    0  0.00000000000E+00  0.00000000000E+00  0.45593999997E+02  0.45594000000E+02  0.51100000000E-03 0.  1.
         11   -1    0    0    0    0 -0.00000000000E+00 -0.00000000000E+00 -0.45593999997E+02  0.45594000000E+02  0.51100000000E-03 0. -1.
    9900012    2    1    2    0    0 -0.24856475498E+02  0.26021490780E+02  0.18926275570E+02  0.50528852646E+02  0.29999978102E+02 0.  0.
         12    1    1    2    0    0  0.24856475498E+02 -0.26021490780E+02 -0.18926275570E+02  0.40659147354E+02  0.00000000000E+00 0. -1.
         11    1    3    3    0    0  0.25430378452E+01  0.16534940893E+02  0.22588520219E+01  0.16881164786E+02  0.51100000000E-03 0. -1.
        -11    1    3    3    0    0 -0.44908583974E+01  0.27902255120E+00  0.32230089781E+01  0.55347493045E+01  0.51100000000E-03 0.  1.
         12    1    3    3    0    0 -0.22908654946E+02  0.92075273356E+01  0.13444414570E+02  0.28112938555E+02  0.00000000000E+00 0. -1.
</event>
<event>
 7    1  0.5946946E-013  0.5052886E+02  0.7816164E-02  0.1300439E+00
        -11   -1    0    0    0    0  0.00000000000E+00  0.00000000000E+00  0.45593999997E+02  0.45594000000E+02  0.51100000000E-03 0.  1.
         11   -1    0    0    0    0 -0.00000000000E+00 -0.00000000000E+00 -0.45593999997E+02  0.45594000000E+02  0.51100000000E-03 0. -1.
    9900012    2    1    2    0    0 -0.27268847879E+02  0.74258877619E+01  0.29230671260E+02  0.50528855690E+02  0.29999987356E+02 0.  0.
         12    1    1    2    0    0  0.27268847879E+02 -0.74258877619E+01 -0.29230671260E+02  0.40659144310E+02  0.00000000000E+00 0. -1.
         11    1    3    3    0    0 -0.45652648407E+01 -0.10860916437E+01  0.14928416541E+02  0.15648605651E+02  0.51100000000E-03 0. -1.
        -11    1    3    3    0    0 -0.75599757688E+01  0.72610787203E+01 -0.38865155366E+01  0.11179512560E+02  0.51100000000E-03 0.  1.
        -12    1    3    3    0    0 -0.15143607269E+02  0.12509006853E+01  0.18188770255E+02  0.23700737479E+02  0.00000000000E+00 0.  1.
</event>
<event>
 7    1  0.5946946E-013  0.5052886E+02  0.7816164E-02  0.1300439E+00
        -11   -1    0    0    0    0  0.00000000000E+00  0.00000000000E+00  0.45593999997E+02  0.45594000000E+02  0.51100000000E-03 0. -1.
         11   -1    0    0    0    0 -0.00000000000E+00 -0.00000000000E+00 -0.45593999997E+02  0.45594000000E+02  0.51100000000E-03 0.  1.
    9900012    2    1    2    0    0  0.17921337368E+02  0.23517755979E+02 -0.27908891450E+02  0.50528863249E+02  0.30000010332E+02 0.  0.
         12    1    1    2    0    0 -0.17921337368E+02 -0.23517755979E+02  0.27908891450E+02  0.40659136751E+02  0.00000000000E+00 0. -1.
         11    1    3    3    0    0  0.14609678623E+02  0.46511890282E+01  0.11662939650E+00  0.15332640723E+02  0.51100000000E-03 0. -1.
        -11    1    3    3    0    0  0.49694322617E+01  0.12743373306E+02 -0.24172685795E+02  0.27774224724E+02  0.51100000000E-03 0.  1.
        -12    1    3    3    0    0 -0.16577735171E+01  0.61231936449E+01 -0.38528350517E+01  0.74219978026E+01  0.00000000000E+00 0.  1.
</event>
<event>
 7    1  0.5946946E-013  0.5052885E+02  0.7816164E-02  0.1300439E+00
        -11   -1    0    0    0    0  0.00000000000E+00  0.00000000000E+00  0.45593999997E+02  0.45594000000E+02  0.51100000000E-03 0. -1.
         11   -1    0    0    0    0 -0.00000000000E+00 -0.00000000000E+00 -0.45593999997E+02  0.45594000000E+02  0.51100000000E-03 0.  1.
    9900012    2    1    2    0    0 -0.35448408799E+02 -0.19886678693E+02  0.10473090490E+01  0.50528849344E+02  0.29999968067E+02 0.  0.
         12    1    1    2    0    0  0.35448408799E+02  0.19886678693E+02 -0.10473090490E+01  0.40659150656E+02  0.00000000000E+00 0. -1.
         11    1    3    3    0    0  0.32259028858E+01 -0.51326965698E+01  0.40862748349E-01  0.60623999812E+01  0.51100000000E-03 0. -1.
        -11    1    3    3    0    0 -0.19485423023E+02 -0.23354424238E+01  0.70016203958E+01  0.20836474992E+02  0.51100000000E-03 0.  1.
        -12    1    3    3    0    0 -0.19188888662E+02 -0.12418539699E+02 -0.59951740952E+01  0.23629974371E+02  0.00000000000E+00 0.  1.
</event>
<event>
 7    1  0.5946946E-013  0.5052895E+02  0.7816164E-02  0.1300438E+00
        -11   -1    0    0    0    0  0.00000000000E+00  0.00000000000E+00  0.45593999997E+02  0.45594000000E+02  0.51100000000E-03 0.  1.
         11   -1    0    0    0    0 -0.00000000000E+00 -0.00000000000E+00 -0.45593999997E+02  0.45594000000E+02  0.51100000000E-03 0. -1.
    9900012    2    1    2    0    0 -0.14905087588E+02  0.18801051954E+02  0.32825557653E+02  0.50528949030E+02  0.30000271069E+02 0.  0.
         12    1    1    2    0    0  0.14905087588E+02 -0.18801051954E+02 -0.32825557653E+02  0.40659050970E+02  0.00000000000E+00 0. -1.
         11    1    3    3    0    0  0.70285963639E+01  0.15390784441E+01  0.82226506457E+00  0.72419644711E+01  0.51100000000E-03 0. -1.
        -11    1    3    3    0    0 -0.87875556487E+01  0.45818998842E+01  0.16877856672E+02  0.19572352616E+02  0.51100000000E-03 0.  1.
         12    1    3    3    0    0 -0.13146128303E+02  0.12680073626E+02  0.15125435917E+02  0.23714631943E+02  0.00000000000E+00 0. -1.
</event>
<event>
 7    1  0.5946946E-013  0.5052886E+02  0.7816164E-02  0.1300439E+00
        -11   -1    0    0    0    0  0.00000000000E+00  0.00000000000E+00  0.45593999997E+02  0.45594000000E+02  0.51100000000E-03 0.  1.
         11   -1    0    0    0    0 -0.00000000000E+00 -0.00000000000E+00 -0.45593999997E+02  0.45594000000E+02  0.51100000000E-03 0. -1.
    9900012    2    1    2    0    0 -0.16640762076E+02  0.37090097341E+02  0.75844854995E+00  0.50528861698E+02  0.30000005618E+02 0.  0.
         12    1    1    2    0    0  0.16640762076E+02 -0.37090097341E+02 -0.75844854995E+00  0.40659138302E+02  0.00000000000E+00 0. -1.
         11    1    3    3    0    0  0.22332421384E+01  0.41457094513E+01  0.78437237263E+01  0.91486763774E+01  0.51100000000E-03 0. -1.
        -11    1    3    3    0    0 -0.17345792075E+01  0.17814320843E+02 -0.26958152403E+01  0.18100447846E+02  0.51100000000E-03 0.  1.
         12    1    3    3    0    0 -0.17139425007E+02  0.15130067046E+02 -0.43894599361E+01  0.23279737475E+02  0.00000000000E+00 0. -1.
</event>
<event>
 7    1  0.5946946E-013  0.5052886E+02  0.7816164E-02  0.1300439E+00
        -11   -1    0    0    0    0  0.00000000000E+00  0.00000000000E+00  0.45593999997E+02  0.45594000000E+02  0.51100000000E-03 0.  1.
         11   -1    0    0    0    0 -0.00000000000E+00 -0.00000000000E+00 -0.45593999997E+02  0.45594000000E+02  0.51100000000E-03 0. -1.
    9900012    2    1    2    0    0 -0.13616022066E+02  0.37986682853E+02 -0.49780652520E+01  0.50528864929E+02  0.30000015439E+02 0.  0.
         12    1    1    2    0    0  0.13616022066E+02 -0.37986682853E+02  0.49780652520E+01  0.40659135071E+02  0.00000000000E+00 0. -1.
         11    1    3    3    0    0 -0.51149721359E+01  0.15561766119E+02 -0.80737960203E+01  0.18262466622E+02  0.51100000000E-03 0. -1.
        -11    1    3    3    0    0 -0.33097107355E+01  0.23694361337E+02  0.77822515854E+01  0.25158306467E+02  0.51100000000E-03 0.  1.
         12    1    3    3    0    0 -0.51913391943E+01 -0.12694446029E+01 -0.46865208171E+01  0.71080918395E+01  0.00000000000E+00 0. -1.
</event>
<event>
 7    1  0.5946946E-013  0.5052888E+02  0.7816164E-02  0.1300439E+00
        -11   -1    0    0    0    0  0.00000000000E+00  0.00000000000E+00  0.45593999997E+02  0.45594000000E+02  0.51100000000E-03 0.  1.
         11   -1    0    0    0    0 -0.00000000000E+00 -0.00000000000E+00 -0.45593999997E+02  0.45594000000E+02  0.51100000000E-03 0. -1.
    9900012    2    1    2    0    0 -0.33005953511E+02  0.10279560510E+02  0.21403303821E+02  0.50528883607E+02  0.30000072212E+02 0.  0.
         12    1    1    2    0    0  0.33005953511E+02 -0.10279560510E+02 -0.21403303821E+02  0.40659116393E+02  0.00000000000E+00 0. -1.
         11    1    3    3    0    0 -0.11164572633E+02  0.38724815582E+00 -0.29884669094E+01  0.11564107313E+02  0.51100000000E-03 0. -1.
        -11    1    3    3    0    0 -0.22130083984E+02  0.11271352280E+02  0.26570623234E+02  0.36370070369E+02  0.51100000000E-03 0.  1.
        -12    1    3    3    0    0  0.28870310654E+00 -0.13790399265E+01 -0.21788525039E+01  0.25947059248E+01  0.00000000000E+00 0.  1.
</event>
<event>
 7    1  0.5946946E-013  0.5052885E+02  0.7816164E-02  0.1300439E+00
        -11   -1    0    0    0    0  0.00000000000E+00  0.00000000000E+00  0.45593999997E+02  0.45594000000E+02  0.51100000000E-03 0.  1.
         11   -1    0    0    0    0 -0.00000000000E+00 -0.00000000000E+00 -0.45593999997E+02  0.45594000000E+02  0.51100000000E-03 0. -1.
    9900012    2    1    2    0    0 -0.15043675763E+02  0.38088982620E+01  0.37581200801E+02  0.50528849246E+02  0.29999967768E+02 0.  0.
         12    1    1    2    0    0  0.15043675763E+02 -0.38088982620E+01 -0.37581200801E+02  0.40659150754E+02  0.00000000000E+00 0. -1.
         11    1    3    3    0    0  0.40434766370E+01  0.47532759604E+00 -0.25400058649E+01  0.47986737431E+01  0.51100000000E-03 0. -1.
        -11    1    3    3    0    0 -0.81637886520E+01 -0.24275801156E+01  0.23696779309E+02  0.25180904278E+02  0.51100000000E-03 0.  1.
         12    1    3    3    0    0 -0.10923363748E+02  0.57611507815E+01  0.16424427356E+02  0.20549271225E+02  0.00000000000E+00 0. -1.
</event>
<event>
 7    1  0.5946946E-013  0.5052886E+02  0.7816164E-02  0.1300439E+00
        -11   -1    0    0    0    0  0.00000000000E+00  0.00000000000E+00  0.45593999997E+02  0.45594000000E+02  0.51100000000E-03 0.  1.
         11   -1    0    0    0    0 -0.00000000000E+00 -0.00000000000E+00 -0.45593999997E+02  0.45594000000E+02  0.51100000000E-03 0. -1.
    9900012    2    1    2    0    0  0.14623509675E+02  0.33735602475E+02  0.17355918219E+02  0.50528858263E+02  0.29999995176E+02 0.  0.
         12    1    1    2    0    0 -0.14623509675E+02 -0.33735602475E+02 -0.17355918219E+02  0.40659141737E+02  0.00000000000E+00 0. -1.
         11    1    3    3    0    0 -0.59955729093E+01  0.18908345964E+02  0.11602837017E+02  0.22980388785E+02  0.51100000000E-03 0. -1.
        -11    1    3    3    0    0  0.18817738848E+02  0.12171158359E+02  0.78144608480E+01  0.23734156605E+02  0.51100000000E-03 0.  1.
         12    1    3    3    0    0  0.18013437363E+01  0.26560981522E+01 -0.20613796457E+01  0.38143128731E+01  0.00000000000E+00 0. -1.
</event>
<event>
 7    1  0.5946946E-013  0.5052885E+02  0.7816164E-02  0.1300439E+00
        -11   -1    0    0    0    0  0.00000000000E+00  0.00000000000E+00  0.45593999997E+02  0.45594000000E+02  0.51100000000E-03 0.  1.
         11   -1    0    0    0    0 -0.00000000000E+00 -0.00000000000E+00 -0.45593999997E+02  0.45594000000E+02  0.51100000000E-03 0. -1.
    9900012    2    1    2    0    0  0.70263872789E+01  0.34352719508E+02  0.20583654660E+02  0.50528852260E+02  0.29999976929E+02 0.  0.
         12    1    1    2    0    0 -0.70263872789E+01 -0.34352719508E+02 -0.20583654660E+02  0.40659147740E+02  0.00000000000E+00 0. -1.
         11    1    3    3    0    0  0.11237648225E+02  0.19454589243E+02  0.57479188771E+01  0.23190609132E+02  0.51100000000E-03 0. -1.
        -11    1    3    3    0    0 -0.71706692456E+01  0.16981505477E+02  0.14924855911E+02  0.23717954168E+02  0.51100000000E-03 0.  1.
        -12    1    3    3    0    0  0.29594082995E+01 -0.20833752119E+01 -0.89120128034E-01  0.36202889600E+01  0.00000000000E+00 0.  1.
</event>
<event>
 7    1  0.5946946E-013  0.5052890E+02  0.7816164E-02  0.1300439E+00
        -11   -1    0    0    0    0  0.00000000000E+00  0.00000000000E+00  0.45593999997E+02  0.45594000000E+02  0.51100000000E-03 0.  1.
         11   -1    0    0    0    0 -0.00000000000E+00 -0.00000000000E+00 -0.45593999997E+02  0.45594000000E+02  0.51100000000E-03 0. -1.
    9900012    2    1    2    0    0 -0.35537166096E+02  0.19637046445E+02 -0.21583367637E+01  0.50528902804E+02  0.30000130563E+02 0.  0.
         12    1    1    2    0    0  0.35537166096E+02 -0.19637046445E+02  0.21583367637E+01  0.40659097196E+02  0.00000000000E+00 0. -1.
         11    1    3    3    0    0  0.24148068769E+01  0.24358694913E+01  0.44612838109E+01  0.56274155644E+01  0.51100000000E-03 0. -1.
        -11    1    3    3    0    0 -0.32760266192E+02  0.19720427349E+02 -0.77649762565E+01  0.39018266906E+02  0.51100000000E-03 0.  1.
         12    1    3    3    0    0 -0.51917067809E+01 -0.25192503960E+01  0.11453556819E+01  0.58832203336E+01  0.00000000000E+00 0. -1.
</event>
<event>
 7    1  0.5946946E-013  0.5052886E+02  0.7816164E-02  0.1300439E+00
        -11   -1    0    0    0    0  0.00000000000E+00  0.00000000000E+00  0.45593999997E+02  0.45594000000E+02  0.51100000000E-03 0.  1.
         11   -1    0    0    0    0 -0.00000000000E+00 -0.00000000000E+00 -0.45593999997E+02  0.45594000000E+02  0.51100000000E-03 0. -1.
    9900012    2    1    2    0    0  0.21134548688E+02 -0.67583849372E+01  0.34070816055E+02  0.50528862996E+02  0.30000009563E+02 0.  0.
         12    1    1    2    0    0 -0.21134548688E+02  0.67583849372E+01 -0.34070816055E+02  0.40659137004E+02  0.00000000000E+00 0. -1.
         11    1    3    3    0    0 -0.14774299517E+01 -0.96575365865E+01  0.17554126771E+02  0.20089753088E+02  0.51100000000E-03 0. -1.
        -11    1    3    3    0    0  0.21628518440E+02 -0.85036832117E+00  0.14648382560E+02  0.26136010561E+02  0.51100000000E-03 0.  1.
         12    1    3    3    0    0  0.98346020018E+00  0.37495199705E+01  0.18683067249E+01  0.43030993473E+01  0.00000000000E+00 0. -1.
</event>
<event>
 7    1  0.5946946E-013  0.5052886E+02  0.7816164E-02  0.1300439E+00
        -11   -1    0    0    0    0  0.00000000000E+00  0.00000000000E+00  0.45593999997E+02  0.45594000000E+02  0.51100000000E-03 0.  1.
         11   -1    0    0    0    0 -0.00000000000E+00 -0.00000000000E+00 -0.45593999997E+02  0.45594000000E+02  0.51100000000E-03 0. -1.
    9900012    2    1    2    0    0 -0.38650192717E+01  0.61384030967E+01  0.40006840146E+02  0.50528860499E+02  0.30000001971E+02 0.  0.
         12    1    1    2    0    0  0.38650192717E+01 -0.61384030967E+01 -0.40006840146E+02  0.40659139501E+02  0.00000000000E+00 0. -1.
         11    1    3    3    0    0  0.17339551628E+01 -0.65000480288E+01  0.17232189424E+01  0.69445452456E+01  0.51100000000E-03 0. -1.
        -11    1    3    3    0    0 -0.75059701459E+01  0.58161099141E+01  0.34011027953E+02  0.35311708328E+02  0.51100000000E-03 0.  1.
        -12    1    3    3    0    0  0.19069957114E+01  0.68223412114E+01  0.42725932501E+01  0.82726069246E+01  0.00000000000E+00 0.  1.
</event>
<event>
 7    1  0.5946946E-013  0.5052886E+02  0.7816164E-02  0.1300439E+00
        -11   -1    0    0    0    0  0.00000000000E+00  0.00000000000E+00  0.45593999997E+02  0.45594000000E+02  0.51100000000E-03 0. -1.
         11   -1    0    0    0    0 -0.00000000000E+00 -0.00000000000E+00 -0.45593999997E+02  0.45594000000E+02  0.51100000000E-03 0.  1.
    9900012    2    1    2    0    0 -0.35489467540E+02  0.10937842445E+02 -0.16553762021E+02  0.50528859076E+02  0.29999997647E+02 0.  0.
         12    1    1    2    0    0  0.35489467540E+02 -0.10937842445E+02  0.16553762021E+02  0.40659140924E+02  0.00000000000E+00 0. -1.
         11    1    3    3    0    0 -0.15539563157E+00 -0.66383615746E+01 -0.51676488816E+01  0.84140707997E+01  0.51100000000E-03 0. -1.
        -11    1    3    3    0    0 -0.29086583214E+02  0.10304244118E+02 -0.99396481871E+01  0.32419182227E+02  0.51100000000E-03 0.  1.
         12    1    3    3    0    0 -0.62474886942E+01  0.72719599022E+01 -0.14464649521E+01  0.96956060492E+01  0.00000000000E+00 0. -1.
</event>
<event>
 7    1  0.5946946E-013  0.5052895E+02  0.7816164E-02  0.1300438E+00
        -11   -1    0    0    0    0  0.00000000000E+00  0.00000000000E+00  0.45593999997E+02  0.45594000000E+02  0.51100000000E-03 0.  1.
         11   -1    0    0    0    0 -0.00000000000E+00 -0.00000000000E+00 -0.45593999997E+02  0.45594000000E+02  0.51100000000E-03 0. -1.
    9900012    2    1    2    0    0 -0.16957715290E+02 -0.14877669685E+02  0.33826754342E+02  0.50528948456E+02  0.30000269325E+02 0.  0.
         12    1    1    2    0    0  0.16957715290E+02  0.14877669685E+02 -0.33826754342E+02  0.40659051544E+02  0.00000000000E+00 0. -1.
         11    1    3    3    0    0 -0.13048916195E+02 -0.13201304092E+02  0.32595917319E+01  0.18846049510E+02  0.51100000000E-03 0. -1.
        -11    1    3    3    0    0 -0.12383108404E+01 -0.35889300177E+01  0.24418265976E+02  0.24711647981E+02  0.51100000000E-03 0.  1.
         12    1    3    3    0    0 -0.26704882548E+01  0.19125644248E+01  0.61488966346E+01  0.69712509653E+01  0.00000000000E+00 0. -1.
</event>
<event>
 7    1  0.5946946E-013  0.5052884E+02  0.7816164E-02  0.1300439E+00
        -11   -1    0    0    0    0  0.00000000000E+00  0.00000000000E+00  0.45593999997E+02  0.45594000000E+02  0.51100000000E-03 0.  1.
         11   -1    0    0    0    0 -0.00000000000E+00 -0.00000000000E+00 -0.45593999997E+02  0.45594000000E+02  0.51100000000E-03 0. -1.
    9900012    2    1    2    0    0 -0.15078641127E+02  0.34206971868E+02  0.15990159145E+02  0.50528837046E+02  0.29999930686E+02 0.  0.
         12    1    1    2    0    0  0.15078641127E+02 -0.34206971868E+02 -0.15990159145E+02  0.40659162954E+02  0.00000000000E+00 0. -1.
         11    1    3    3    0    0  0.14740862534E+01 -0.15749669737E+01  0.23517856320E+01  0.31912923982E+01  0.51100000000E-03 0. -1.
        -11    1    3    3    0    0 -0.22053880866E+02  0.30974384774E+02  0.11554908278E+02  0.39740433805E+02  0.51100000000E-03 0.  1.
        -12    1    3    3    0    0  0.55011534857E+01  0.48075540676E+01  0.20834652343E+01  0.75971108435E+01  0.00000000000E+00 0.  1.
</event>
<event>
 7    1  0.5946946E-013  0.5052886E+02  0.7816164E-02  0.1300439E+00
        -11   -1    0    0    0    0  0.00000000000E+00  0.00000000000E+00  0.45593999997E+02  0.45594000000E+02  0.51100000000E-03 0. -1.
         11   -1    0    0    0    0 -0.00000000000E+00 -0.00000000000E+00 -0.45593999997E+02  0.45594000000E+02  0.51100000000E-03 0.  1.
    9900012    2    1    2    0    0  0.25003763361E+02 -0.31362875908E+02  0.66593941984E+01  0.50528859595E+02  0.29999999223E+02 0.  0.
         12    1    1    2    0    0 -0.25003763361E+02  0.31362875908E+02 -0.66593941984E+01  0.40659140405E+02  0.00000000000E+00 0. -1.
         11    1    3    3    0    0  0.14052763240E+02 -0.86036504078E+01  0.81608169392E+01  0.18387547101E+02  0.51100000000E-03 0. -1.
        -11    1    3    3    0    0  0.12394608614E+02 -0.25809576109E+02 -0.21221289874E+01  0.28709997794E+02  0.51100000000E-03 0.  1.
        -12    1    3    3    0    0 -0.14436084934E+01  0.30503506091E+01  0.62070624664E+00  0.34313146993E+01  0.00000000000E+00 0.  1.
</event>
<event>
 7    1  0.5946946E-013  0.5052886E+02  0.7816164E-02  0.1300439E+00
        -11   -1    0    0    0    0  0.00000000000E+00  0.00000000000E+00  0.45593999997E+02  0.45594000000E+02  0.51100000000E-03 0.  1.
         11   -1    0    0    0    0 -0.00000000000E+00 -0.00000000000E+00 -0.45593999997E+02  0.45594000000E+02  0.51100000000E-03 0. -1.
    9900012    2    1    2    0    0  0.21492591949E+02 -0.29091229715E+02  0.18572402323E+02  0.50528864704E+02  0.30000014753E+02 0.  0.
         12    1    1    2    0    0 -0.21492591949E+02  0.29091229715E+02 -0.18572402323E+02  0.40659135296E+02  0.00000000000E+00 0. -1.
         11    1    3    3    0    0  0.12182520638E+02 -0.13357516975E+02 -0.28217069800E+01  0.18297516207E+02  0.51100000000E-03 0. -1.
        -11    1    3    3    0    0 -0.60789812441E+00  0.21118969278E+01  0.67697681662E+01  0.71175424163E+01  0.51100000000E-03 0.  1.
        -12    1    3    3    0    0  0.99179694360E+01 -0.17845609668E+02  0.14624341137E+02  0.25113806080E+02  0.00000000000E+00 0.  1.
</event>
<event>
 7    1  0.5946946E-013  0.5052886E+02  0.7816164E-02  0.1300439E+00
        -11   -1    0    0    0    0  0.00000000000E+00  0.00000000000E+00  0.45593999997E+02  0.45594000000E+02  0.51100000000E-03 0.  1.
         11   -1    0    0    0    0 -0.00000000000E+00 -0.00000000000E+00 -0.45593999997E+02  0.45594000000E+02  0.51100000000E-03 0. -1.
    9900012    2    1    2    0    0  0.41030081183E+01  0.32051023603E+02  0.24679205584E+02  0.50528856159E+02  0.29999988781E+02 0.  0.
         12    1    1    2    0    0 -0.41030081183E+01 -0.32051023603E+02 -0.24679205584E+02  0.40659143841E+02  0.00000000000E+00 0. -1.
         11    1    3    3    0    0  0.57483578919E+01  0.30805022422E+02  0.21709125262E+02  0.38121898494E+02  0.51100000000E-03 0. -1.
        -11    1    3    3    0    0 -0.46827713805E+01  0.46756668078E+01 -0.53438450065E+00  0.66389588759E+01  0.51100000000E-03 0.  1.
         12    1    3    3    0    0  0.30374216070E+01 -0.34296656273E+01  0.35044648229E+01  0.57679987889E+01  0.00000000000E+00 0. -1.
</event>
<event>
 7    1  0.5946946E-013  0.5052885E+02  0.7816164E-02  0.1300439E+00
        -11   -1    0    0    0    0  0.00000000000E+00  0.00000000000E+00  0.45593999997E+02  0.45594000000E+02  0.51100000000E-03 0.  1.
         11   -1    0    0    0    0 -0.00000000000E+00 -0.00000000000E+00 -0.45593999997E+02  0.45594000000E+02  0.51100000000E-03 0. -1.
    9900012    2    1    2    0    0 -0.17778682913E+02 -0.20945718851E+02  0.29972680272E+02  0.50528852604E+02  0.29999977974E+02 0.  0.
         12    1    1    2    0    0  0.17778682913E+02  0.20945718851E+02 -0.29972680272E+02  0.40659147396E+02  0.00000000000E+00 0. -1.
         11    1    3    3    0    0 -0.14595533682E+02 -0.90302511861E+00  0.11957675444E+02  0.18889972475E+02  0.51100000000E-03 0. -1.
        -11    1    3    3    0    0 -0.60568085191E+01 -0.21685668585E+02  0.16876449299E+02  0.28138366915E+02  0.51100000000E-03 0.  1.
        -12    1    3    3    0    0  0.28736592874E+01  0.16429748528E+01  0.11385555283E+01  0.35005132135E+01  0.00000000000E+00 0.  1.
</event>
<event>
 7    1  0.5946946E-013  0.5052887E+02  0.7816164E-02  0.1300439E+00
        -11   -1    0    0    0    0  0.00000000000E+00  0.00000000000E+00  0.45593999997E+02  0.45594000000E+02  0.51100000000E-03 0. -1.
         11   -1    0    0    0    0 -0.00000000000E+00 -0.00000000000E+00 -0.45593999997E+02  0.45594000000E+02  0.51100000000E-03 0.  1.
    9900012    2    1    2    0    0  0.38150243593E+02  0.67771965836E+01 -0.12320448629E+02  0.50528868994E+02  0.30000027793E+02 0.  0.
         12    1    1    2    0    0 -0.38150243593E+02 -0.67771965836E+01  0.12320448629E+02  0.40659131006E+02  0.00000000000E+00 0. -1.
         11    1    3    3    0    0  0.75002279755E+01 -0.10111118510E+02 -0.26159940458E+01  0.12858132147E+02  0.51100000000E-03 0. -1.
        -11    1    3    3    0    0  0.21151748102E+02  0.14330486854E+02 -0.10869808820E+02  0.27765302903E+02  0.51100000000E-03 0.  1.
        -12    1    3    3    0    0  0.94982675162E+01  0.25578282397E+01  0.11653542366E+01  0.99054339435E+01  0.00000000000E+00 0.  1.
</event>
<event>
 7    1  0.5946946E-013  0.5052890E+02  0.7816164E-02  0.1300439E+00
        -11   -1    0    0    0    0  0.00000000000E+00  0.00000000000E+00  0.45593999997E+02  0.45594000000E+02  0.51100000000E-03 0.  1.
         11   -1    0    0    0    0 -0.00000000000E+00 -0.00000000000E+00 -0.45593999997E+02  0.45594000000E+02  0.51100000000E-03 0. -1.
    9900012    2    1    2    0    0 -0.81291759799E+01 -0.24189672031E+02  0.31653409750E+02  0.50528904045E+02  0.30000134336E+02 0.  0.
         12    1    1    2    0    0  0.81291759799E+01  0.24189672031E+02 -0.31653409750E+02  0.40659095955E+02  0.00000000000E+00 0. -1.
         11    1    3    3    0    0  0.50321776637E+01 -0.18066824381E+01  0.52141798166E+01  0.74682384063E+01  0.51100000000E-03 0. -1.
        -11    1    3    3    0    0 -0.15092263535E+02 -0.46262057620E+01  0.93827509543E+01  0.18363393317E+02  0.51100000000E-03 0.  1.
        -12    1    3    3    0    0  0.19309098916E+01 -0.17756783831E+02  0.17056478979E+02  0.24697272322E+02  0.00000000000E+00 0.  1.
</event>
<event>
 7    1  0.5946946E-013  0.5052884E+02  0.7816164E-02  0.1300439E+00
        -11   -1    0    0    0    0  0.00000000000E+00  0.00000000000E+00  0.45593999997E+02  0.45594000000E+02  0.51100000000E-03 0.  1.
         11   -1    0    0    0    0 -0.00000000000E+00 -0.00000000000E+00 -0.45593999997E+02  0.45594000000E+02  0.51100000000E-03 0. -1.
    9900012    2    1    2    0    0  0.69655162605E+01  0.37255804894E+02  0.14719178632E+02  0.50528835785E+02  0.29999926852E+02 0.  0.
         12    1    1    2    0    0 -0.69655162605E+01 -0.37255804894E+02 -0.14719178632E+02  0.40659164215E+02  0.00000000000E+00 0. -1.
         11    1    3    3    0    0  0.25116257648E+01  0.17142804623E+02 -0.10904427144E+01  0.17360100228E+02  0.51100000000E-03 0. -1.
        -11    1    3    3    0    0  0.24881472481E+01  0.20603148764E+02  0.19806584424E+02  0.28687652440E+02  0.51100000000E-03 0.  1.
        -12    1    3    3    0    0  0.19657432475E+01 -0.49014849322E+00 -0.39969630776E+01  0.44810831173E+01  0.00000000000E+00 0.  1.
</event>
<event>
 7    1  0.5946946E-013  0.5052886E+02  0.7816164E-02  0.1300439E+00
        -11   -1    0    0    0    0  0.00000000000E+00  0.00000000000E+00  0.45593999997E+02  0.45594000000E+02  0.51100000000E-03 0. -1.
         11   -1    0    0    0    0 -0.00000000000E+00 -0.00000000000E+00 -0.45593999997E+02  0.45594000000E+02  0.51100000000E-03 0.  1.
    9900012    2    1    2    0    0 -0.29028219633E+02  0.27942323686E+02  0.54547695675E+01  0.50528862047E+02  0.30000006678E+02 0.  0.
         12    1    1    2    0    0  0.29028219633E+02 -0.27942323686E+02 -0.54547695675E+01  0.40659137953E+02  0.00000000000E+00 0. -1.
         11    1    3    3    0    0 -0.22739466792E+02  0.21044879287E+02  0.12617859001E+02  0.33454157592E+02  0.51100000000E-03 0. -1.
        -11    1    3    3    0    0  0.23650834720E+01  0.93662867008E+00 -0.59820413677E+01  0.65004393914E+01  0.51100000000E-03 0.  1.
        -12    1    3    3    0    0 -0.86538363131E+01  0.59608157293E+01 -0.11810480662E+01  0.10574265063E+02  0.00000000000E+00 0.  1.
</event>
<event>
 7    1  0.5946946E-013  0.5052886E+02  0.7816164E-02  0.1300439E+00
        -11   -1    0    0    0    0  0.00000000000E+00  0.00000000000E+00  0.45593999997E+02  0.45594000000E+02  0.51100000000E-03 0. -1.
         11   -1    0    0    0    0 -0.00000000000E+00 -0.00000000000E+00 -0.45593999997E+02  0.45594000000E+02  0.51100000000E-03 0.  1.
    9900012    2    1    2    0    0  0.18527166022E+02  0.14675483574E+02 -0.33083833594E+02  0.50528859033E+02  0.29999997515E+02 0.  0.
         12    1    1    2    0    0 -0.18527166022E+02 -0.14675483574E+02  0.33083833594E+02  0.40659140967E+02  0.00000000000E+00 0. -1.
         11    1    3    3    0    0 -0.61829694898E+01  0.35300269196E+01 -0.12140463697E+02  0.14074127355E+02  0.51100000000E-03 0. -1.
        -11    1    3    3    0    0  0.15597941090E+02  0.12203637823E+02 -0.18155040486E+02  0.26866894828E+02  0.51100000000E-03 0.  1.
         12    1    3    3    0    0  0.91121944214E+01 -0.10581811684E+01 -0.27883294114E+01  0.95878368502E+01  0.00000000000E+00 0. -1.
</event>
<event>
 7    1  0.5946946E-013  0.5052886E+02  0.7816164E-02  0.1300439E+00
        -11   -1    0    0    0    0  0.00000000000E+00  0.00000000000E+00  0.45593999997E+02  0.45594000000E+02  0.51100000000E-03 0. -1.
         11   -1    0    0    0    0 -0.00000000000E+00 -0.00000000000E+00 -0.45593999997E+02  0.45594000000E+02  0.51100000000E-03 0.  1.
    9900012    2    1    2    0    0 -0.36713974277E+01  0.26762082179E+02 -0.30388768167E+02  0.50528862868E+02  0.30000009172E+02 0.  0.
         12    1    1    2    0    0  0.36713974277E+01 -0.26762082179E+02  0.30388768167E+02  0.40659137132E+02  0.00000000000E+00 0. -1.
         11    1    3    3    0    0 -0.22829716623E+01  0.10983680572E+02  0.33973129648E+01  0.11721558521E+02  0.51100000000E-03 0. -1.
        -11    1    3    3    0    0 -0.18602853153E+01  0.14725510979E+02 -0.19657344335E+02  0.24631535105E+02  0.51100000000E-03 0.  1.
         12    1    3    3    0    0  0.47185954991E+00  0.10528906274E+01 -0.14128736796E+02  0.14175769241E+02  0.00000000000E+00 0. -1.
</event>
<event>
 7    1  0.5946946E-013  0.5052887E+02  0.7816164E-02  0.1300439E+00
        -11   -1    0    0    0    0  0.00000000000E+00  0.00000000000E+00  0.45593999997E+02  0.45594000000E+02  0.51100000000E-03 0.  1.
         11   -1    0    0    0    0 -0.00000000000E+00 -0.00000000000E+00 -0.45593999997E+02  0.45594000000E+02  0.51100000000E-03 0. -1.
    9900012    2    1    2    0    0 -0.52228214761E+01 -0.75748715101E+01  0.39604396104E+02  0.50528871464E+02  0.30000035301E+02 0.  0.
         12    1    1    2    0    0  0.52228214761E+01  0.75748715101E+01 -0.39604396104E+02  0.40659128536E+02  0.00000000000E+00 0. -1.
         11    1    3    3    0    0 -0.21255176369E+01  0.58448152594E+01  0.19521142041E+02  0.20487915401E+02  0.51100000000E-03 0. -1.
        -11    1    3    3    0    0  0.13316625156E+01 -0.16747817528E+02  0.15034828125E+02  0.22545704114E+02  0.51100000000E-03 0.  1.
        -12    1    3    3    0    0 -0.44289663548E+01  0.33281307581E+01  0.50484259378E+01  0.74952519480E+01  0.00000000000E+00 0.  1.
</event>
<event>
 7    1  0.5946946E-013  0.5052886E+02  0.7816164E-02  0.1300439E+00
        -11   -1    0    0    0    0  0.00000000000E+00  0.00000000000E+00  0.45593999997E+02  0.45594000000E+02  0.51100000000E-03 0.  1.
         11   -1    0    0    0    0 -0.00000000000E+00 -0.00000000000E+00 -0.45593999997E+02  0.45594000000E+02  0.51100000000E-03 0. -1.
    9900012    2    1    2    0    0 -0.35808904133E+02 -0.48425300804E+01  0.18639692115E+02  0.50528857916E+02  0.29999994123E+02 0.  0.
         12    1    1    2    0    0  0.35808904133E+02  0.48425300804E+01 -0.18639692115E+02  0.40659142084E+02  0.00000000000E+00 0. -1.
         11    1    3    3    0    0 -0.13124500760E+02 -0.69606807747E+01  0.16286465491E+02  0.22044331596E+02  0.51100000000E-03 0.  1.
        -11    1    3    3    0    0 -0.23414309786E+02  0.55864333861E+01 -0.27339935594E+00  0.24073073925E+02  0.51100000000E-03 0. -1.
         12    1    3    3    0    0  0.72990641228E+00 -0.34682826918E+01  0.26266259804E+01  0.44114523960E+01  0.00000000000E+00 0. -1.
</event>
<event>
 7    1  0.5946946E-013  0.5052886E+02  0.7816164E-02  0.1300439E+00
        -11   -1    0    0    0    0  0.00000000000E+00  0.00000000000E+00  0.45593999997E+02  0.45594000000E+02  0.51100000000E-03 0. -1.
         11   -1    0    0    0    0 -0.00000000000E+00 -0.00000000000E+00 -0.45593999997E+02  0.45594000000E+02  0.51100000000E-03 0.  1.
    9900012    2    1    2    0    0 -0.40197898120E+02 -0.60132450120E+01  0.10656305245E+01  0.50528859610E+02  0.29999999271E+02 0.  0.
         12    1    1    2    0    0  0.40197898120E+02  0.60132450120E+01 -0.10656305245E+01  0.40659140390E+02  0.00000000000E+00 0. -1.
         11    1    3    3    0    0 -0.48426349625E+01 -0.52483019962E+00  0.37734196707E+01  0.61615952797E+01  0.51100000000E-03 0. -1.
        -11    1    3    3    0    0 -0.26343797560E+02 -0.15397630653E+02 -0.45364289609E+01  0.30849017611E+02  0.51100000000E-03 0.  1.
        -12    1    3    3    0    0 -0.90114655975E+01  0.99092158406E+01  0.18286398147E+01  0.13518246719E+02  0.00000000000E+00 0.  1.
</event>
<event>
 7    1  0.5946946E-013  0.5052884E+02  0.7816164E-02  0.1300439E+00
        -11   -1    0    0    0    0  0.00000000000E+00  0.00000000000E+00  0.45593999997E+02  0.45594000000E+02  0.51100000000E-03 0.  1.
         11   -1    0    0    0    0 -0.00000000000E+00 -0.00000000000E+00 -0.45593999997E+02  0.45594000000E+02  0.51100000000E-03 0. -1.
    9900012    2    1    2    0    0 -0.21989369480E+02  0.31931416336E+02  0.12248240595E+02  0.50528842151E+02  0.29999946201E+02 0.  0.
         12    1    1    2    0    0  0.21989369480E+02 -0.31931416336E+02 -0.12248240595E+02  0.40659157849E+02  0.00000000000E+00 0. -1.
         11    1    3    3    0    0 -0.39002154407E+01  0.51714638408E+00  0.16823335651E+01  0.42789446540E+01  0.51100000000E-03 0. -1.
        -11    1    3    3    0    0  0.46220891332E+01  0.18014168897E+02  0.55418007510E+01  0.19405812140E+02  0.51100000000E-03 0.  1.
        -12    1    3    3    0    0 -0.22711243172E+02  0.13400101055E+02  0.50241062790E+01  0.26844085357E+02  0.00000000000E+00 0.  1.
</event>
<event>
 7    1  0.5946946E-013  0.5052886E+02  0.7816164E-02  0.1300439E+00
        -11   -1    0    0    0    0  0.00000000000E+00  0.00000000000E+00  0.45593999997E+02  0.45594000000E+02  0.51100000000E-03 0.  1.
         11   -1    0    0    0    0 -0.00000000000E+00 -0.00000000000E+00 -0.45593999997E+02  0.45594000000E+02  0.51100000000E-03 0. -1.
    9900012    2    1    2    0    0  0.12234069623E+02 -0.30260341454E+02  0.24244685925E+02  0.50528861789E+02  0.30000005895E+02 0.  0.
         12    1    1    2    0    0 -0.12234069623E+02  0.30260341454E+02 -0.24244685925E+02  0.40659138211E+02  0.00000000000E+00 0. -1.
         11    1    3    3    0    0  0.17668754339E+02 -0.12666715336E+02  0.90518845332E+01  0.23549249907E+02  0.51100000000E-03 0.  1.
        -11    1    3    3    0    0 -0.74534058439E+01 -0.96483906352E+01  0.14209599681E+02  0.18723178787E+02  0.51100000000E-03 0. -1.
         12    1    3    3    0    0  0.20187211275E+01 -0.79452354827E+01  0.98320171085E+00  0.82564330961E+01  0.00000000000E+00 0. -1.
</event>
<event>
 7    1  0.5946946E-013  0.5052889E+02  0.7816164E-02  0.1300439E+00
        -11   -1    0    0    0    0  0.00000000000E+00  0.00000000000E+00  0.45593999997E+02  0.45594000000E+02  0.51100000000E-03 0.  1.
         11   -1    0    0    0    0 -0.00000000000E+00 -0.00000000000E+00 -0.45593999997E+02  0.45594000000E+02  0.51100000000E-03 0. -1.
    9900012    2    1    2    0    0 -0.23309197686E+02  0.15546670862E+02  0.29464315149E+02  0.50528886153E+02  0.30000079950E+02 0.  0.
         12    1    1    2    0    0  0.23309197686E+02 -0.15546670862E+02 -0.29464315149E+02  0.40659113847E+02  0.00000000000E+00 0. -1.
         11    1    3    3    0    0  0.19943136822E+01  0.21500564614E+01 -0.29617517889E+01  0.41679735808E+01  0.51100000000E-03 0. -1.
        -11    1    3    3    0    0 -0.19053345208E+02  0.18553436593E+01  0.13903904016E+02  0.23659898792E+02  0.51100000000E-03 0.  1.
        -12    1    3    3    0    0 -0.62501661604E+01  0.11541270741E+02  0.18522162922E+02  0.22701013780E+02  0.00000000000E+00 0.  1.
</event>
<event>
 7    1  0.5946946E-013  0.5052885E+02  0.7816164E-02  0.1300439E+00
        -11   -1    0    0    0    0  0.00000000000E+00  0.00000000000E+00  0.45593999997E+02  0.45594000000E+02  0.51100000000E-03 0.  1.
         11   -1    0    0    0    0 -0.00000000000E+00 -0.00000000000E+00 -0.45593999997E+02  0.45594000000E+02  0.51100000000E-03 0. -1.
    9900012    2    1    2    0    0 -0.21940251218E+01 -0.11853922350E+02  0.38830875903E+02  0.50528854108E+02  0.29999982547E+02 0.  0.
         12    1    1    2    0    0  0.21940251218E+01  0.11853922350E+02 -0.38830875903E+02  0.40659145892E+02  0.00000000000E+00 0. -1.
         11    1    3    3    0    0  0.19164768107E+01 -0.16232489007E+02  0.15229012039E+02  0.22340308653E+02  0.51100000000E-03 0. -1.
        -11    1    3    3    0    0 -0.58164506044E+01  0.73407251200E+01  0.83152415338E+01  0.12524399584E+02  0.51100000000E-03 0.  1.
         12    1    3    3    0    0  0.17059486720E+01 -0.29621584623E+01  0.15286622329E+02  0.15664145871E+02  0.00000000000E+00 0. -1.
</event>
<event>
 7    1  0.5946946E-013  0.5052884E+02  0.7816164E-02  0.1300439E+00
        -11   -1    0    0    0    0  0.00000000000E+00  0.00000000000E+00  0.45593999997E+02  0.45594000000E+02  0.51100000000E-03 0.  1.
         11   -1    0    0    0    0 -0.00000000000E+00 -0.00000000000E+00 -0.45593999997E+02  0.45594000000E+02  0.51100000000E-03 0. -1.
    9900012    2    1    2    0    0  0.14290957773E+02  0.18880377402E+02  0.33052485090E+02  0.50528844874E+02  0.29999954480E+02 0.  0.
         12    1    1    2    0    0 -0.14290957773E+02 -0.18880377402E+02 -0.33052485090E+02  0.40659155126E+02  0.00000000000E+00 0. -1.
         11    1    3    3    0    0  0.15502705194E+01  0.10995409606E+02  0.28826235893E+01  0.11472222544E+02  0.51100000000E-03 0. -1.
        -11    1    3    3    0    0  0.11091972255E+02  0.81240065648E+01  0.33012878371E+02  0.35761452288E+02  0.51100000000E-03 0.  1.
        -12    1    3    3    0    0  0.16487149993E+01 -0.23903876856E+00 -0.28430168705E+01  0.32951700423E+01  0.00000000000E+00 0.  1.
</event>
<event>
 7    1  0.5946946E-013  0.5052883E+02  0.7816164E-02  0.1300439E+00
        -11   -1    0    0    0    0  0.00000000000E+00  0.00000000000E+00  0.45593999997E+02  0.45594000000E+02  0.51100000000E-03 0.  1.
         11   -1    0    0    0    0 -0.00000000000E+00 -0.00000000000E+00 -0.45593999997E+02  0.45594000000E+02  0.51100000000E-03 0. -1.
    9900012    2    1    2    0    0 -0.19321809124E+02 -0.13154709521E+02  0.33268441087E+02  0.50528832980E+02  0.29999918325E+02 0.  0.
         12    1    1    2    0    0  0.19321809124E+02  0.13154709521E+02 -0.33268441087E+02  0.40659167020E+02  0.00000000000E+00 0. -1.
         11    1    3    3    0    0 -0.84152194057E+01  0.22657583737E+01  0.12559946362E+02  0.15287309493E+02  0.51100000000E-03 0. -1.
        -11    1    3    3    0    0 -0.12104546143E+02 -0.18968418439E+02  0.11434918246E+02  0.25240409881E+02  0.51100000000E-03 0.  1.
        -12    1    3    3    0    0  0.11979564243E+01  0.35479505437E+01  0.92735764789E+01  0.10001113606E+02  0.00000000000E+00 0.  1.
</event>
<event>
 7    1  0.5946946E-013  0.5052886E+02  0.7816164E-02  0.1300439E+00
        -11   -1    0    0    0    0  0.00000000000E+00  0.00000000000E+00  0.45593999997E+02  0.45594000000E+02  0.51100000000E-03 0.  1.
         11   -1    0    0    0    0 -0.00000000000E+00 -0.00000000000E+00 -0.45593999997E+02  0.45594000000E+02  0.51100000000E-03 0. -1.
    9900012    2    1    2    0    0  0.35733255076E+02  0.37792898765E+01  0.19026748635E+02  0.50528859405E+02  0.29999998647E+02 0.  0.
         12    1    1    2    0    0 -0.35733255076E+02 -0.37792898765E+01 -0.19026748635E+02  0.40659140595E+02  0.00000000000E+00 0. -1.
         11    1    3    3    0    0  0.15170489851E+02 -0.11750784662E+02  0.14752587367E+02  0.24204618088E+02  0.51100000000E-03 0. -1.
        -11    1    3    3    0    0  0.86978570478E+01  0.46559596738E+01  0.20610011779E+01  0.10078611205E+02  0.51100000000E-03 0.  1.
         12    1    3    3    0    0  0.11864908177E+02  0.10874114865E+02  0.22131600903E+01  0.16245630112E+02  0.00000000000E+00 0. -1.
</event>
<event>
 7    1  0.5946946E-013  0.5052886E+02  0.7816164E-02  0.1300439E+00
        -11   -1    0    0    0    0  0.00000000000E+00  0.00000000000E+00  0.45593999997E+02  0.45594000000E+02  0.51100000000E-03 0.  1.
         11   -1    0    0    0    0 -0.00000000000E+00 -0.00000000000E+00 -0.45593999997E+02  0.45594000000E+02  0.51100000000E-03 0. -1.
    9900012    2    1    2    0    0  0.32011938879E+02 -0.14915510491E+02  0.20147675357E+02  0.50528861958E+02  0.30000006408E+02 0.  0.
         12    1    1    2    0    0 -0.32011938879E+02  0.14915510491E+02 -0.20147675357E+02  0.40659138042E+02  0.00000000000E+00 0. -1.
         11    1    3    3    0    0  0.11900777168E+02  0.72152624072E+01  0.56015706920E+01  0.15002203281E+02  0.51100000000E-03 0. -1.
        -11    1    3    3    0    0  0.14790768747E+02 -0.20255230812E+02  0.68774494889E+01  0.26006547774E+02  0.51100000000E-03 0.  1.
        -12    1    3    3    0    0  0.53203929640E+01 -0.18755420865E+01  0.76686551763E+01  0.95201109039E+01  0.00000000000E+00 0.  1.
</event>
<event>
 7    1  0.7778783E-013  0.5052887E+02  0.7816164E-02  0.1300439E+00
        -11   -1    0    0    0    0  0.00000000000E+00  0.00000000000E+00  0.45593999997E+02  0.45594000000E+02  0.51100000000E-03 0.  1.
         11   -1    0    0    0    0 -0.00000000000E+00 -0.00000000000E+00 -0.45593999997E+02  0.45594000000E+02  0.51100000000E-03 0. -1.
    9900012    2    1    2    0    0  0.22133232756E+02 -0.15287984797E+02  0.30488728608E+02  0.50528867650E+02  0.30000023708E+02 0.  0.
         12    1    1    2    0    0 -0.22133232756E+02  0.15287984797E+02 -0.30488728608E+02  0.40659132350E+02  0.00000000000E+00 0. -1.
         11    1    3    3    0    0  0.58925192982E+01  0.89122146597E+00 -0.20970174577E+01  0.63177165068E+01  0.51100000000E-03 0. -1.
        -11    1    3    3    0    0 -0.17562052349E+01 -0.35020592074E+01  0.16468536752E+02  0.16928123892E+02  0.51100000000E-03 0.  1.
        -12    1    3    3    0    0  0.17996918693E+02 -0.12677147055E+02  0.16117209314E+02  0.27283027251E+02  0.00000000000E+00 0.  1.
</event>
<event>
 7    1  0.5946946E-013  0.5052886E+02  0.7816164E-02  0.1300439E+00
        -11   -1    0    0    0    0  0.00000000000E+00  0.00000000000E+00  0.45593999997E+02  0.45594000000E+02  0.51100000000E-03 0.  1.
         11   -1    0    0    0    0 -0.00000000000E+00 -0.00000000000E+00 -0.45593999997E+02  0.45594000000E+02  0.51100000000E-03 0. -1.
    9900012    2    1    2    0    0 -0.16130700746E+02 -0.33835080125E+02  0.15752887645E+02  0.50528860526E+02  0.30000002054E+02 0.  0.
         12    1    1    2    0    0  0.16130700746E+02  0.33835080125E+02 -0.15752887645E+02  0.40659139474E+02  0.00000000000E+00 0. -1.
         11    1    3    3    0    0 -0.10172853925E+02 -0.34154313931E+01 -0.57774664367E+00  0.10746437551E+02  0.51100000000E-03 0. -1.
        -11    1    3    3    0    0  0.65647212567E+01 -0.14263185290E+02  0.87917935511E+01  0.17995267542E+02  0.51100000000E-03 0.  1.
        -12    1    3    3    0    0 -0.12522568077E+02 -0.16156463442E+02  0.75388407374E+01  0.21787155433E+02  0.00000000000E+00 0.  1.
</event>
<event>
 7    1  0.5946946E-013  0.5052885E+02  0.7816164E-02  0.1300439E+00
        -11   -1    0    0    0    0  0.00000000000E+00  0.00000000000E+00  0.45593999997E+02  0.45594000000E+02  0.51100000000E-03 0.  1.
         11   -1    0    0    0    0 -0.00000000000E+00 -0.00000000000E+00 -0.45593999997E+02  0.45594000000E+02  0.51100000000E-03 0. -1.
    9900012    2    1    2    0    0 -0.38622177163E+02  0.10542915717E+02  0.70951260958E+01  0.50528850293E+02  0.29999970950E+02 0.  0.
         12    1    1    2    0    0  0.38622177163E+02 -0.10542915717E+02 -0.70951260958E+01  0.40659149707E+02  0.00000000000E+00 0. -1.
         11    1    3    3    0    0 -0.26693388772E+02  0.19932335367E+02  0.93074457394E+01  0.34589934139E+02  0.51100000000E-03 0.  1.
        -11    1    3    3    0    0 -0.99456421208E+01 -0.63294517580E+01 -0.23571850573E+00  0.11791239130E+02  0.51100000000E-03 0. -1.
        -12    1    3    3    0    0 -0.19831462703E+01 -0.30599678923E+01 -0.19766011379E+01  0.41476770233E+01  0.00000000000E+00 0.  1.
</event>
<event>
 7    1  0.5946946E-013  0.5052886E+02  0.7816164E-02  0.1300439E+00
        -11   -1    0    0    0    0  0.00000000000E+00  0.00000000000E+00  0.45593999997E+02  0.45594000000E+02  0.51100000000E-03 0. -1.
         11   -1    0    0    0    0 -0.00000000000E+00 -0.00000000000E+00 -0.45593999997E+02  0.45594000000E+02  0.51100000000E-03 0.  1.
    9900012    2    1    2    0    0  0.37897751982E+02  0.14632394105E+02 -0.16789411833E+01  0.50528863192E+02  0.30000010157E+02 0.  0.
         12    1    1    2    0    0 -0.37897751982E+02 -0.14632394105E+02  0.16789411833E+01  0.40659136808E+02  0.00000000000E+00 0. -1.
         11    1    3    3    0    0  0.19115868010E+02  0.10190099102E+02  0.11200598270E+02  0.24386634276E+02  0.51100000000E-03 0. -1.
        -11    1    3    3    0    0  0.17651092519E+02 -0.37381298308E+00 -0.11245271324E+02  0.20932198419E+02  0.51100000000E-03 0.  1.
         12    1    3    3    0    0  0.11307914530E+01  0.48161079864E+01 -0.16342681297E+01  0.52100304958E+01  0.00000000000E+00 0. -1.
</event>
<event>
 7    1  0.5946946E-013  0.5052886E+02  0.7816164E-02  0.1300439E+00
        -11   -1    0    0    0    0  0.00000000000E+00  0.00000000000E+00  0.45593999997E+02  0.45594000000E+02  0.51100000000E-03 0. -1.
         11   -1    0    0    0    0 -0.00000000000E+00 -0.00000000000E+00 -0.45593999997E+02  0.45594000000E+02  0.51100000000E-03 0.  1.
    9900012    2    1    2    0    0  0.42045842845E+01  0.27672527043E+01 -0.40346371861E+02  0.50528856639E+02  0.29999990240E+02 0.  0.
         12    1    1    2    0    0 -0.42045842845E+01 -0.27672527043E+01  0.40346371861E+02  0.40659143361E+02  0.00000000000E+00 0. -1.
         11    1    3    3    0    0  0.53734477221E+01  0.46635552250E+01 -0.73760962655E+01  0.10248389344E+02  0.51100000000E-03 0. -1.
        -11    1    3    3    0    0 -0.11054048698E+02 -0.26270442894E+01 -0.95261884821E+01  0.14827057077E+02  0.51100000000E-03 0.  1.
        -12    1    3    3    0    0  0.98851852605E+01  0.73074176870E+00 -0.23444087113E+02  0.25453410218E+02  0.00000000000E+00 0.  1.
</event>
<event>
 7    1  0.5946946E-013  0.5052886E+02  0.7816164E-02  0.1300439E+00
        -11   -1    0    0    0    0  0.00000000000E+00  0.00000000000E+00  0.45593999997E+02  0.45594000000E+02  0.51100000000E-03 0.  1.
         11   -1    0    0    0    0 -0.00000000000E+00 -0.00000000000E+00 -0.45593999997E+02  0.45594000000E+02  0.51100000000E-03 0. -1.
    9900012    2    1    2    0    0 -0.34785129851E+01 -0.38592193087E+02  0.12316980177E+02  0.50528863013E+02  0.30000009614E+02 0.  0.
         12    1    1    2    0    0  0.34785129851E+01  0.38592193087E+02 -0.12316980177E+02  0.40659136987E+02  0.00000000000E+00 0. -1.
         11    1    3    3    0    0  0.77803531106E+01 -0.24937137628E+01 -0.28337037146E+01  0.86476806058E+01  0.51100000000E-03 0. -1.
        -11    1    3    3    0    0 -0.97846638701E+00 -0.70926268208E+01  0.70743686815E+01  0.10065259271E+02  0.51100000000E-03 0.  1.
         12    1    3    3    0    0 -0.10280399709E+02 -0.29005852503E+02  0.80763152102E+01  0.31815923136E+02  0.00000000000E+00 0. -1.
</event>
<event>
 7    1  0.5946946E-013  0.5052886E+02  0.7816164E-02  0.1300439E+00
        -11   -1    0    0    0    0  0.00000000000E+00  0.00000000000E+00  0.45593999997E+02  0.45594000000E+02  0.51100000000E-03 0. -1.
         11   -1    0    0    0    0 -0.00000000000E+00 -0.00000000000E+00 -0.45593999997E+02  0.45594000000E+02  0.51100000000E-03 0.  1.
    9900012    2    1    2    0    0 -0.62494354867E+01  0.15693302110E+01 -0.40145325397E+02  0.50528863358E+02  0.30000010663E+02 0.  0.
         12    1    1    2    0    0  0.62494354867E+01 -0.15693302110E+01  0.40145325397E+02  0.40659136642E+02  0.00000000000E+00 0. -1.
         11    1    3    3    0    0  0.92667365531E+00  0.91745124036E+01 -0.99316445973E+01  0.13552415525E+02  0.51100000000E-03 0. -1.
        -11    1    3    3    0    0  0.26262653671E+01 -0.10194102363E+02 -0.10840299062E+02  0.15110561762E+02  0.51100000000E-03 0.  1.
        -12    1    3    3    0    0 -0.98023745090E+01  0.25889201701E+01 -0.19373381738E+02  0.21865886070E+02  0.00000000000E+00 0.  1.
</event>
<event>
 7    1  0.5946946E-013  0.5052886E+02  0.7816164E-02  0.1300439E+00
        -11   -1    0    0    0    0  0.00000000000E+00  0.00000000000E+00  0.45593999997E+02  0.45594000000E+02  0.51100000000E-03 0.  1.
         11   -1    0    0    0    0 -0.00000000000E+00 -0.00000000000E+00 -0.45593999997E+02  0.45594000000E+02  0.51100000000E-03 0. -1.
    9900012    2    1    2    0    0 -0.19691238107E+02 -0.35497975337E+02  0.23053234908E+01  0.50528860466E+02  0.30000001873E+02 0.  0.
         12    1    1    2    0    0  0.19691238107E+02  0.35497975337E+02 -0.23053234908E+01  0.40659139534E+02  0.00000000000E+00 0. -1.
         11    1    3    3    0    0  0.23472191596E+01 -0.16846343459E+02 -0.36658129365E+01  0.17399623860E+02  0.51100000000E-03 0. -1.
        -11    1    3    3    0    0 -0.22315533114E+02 -0.14722283583E+02  0.95522500718E+00  0.26751469252E+02  0.51100000000E-03 0.  1.
        -12    1    3    3    0    0  0.27707584690E+00 -0.39293482953E+01  0.50159114201E+01  0.63777673543E+01  0.00000000000E+00 0.  1.
</event>
<event>
 7    1  0.5946946E-013  0.5052885E+02  0.7816164E-02  0.1300439E+00
        -11   -1    0    0    0    0  0.00000000000E+00  0.00000000000E+00  0.45593999997E+02  0.45594000000E+02  0.51100000000E-03 0.  1.
         11   -1    0    0    0    0 -0.00000000000E+00 -0.00000000000E+00 -0.45593999997E+02  0.45594000000E+02  0.51100000000E-03 0. -1.
    9900012    2    1    2    0    0  0.38829104989E+02 -0.11737872658E+02  0.27730433814E+01  0.50528845823E+02  0.29999957363E+02 0.  0.
         12    1    1    2    0    0 -0.38829104989E+02  0.11737872658E+02 -0.27730433814E+01  0.40659154177E+02  0.00000000000E+00 0. -1.
         11    1    3    3    0    0  0.12526142064E+02  0.82275306703E+00 -0.10485171937E+02  0.16356038287E+02  0.51100000000E-03 0. -1.
        -11    1    3    3    0    0  0.22969531152E+02 -0.14770341044E+02  0.12759695115E+02  0.30142530676E+02  0.51100000000E-03 0.  1.
        -12    1    3    3    0    0  0.33334317736E+01  0.22097153185E+01  0.49852020405E+00  0.40302768604E+01  0.00000000000E+00 0.  1.
</event>
<event>
 7    1  0.5946946E-013  0.5052885E+02  0.7816164E-02  0.1300439E+00
        -11   -1    0    0    0    0  0.00000000000E+00  0.00000000000E+00  0.45593999997E+02  0.45594000000E+02  0.51100000000E-03 0.  1.
         11   -1    0    0    0    0 -0.00000000000E+00 -0.00000000000E+00 -0.45593999997E+02  0.45594000000E+02  0.51100000000E-03 0. -1.
    9900012    2    1    2    0    0  0.17197962271E+02  0.26868427979E+02  0.25208804139E+02  0.50528854233E+02  0.29999982927E+02 0.  0.
         12    1    1    2    0    0 -0.17197962271E+02 -0.26868427979E+02 -0.25208804139E+02  0.40659145767E+02  0.00000000000E+00 0. -1.
         11    1    3    3    0    0  0.11405321345E+02  0.28025704044E+02  0.11145765301E+02  0.32245147333E+02  0.51100000000E-03 0. -1.
        -11    1    3    3    0    0  0.44486609755E+01 -0.55166670476E+01  0.78499780325E+01  0.10575743717E+02  0.51100000000E-03 0.  1.
         12    1    3    3    0    0  0.13439799509E+01  0.43593909827E+01  0.62130608061E+01  0.77079631829E+01  0.00000000000E+00 0. -1.
</event>
<event>
 7    1  0.5946946E-013  0.5052885E+02  0.7816164E-02  0.1300439E+00
        -11   -1    0    0    0    0  0.00000000000E+00  0.00000000000E+00  0.45593999997E+02  0.45594000000E+02  0.51100000000E-03 0. -1.
         11   -1    0    0    0    0 -0.00000000000E+00 -0.00000000000E+00 -0.45593999997E+02  0.45594000000E+02  0.51100000000E-03 0.  1.
    9900012    2    1    2    0    0  0.11671436708E+02 -0.38789143521E+02 -0.35137061804E+01  0.50528853169E+02  0.29999979692E+02 0.  0.
         12    1    1    2    0    0 -0.11671436708E+02  0.38789143521E+02  0.35137061804E+01  0.40659146831E+02  0.00000000000E+00 0. -1.
         11    1    3    3    0    0  0.44532100929E+01 -0.17741019310E+02  0.80778211021E+01  0.19995650535E+02  0.51100000000E-03 0. -1.
        -11    1    3    3    0    0  0.77348941065E+01 -0.15399404311E+01 -0.68601051149E+01  0.10452800860E+02  0.51100000000E-03 0.  1.
         12    1    3    3    0    0 -0.51666749138E+00 -0.19508183779E+02 -0.47314221676E+01  0.20080401774E+02  0.00000000000E+00 0. -1.
</event>
<event>
 7    1  0.5946946E-013  0.5052888E+02  0.7816164E-02  0.1300439E+00
        -11   -1    0    0    0    0  0.00000000000E+00  0.00000000000E+00  0.45593999997E+02  0.45594000000E+02  0.51100000000E-03 0.  1.
         11   -1    0    0    0    0 -0.00000000000E+00 -0.00000000000E+00 -0.45593999997E+02  0.45594000000E+02  0.51100000000E-03 0. -1.
    9900012    2    1    2    0    0  0.30951810503E+02 -0.19295803638E+02  0.17967240753E+02  0.50528876157E+02  0.30000049566E+02 0.  0.
         12    1    1    2    0    0 -0.30951810503E+02  0.19295803638E+02 -0.17967240753E+02  0.40659123843E+02  0.00000000000E+00 0. -1.
         11    1    3    3    0    0 -0.17448884425E+01  0.75182822640E+00  0.39247248003E+01  0.43604296094E+01  0.51100000000E-03 0. -1.
        -11    1    3    3    0    0  0.13762587289E+02 -0.25593218341E+01 -0.41722678804E+01  0.14607078992E+02  0.51100000000E-03 0.  1.
        -12    1    3    3    0    0  0.18934111656E+02 -0.17488310030E+02  0.18214783833E+02  0.31561367556E+02  0.00000000000E+00 0.  1.
</event>
<event>
 7    1  0.5946946E-013  0.5052893E+02  0.7816164E-02  0.1300439E+00
        -11   -1    0    0    0    0  0.00000000000E+00  0.00000000000E+00  0.45593999997E+02  0.45594000000E+02  0.51100000000E-03 0. -1.
         11   -1    0    0    0    0 -0.00000000000E+00 -0.00000000000E+00 -0.45593999997E+02  0.45594000000E+02  0.51100000000E-03 0.  1.
    9900012    2    1    2    0    0 -0.11399292809E+02  0.27326272607E+02 -0.27865587410E+02  0.50528929513E+02  0.30000211747E+02 0.  0.
         12    1    1    2    0    0  0.11399292809E+02 -0.27326272607E+02  0.27865587410E+02  0.40659070487E+02  0.00000000000E+00 0. -1.
         11    1    3    3    0    0  0.15829051730E+01 -0.15802427284E+01 -0.97399167196E+01  0.99934345364E+01  0.51100000000E-03 0. -1.
        -11    1    3    3    0    0 -0.15666076769E+02  0.13700722401E+02 -0.10720246593E+02  0.23410669425E+02  0.51100000000E-03 0.  1.
        -12    1    3    3    0    0  0.26838787875E+01  0.15205792934E+02 -0.74054240974E+01  0.17124825551E+02  0.00000000000E+00 0.  1.
</event>
<event>
 7    1  0.5946946E-013  0.5052885E+02  0.7816164E-02  0.1300439E+00
        -11   -1    0    0    0    0  0.00000000000E+00  0.00000000000E+00  0.45593999997E+02  0.45594000000E+02  0.51100000000E-03 0. -1.
         11   -1    0    0    0    0 -0.00000000000E+00 -0.00000000000E+00 -0.45593999997E+02  0.45594000000E+02  0.51100000000E-03 0.  1.
    9900012    2    1    2    0    0  0.14284661479E+02  0.22043237628E+02 -0.31035628647E+02  0.50528854360E+02  0.29999983312E+02 0.  0.
         12    1    1    2    0    0 -0.14284661479E+02 -0.22043237628E+02  0.31035628647E+02  0.40659145640E+02  0.00000000000E+00 0. -1.
         11    1    3    3    0    0  0.44796592899E+01  0.12293036198E+02 -0.12575851064E+01  0.13144109208E+02  0.51100000000E-03 0. -1.
        -11    1    3    3    0    0  0.45007726062E-02  0.12203276435E+01 -0.22420135087E+02  0.22453322191E+02  0.51100000000E-03 0.  1.
         12    1    3    3    0    0  0.98005014168E+01  0.85298737864E+01 -0.73579084531E+01  0.14931422961E+02  0.00000000000E+00 0. -1.
</event>
<event>
 7    1  0.5946946E-013  0.5052886E+02  0.7816164E-02  0.1300439E+00
        -11   -1    0    0    0    0  0.00000000000E+00  0.00000000000E+00  0.45593999997E+02  0.45594000000E+02  0.51100000000E-03 0. -1.
         11   -1    0    0    0    0 -0.00000000000E+00 -0.00000000000E+00 -0.45593999997E+02  0.45594000000E+02  0.51100000000E-03 0.  1.
    9900012    2    1    2    0    0  0.35317643365E+02  0.19484137026E+02 -0.51184197352E+01  0.50528858972E+02  0.29999997332E+02 0.  0.
         12    1    1    2    0    0 -0.35317643365E+02 -0.19484137026E+02  0.51184197352E+01  0.40659141028E+02  0.00000000000E+00 0. -1.
         11    1    3    3    0    0  0.39710812905E+01  0.72563472984E+01 -0.51038868834E+01  0.97197594780E+01  0.51100000000E-03 0. -1.
        -11    1    3    3    0    0  0.34015246090E+01 -0.24277859480E+01  0.73054536668E+01  0.84163036907E+01  0.51100000000E-03 0.  1.
        -12    1    3    3    0    0  0.27945037466E+02  0.14655575676E+02 -0.73199865186E+01  0.32392795804E+02  0.00000000000E+00 0.  1.
</event>
<event>
 7    1  0.5946946E-013  0.5052886E+02  0.7816164E-02  0.1300439E+00
        -11   -1    0    0    0    0  0.00000000000E+00  0.00000000000E+00  0.45593999997E+02  0.45594000000E+02  0.51100000000E-03 0. -1.
         11   -1    0    0    0    0 -0.00000000000E+00 -0.00000000000E+00 -0.45593999997E+02  0.45594000000E+02  0.51100000000E-03 0.  1.
    9900012    2    1    2    0    0 -0.34009275677E+02 -0.87549599210E+01 -0.20491102808E+02  0.50528862656E+02  0.30000008528E+02 0.  0.
         12    1    1    2    0    0  0.34009275677E+02  0.87549599210E+01  0.20491102808E+02  0.40659137344E+02  0.00000000000E+00 0. -1.
         11    1    3    3    0    0 -0.37620456855E+01 -0.74100952480E+01  0.60380392833E+01  0.10272313175E+02  0.51100000000E-03 0. -1.
        -11    1    3    3    0    0 -0.92350634536E+01 -0.52927642443E+00 -0.82009965214E+01  0.12362154939E+02  0.51100000000E-03 0.  1.
         12    1    3    3    0    0 -0.21012166538E+02 -0.81558824858E+00 -0.18328145569E+02  0.27894394541E+02  0.00000000000E+00 0. -1.
</event>
<event>
 7    1  0.5946946E-013  0.5052886E+02  0.7816164E-02  0.1300439E+00
        -11   -1    0    0    0    0  0.00000000000E+00  0.00000000000E+00  0.45593999997E+02  0.45594000000E+02  0.51100000000E-03 0.  1.
         11   -1    0    0    0    0 -0.00000000000E+00 -0.00000000000E+00 -0.45593999997E+02  0.45594000000E+02  0.51100000000E-03 0. -1.
    9900012    2    1    2    0    0  0.36273083470E+02  0.17148472427E+02 -0.65847761349E+01  0.50528856283E+02  0.29999989159E+02 0.  0.
         12    1    1    2    0    0 -0.36273083470E+02 -0.17148472427E+02  0.65847761349E+01  0.40659143717E+02  0.00000000000E+00 0. -1.
         11    1    3    3    0    0  0.77970695238E+01  0.92348955431E+01 -0.78919635710E+01  0.14434703950E+02  0.51100000000E-03 0. -1.
        -11    1    3    3    0    0  0.15936154081E+02 -0.56496208726E+01  0.41372593405E+01  0.17406784253E+02  0.51100000000E-03 0.  1.
         12    1    3    3    0    0  0.12539859865E+02  0.13563197756E+02 -0.28300719044E+01  0.18687368081E+02  0.00000000000E+00 0. -1.
</event>
<event>
 7    1  0.5946946E-013  0.5052885E+02  0.7816164E-02  0.1300439E+00
        -11   -1    0    0    0    0  0.00000000000E+00  0.00000000000E+00  0.45593999997E+02  0.45594000000E+02  0.51100000000E-03 0.  1.
         11   -1    0    0    0    0 -0.00000000000E+00 -0.00000000000E+00 -0.45593999997E+02  0.45594000000E+02  0.51100000000E-03 0. -1.
    9900012    2    1    2    0    0  0.23670259095E+02 -0.32999453597E+02  0.19802269676E+01  0.50528850942E+02  0.29999972922E+02 0.  0.
         12    1    1    2    0    0 -0.23670259095E+02  0.32999453597E+02 -0.19802269676E+01  0.40659149058E+02  0.00000000000E+00 0. -1.
         11    1    3    3    0    0 -0.57932320270E+00 -0.14918094828E+02  0.18610636173E+01  0.15044890386E+02  0.51100000000E-03 0. -1.
        -11    1    3    3    0    0  0.15315112641E+02 -0.30523211435E+01  0.64402869647E+01  0.16892206369E+02  0.51100000000E-03 0.  1.
        -12    1    3    3    0    0  0.89344696566E+01 -0.15029037625E+02 -0.63211236144E+01  0.18591754186E+02  0.00000000000E+00 0.  1.
</event>
<event>
 7    1  0.5946946E-013  0.5052888E+02  0.7816164E-02  0.1300439E+00
        -11   -1    0    0    0    0  0.00000000000E+00  0.00000000000E+00  0.45593999997E+02  0.45594000000E+02  0.51100000000E-03 0.  1.
         11   -1    0    0    0    0 -0.00000000000E+00 -0.00000000000E+00 -0.45593999997E+02  0.45594000000E+02  0.51100000000E-03 0. -1.
    9900012    2    1    2    0    0  0.16312402839E+02  0.25484953464E+02  0.27158548018E+02  0.50528879622E+02  0.30000060099E+02 0.  0.
         12    1    1    2    0    0 -0.16312402839E+02 -0.25484953464E+02 -0.27158548018E+02  0.40659120378E+02  0.00000000000E+00 0. -1.
         11    1    3    3    0    0 -0.87465430123E+00  0.32054306728E+01 -0.57412903415E+00  0.33718585905E+01  0.51100000000E-03 0. -1.
        -11    1    3    3    0    0  0.20268128710E+02  0.70782250566E+01  0.10263205334E+02  0.23795623450E+02  0.51100000000E-03 0.  1.
        -12    1    3    3    0    0 -0.30810715702E+01  0.15201297735E+02  0.17469471719E+02  0.23361397582E+02  0.00000000000E+00 0.  1.
</event>
<event>
 7    1  0.5946946E-013  0.5052886E+02  0.7816164E-02  0.1300439E+00
        -11   -1    0    0    0    0  0.00000000000E+00  0.00000000000E+00  0.45593999997E+02  0.45594000000E+02  0.51100000000E-03 0.  1.
         11   -1    0    0    0    0 -0.00000000000E+00 -0.00000000000E+00 -0.45593999997E+02  0.45594000000E+02  0.51100000000E-03 0. -1.
    9900012    2    1    2    0    0  0.81735966804E+00 -0.37973865212E+02  0.14508034583E+02  0.50528861009E+02  0.30000003524E+02 0.  0.
         12    1    1    2    0    0 -0.81735966804E+00  0.37973865212E+02 -0.14508034583E+02  0.40659138991E+02  0.00000000000E+00 0. -1.
         11    1    3    3    0    0 -0.11972017942E+02 -0.95334679857E+01  0.32604951894E+00  0.15307597263E+02  0.51100000000E-03 0. -1.
        -11    1    3    3    0    0  0.98932652900E+01 -0.25970613858E+02  0.14598841619E+02  0.31392286618E+02  0.51100000000E-03 0.  1.
         12    1    3    3    0    0  0.28961123196E+01 -0.24697833689E+01 -0.41685655517E+00  0.38289771277E+01  0.00000000000E+00 0. -1.
</event>
<event>
 7    1  0.5946946E-013  0.5052887E+02  0.7816164E-02  0.1300439E+00
        -11   -1    0    0    0    0  0.00000000000E+00  0.00000000000E+00  0.45593999997E+02  0.45594000000E+02  0.51100000000E-03 0. -1.
         11   -1    0    0    0    0 -0.00000000000E+00 -0.00000000000E+00 -0.45593999997E+02  0.45594000000E+02  0.51100000000E-03 0.  1.
    9900012    2    1    2    0    0 -0.31512376223E+02 -0.23508537153E+02 -0.10367445350E+02  0.50528866987E+02  0.30000021693E+02 0.  0.
         12    1    1    2    0    0  0.31512376223E+02  0.23508537153E+02  0.10367445350E+02  0.40659133013E+02  0.00000000000E+00 0. -1.
         11    1    3    3    0    0 -0.85036727513E+01 -0.15040652052E+01 -0.76443077389E+01  0.11533000627E+02  0.51100000000E-03 0. -1.
        -11    1    3    3    0    0  0.21989849568E+01 -0.64937917730E+01  0.49065463733E+01  0.84308400534E+01  0.51100000000E-03 0.  1.
        -12    1    3    3    0    0 -0.25207688429E+02 -0.15510680175E+02 -0.76296839844E+01  0.30565026306E+02  0.00000000000E+00 0.  1.
</event>
<event>
 7    1  0.5946946E-013  0.5052885E+02  0.7816164E-02  0.1300439E+00
        -11   -1    0    0    0    0  0.00000000000E+00  0.00000000000E+00  0.45593999997E+02  0.45594000000E+02  0.51100000000E-03 0. -1.
         11   -1    0    0    0    0 -0.00000000000E+00 -0.00000000000E+00 -0.45593999997E+02  0.45594000000E+02  0.51100000000E-03 0.  1.
    9900012    2    1    2    0    0 -0.22894900757E+02  0.32855650624E+02 -0.70353396032E+01  0.50528852666E+02  0.29999978164E+02 0.  0.
         12    1    1    2    0    0  0.22894900757E+02 -0.32855650624E+02  0.70353396032E+01  0.40659147334E+02  0.00000000000E+00 0. -1.
         11    1    3    3    0    0 -0.16532660678E+02  0.16904698352E+02  0.65543806938E+01  0.24536862106E+02  0.51100000000E-03 0. -1.
        -11    1    3    3    0    0 -0.73028547820E+01  0.17941200615E+02 -0.10047128311E+02  0.21821163009E+02  0.51100000000E-03 0.  1.
         12    1    3    3    0    0  0.94061470236E+00 -0.19902483440E+01 -0.35425919858E+01  0.41708275518E+01  0.00000000000E+00 0. -1.
</event>
<event>
 7    1  0.5946946E-013  0.5052886E+02  0.7816164E-02  0.1300439E+00
        -11   -1    0    0    0    0  0.00000000000E+00  0.00000000000E+00  0.45593999997E+02  0.45594000000E+02  0.51100000000E-03 0.  1.
         11   -1    0    0    0    0 -0.00000000000E+00 -0.00000000000E+00 -0.45593999997E+02  0.45594000000E+02  0.51100000000E-03 0. -1.
    9900012    2    1    2    0    0 -0.14223604546E+02 -0.16684760255E+02  0.34241400127E+02  0.50528860391E+02  0.30000001645E+02 0.  0.
         12    1    1    2    0    0  0.14223604546E+02  0.16684760255E+02 -0.34241400127E+02  0.40659139609E+02  0.00000000000E+00 0. -1.
         11    1    3    3    0    0  0.10225245857E+01  0.27440643560E+01 -0.25280183148E+01  0.38686331668E+01  0.51100000000E-03 0. -1.
        -11    1    3    3    0    0 -0.35435646887E+01 -0.15357622046E+02  0.15888624443E+02  0.22379941746E+02  0.51100000000E-03 0.  1.
         12    1    3    3    0    0 -0.11702564443E+02 -0.40712025654E+01  0.20880793999E+02  0.24280285478E+02  0.00000000000E+00 0. -1.
</event>
<event>
 7    1  0.5946946E-013  0.5052886E+02  0.7816164E-02  0.1300439E+00
        -11   -1    0    0    0    0  0.00000000000E+00  0.00000000000E+00  0.45593999997E+02  0.45594000000E+02  0.51100000000E-03 0. -1.
         11   -1    0    0    0    0 -0.00000000000E+00 -0.00000000000E+00 -0.45593999997E+02  0.45594000000E+02  0.51100000000E-03 0.  1.
    9900012    2    1    2    0    0 -0.17053097593E+01  0.23080104634E+02 -0.33430026738E+02  0.50528855899E+02  0.29999987991E+02 0.  0.
         12    1    1    2    0    0  0.17053097593E+01 -0.23080104634E+02  0.33430026738E+02  0.40659144101E+02  0.00000000000E+00 0. -1.
         11    1    3    3    0    0  0.10910647372E+01  0.26570255521E+00  0.40289013740E+01  0.41824713569E+01  0.51100000000E-03 0. -1.
        -11    1    3    3    0    0  0.17039010840E+01  0.22459703656E+02 -0.33339359763E+02  0.40234990704E+02  0.51100000000E-03 0.  1.
         12    1    3    3    0    0 -0.45002755805E+01  0.35469842273E+00 -0.41195683487E+01  0.61113938386E+01  0.00000000000E+00 0. -1.
</event>
<event>
 7    1  0.5946946E-013  0.5052886E+02  0.7816164E-02  0.1300439E+00
        -11   -1    0    0    0    0  0.00000000000E+00  0.00000000000E+00  0.45593999997E+02  0.45594000000E+02  0.51100000000E-03 0.  1.
         11   -1    0    0    0    0 -0.00000000000E+00 -0.00000000000E+00 -0.45593999997E+02  0.45594000000E+02  0.51100000000E-03 0. -1.
    9900012    2    1    2    0    0  0.40382426618E+02  0.46959951814E+01 -0.61050872493E+00  0.50528862390E+02  0.30000007722E+02 0.  0.
         12    1    1    2    0    0 -0.40382426618E+02 -0.46959951814E+01  0.61050872493E+00  0.40659137610E+02  0.00000000000E+00 0. -1.
         11    1    3    3    0    0  0.23658077636E+02  0.10399760741E+02 -0.38986788152E+00  0.25845921499E+02  0.51100000000E-03 0. -1.
        -11    1    3    3    0    0  0.79450441560E+01 -0.26090108873E+01  0.85024831497E+01  0.11925723644E+02  0.51100000000E-03 0.  1.
         12    1    3    3    0    0  0.87793048252E+01 -0.30947546727E+01 -0.87231239931E+01  0.12757217247E+02  0.00000000000E+00 0. -1.
</event>
<event>
 7    1  0.5946946E-013  0.5052882E+02  0.7816164E-02  0.1300439E+00
        -11   -1    0    0    0    0  0.00000000000E+00  0.00000000000E+00  0.45593999997E+02  0.45594000000E+02  0.51100000000E-03 0. -1.
         11   -1    0    0    0    0 -0.00000000000E+00 -0.00000000000E+00 -0.45593999997E+02  0.45594000000E+02  0.51100000000E-03 0.  1.
    9900012    2    1    2    0    0 -0.90468698534E+00  0.36584557579E+02 -0.17717814079E+02  0.50528815951E+02  0.29999866565E+02 0.  0.
         12    1    1    2    0    0  0.90468698534E+00 -0.36584557579E+02  0.17717814079E+02  0.40659184049E+02  0.00000000000E+00 0. -1.
         11    1    3    3    0    0  0.88217457432E+01  0.24284516173E+02 -0.14613584433E+02  0.29683628046E+02  0.51100000000E-03 0.  1.
        -11    1    3    3    0    0 -0.12037432001E+02  0.13379738715E+02 -0.21670463270E+01  0.18127693381E+02  0.51100000000E-03 0. -1.
         12    1    3    3    0    0  0.23109992729E+01 -0.10796973089E+01 -0.93718331910E+00  0.27174945247E+01  0.00000000000E+00 0. -1.
</event>
<event>
 7    1  0.5946946E-013  0.5052886E+02  0.7816164E-02  0.1300439E+00
        -11   -1    0    0    0    0  0.00000000000E+00  0.00000000000E+00  0.45593999997E+02  0.45594000000E+02  0.51100000000E-03 0. -1.
         11   -1    0    0    0    0 -0.00000000000E+00 -0.00000000000E+00 -0.45593999997E+02  0.45594000000E+02  0.51100000000E-03 0.  1.
    9900012    2    1    2    0    0  0.54954212576E+01  0.72272834051E+01 -0.39632470063E+02  0.50528856336E+02  0.29999989319E+02 0.  0.
         12    1    1    2    0    0 -0.54954212576E+01 -0.72272834051E+01  0.39632470063E+02  0.40659143664E+02  0.00000000000E+00 0. -1.
         11    1    3    3    0    0 -0.51746194554E+01  0.15783373965E+01 -0.88592160468E+01  0.10380440485E+02  0.51100000000E-03 0. -1.
        -11    1    3    3    0    0  0.13931266426E+02  0.12034910355E+02 -0.24315822823E+02  0.30498827704E+02  0.51100000000E-03 0.  1.
        -12    1    3    3    0    0 -0.32612257133E+01 -0.63859643465E+01 -0.64574311932E+01  0.96495881468E+01  0.00000000000E+00 0.  1.
</event>
<event>
 7    1  0.5946946E-013  0.5052886E+02  0.7816164E-02  0.1300439E+00
        -11   -1    0    0    0    0  0.00000000000E+00  0.00000000000E+00  0.45593999997E+02  0.45594000000E+02  0.51100000000E-03 0.  1.
         11   -1    0    0    0    0 -0.00000000000E+00 -0.00000000000E+00 -0.45593999997E+02  0.45594000000E+02  0.51100000000E-03 0. -1.
    9900012    2    1    2    0    0 -0.27785445523E+02  0.13966175805E+02  0.26193134678E+02  0.50528863834E+02  0.30000012111E+02 0.  0.
         12    1    1    2    0    0  0.27785445523E+02 -0.13966175805E+02 -0.26193134678E+02  0.40659136166E+02  0.00000000000E+00 0. -1.
         11    1    3    3    0    0 -0.18646218344E+02 -0.54420093268E+01  0.83794388071E+01  0.21154477518E+02  0.51100000000E-03 0. -1.
        -11    1    3    3    0    0 -0.50219230022E+01  0.12930660301E+02  0.56214113363E+01  0.14967362899E+02  0.51100000000E-03 0.  1.
         12    1    3    3    0    0 -0.41173041761E+01  0.64775248306E+01  0.12192284534E+02  0.14407023418E+02  0.00000000000E+00 0. -1.
</event>
<event>
 7    1  0.5946946E-013  0.5052884E+02  0.7816164E-02  0.1300439E+00
        -11   -1    0    0    0    0  0.00000000000E+00  0.00000000000E+00  0.45593999997E+02  0.45594000000E+02  0.51100000000E-03 0. -1.
         11   -1    0    0    0    0 -0.00000000000E+00 -0.00000000000E+00 -0.45593999997E+02  0.45594000000E+02  0.51100000000E-03 0.  1.
    9900012    2    1    2    0    0  0.49631162370E+01 -0.36444698722E+02 -0.17329694264E+02  0.50528844930E+02  0.29999954650E+02 0.  0.
         12    1    1    2    0    0 -0.49631162370E+01  0.36444698722E+02  0.17329694264E+02  0.40659155070E+02  0.00000000000E+00 0. -1.
         11    1    3    3    0    0  0.43031970074E+00  0.19074928486E+01  0.31483993778E+01  0.37062275855E+01  0.51100000000E-03 0. -1.
        -11    1    3    3    0    0  0.96285555864E+01 -0.16573416353E+02 -0.13308680601E+02  0.23334699309E+02  0.51100000000E-03 0.  1.
        -12    1    3    3    0    0 -0.50957590501E+01 -0.21778775218E+02 -0.71694130412E+01  0.23487918035E+02  0.00000000000E+00 0.  1.
</event>
<event>
 7    1  0.5946946E-013  0.5052886E+02  0.7816164E-02  0.1300439E+00
        -11   -1    0    0    0    0  0.00000000000E+00  0.00000000000E+00  0.45593999997E+02  0.45594000000E+02  0.51100000000E-03 0.  1.
         11   -1    0    0    0    0 -0.00000000000E+00 -0.00000000000E+00 -0.45593999997E+02  0.45594000000E+02  0.51100000000E-03 0. -1.
    9900012    2    1    2    0    0 -0.33906708312E+01  0.73809870677E+01  0.39839554096E+02  0.50528859708E+02  0.29999999567E+02 0.  0.
         12    1    1    2    0    0  0.33906708312E+01 -0.73809870677E+01 -0.39839554096E+02  0.40659140292E+02  0.00000000000E+00 0. -1.
         11    1    3    3    0    0 -0.33748111007E+00 -0.83524030354E+01  0.85893789900E+01  0.11985573064E+02  0.51100000000E-03 0. -1.
        -11    1    3    3    0    0  0.33317852179E+01  0.80135380014E+01  0.25623135971E+02  0.27052960676E+02  0.51100000000E-03 0.  1.
        -12    1    3    3    0    0 -0.63849749390E+01  0.77198521017E+01  0.56270391343E+01  0.11490325968E+02  0.00000000000E+00 0.  1.
</event>
<event>
 7    1  0.5946946E-013  0.5052886E+02  0.7816164E-02  0.1300439E+00
        -11   -1    0    0    0    0  0.00000000000E+00  0.00000000000E+00  0.45593999997E+02  0.45594000000E+02  0.51100000000E-03 0.  1.
         11   -1    0    0    0    0 -0.00000000000E+00 -0.00000000000E+00 -0.45593999997E+02  0.45594000000E+02  0.51100000000E-03 0. -1.
    9900012    2    1    2    0    0 -0.18347790925E+02  0.32107069080E+01  0.36141609217E+02  0.50528856042E+02  0.29999988424E+02 0.  0.
         12    1    1    2    0    0  0.18347790925E+02 -0.32107069080E+01 -0.36141609217E+02  0.40659143958E+02  0.00000000000E+00 0. -1.
         11    1    3    3    0    0 -0.15160372081E+02 -0.13420215939E+01  0.49670010728E+01  0.16009653447E+02  0.51100000000E-03 0. -1.
        -11    1    3    3    0    0 -0.65376635202E+01  0.76447580677E+01  0.23946630470E+02  0.25973534248E+02  0.51100000000E-03 0.  1.
        -12    1    3    3    0    0  0.33502446764E+01 -0.30920295658E+01  0.72279776737E+01  0.85456683460E+01  0.00000000000E+00 0.  1.
</event>
<event>
 7    1  0.5946946E-013  0.5052885E+02  0.7816164E-02  0.1300439E+00
        -11   -1    0    0    0    0  0.00000000000E+00  0.00000000000E+00  0.45593999997E+02  0.45594000000E+02  0.51100000000E-03 0.  1.
         11   -1    0    0    0    0 -0.00000000000E+00 -0.00000000000E+00 -0.45593999997E+02  0.45594000000E+02  0.51100000000E-03 0. -1.
    9900012    2    1    2    0    0 -0.32622059575E+02 -0.23351633741E+02  0.66082399413E+01  0.50528850914E+02  0.29999972838E+02 0.  0.
         12    1    1    2    0    0  0.32622059575E+02  0.23351633741E+02 -0.66082399413E+01  0.40659149086E+02  0.00000000000E+00 0. -1.
         11    1    3    3    0    0 -0.21417458802E+02 -0.18382820355E+02  0.12090841345E+02  0.30705440405E+02  0.51100000000E-03 0. -1.
        -11    1    3    3    0    0  0.28602116454E+01 -0.21255895843E+01  0.14987484772E+01  0.38659008001E+01  0.51100000000E-03 0.  1.
         12    1    3    3    0    0 -0.14064812418E+02 -0.28432238010E+01 -0.69813498812E+01  0.15957509709E+02  0.00000000000E+00 0. -1.
</event>
<event>
 7    1  0.5946946E-013  0.5052886E+02  0.7816164E-02  0.1300439E+00
        -11   -1    0    0    0    0  0.00000000000E+00  0.00000000000E+00  0.45593999997E+02  0.45594000000E+02  0.51100000000E-03 0. -1.
         11   -1    0    0    0    0 -0.00000000000E+00 -0.00000000000E+00 -0.45593999997E+02  0.45594000000E+02  0.51100000000E-03 0.  1.
    9900012    2    1    2    0    0 -0.27516593050E+02  0.23782132388E+02 -0.18177265585E+02  0.50528859599E+02  0.29999999237E+02 0.  0.
         12    1    1    2    0    0  0.27516593050E+02 -0.23782132388E+02  0.18177265585E+02  0.40659140401E+02  0.00000000000E+00 0. -1.
         11    1    3    3    0    0  0.26409066157E+01 -0.33359498244E+01 -0.90149529217E+00  0.43492117684E+01  0.51100000000E-03 0. -1.
        -11    1    3    3    0    0 -0.19219165361E+02  0.14904552154E+02 -0.31237697105E+01  0.24521009962E+02  0.51100000000E-03 0.  1.
         12    1    3    3    0    0 -0.10938334305E+02  0.12213530058E+02 -0.14152000583E+02  0.21658637869E+02  0.00000000000E+00 0. -1.
</event>
<event>
 7    1  0.5946946E-013  0.5052886E+02  0.7816164E-02  0.1300439E+00
        -11   -1    0    0    0    0  0.00000000000E+00  0.00000000000E+00  0.45593999997E+02  0.45594000000E+02  0.51100000000E-03 0.  1.
         11   -1    0    0    0    0 -0.00000000000E+00 -0.00000000000E+00 -0.45593999997E+02  0.45594000000E+02  0.51100000000E-03 0. -1.
    9900012    2    1    2    0    0  0.24596375798E+02  0.20433465574E+02  0.25112894978E+02  0.50528859430E+02  0.29999998723E+02 0.  0.
         12    1    1    2    0    0 -0.24596375798E+02 -0.20433465574E+02 -0.25112894978E+02  0.40659140570E+02  0.00000000000E+00 0. -1.
         11    1    3    3    0    0  0.70838684969E+00  0.13477408123E+02  0.62054456018E+01  0.14854288843E+02  0.51100000000E-03 0. -1.
        -11    1    3    3    0    0  0.87136571435E+01 -0.18924579318E+01  0.15350348539E+02  0.17752251079E+02  0.51100000000E-03 0.  1.
        -12    1    3    3    0    0  0.15174331805E+02  0.88485153824E+01  0.35571008370E+01  0.17922319508E+02  0.00000000000E+00 0.  1.
</event>
<event>
 7    1  0.5946946E-013  0.5052887E+02  0.7816164E-02  0.1300439E+00
        -11   -1    0    0    0    0  0.00000000000E+00  0.00000000000E+00  0.45593999997E+02  0.45594000000E+02  0.51100000000E-03 0.  1.
         11   -1    0    0    0    0 -0.00000000000E+00 -0.00000000000E+00 -0.45593999997E+02  0.45594000000E+02  0.51100000000E-03 0. -1.
    9900012    2    1    2    0    0 -0.38372063030E+01 -0.21693975358E+02  0.34173263919E+02  0.50528872046E+02  0.30000037072E+02 0.  0.
         12    1    1    2    0    0  0.38372063030E+01  0.21693975358E+02 -0.34173263919E+02  0.40659127954E+02  0.00000000000E+00 0. -1.
         11    1    3    3    0    0  0.10662297086E+00  0.34454122401E+01  0.96344970884E+01  0.10232583661E+02  0.51100000000E-03 0.  1.
        -11    1    3    3    0    0  0.51390192154E+01 -0.13956074538E+02  0.43523234940E+01  0.15495943181E+02  0.51100000000E-03 0. -1.
        -12    1    3    3    0    0 -0.90828484894E+01 -0.11183313061E+02  0.20186443337E+02  0.24800345205E+02  0.00000000000E+00 0.  1.
</event>
<event>
 7    1  0.5946946E-013  0.5052887E+02  0.7816164E-02  0.1300439E+00
        -11   -1    0    0    0    0  0.00000000000E+00  0.00000000000E+00  0.45593999997E+02  0.45594000000E+02  0.51100000000E-03 0.  1.
         11   -1    0    0    0    0 -0.00000000000E+00 -0.00000000000E+00 -0.45593999997E+02  0.45594000000E+02  0.51100000000E-03 0. -1.
    9900012    2    1    2    0    0 -0.85283017943E+01 -0.34655764702E+02  0.19478463748E+02  0.50528874227E+02  0.30000043702E+02 0.  0.
         12    1    1    2    0    0  0.85283017943E+01  0.34655764702E+02 -0.19478463748E+02  0.40659125773E+02  0.00000000000E+00 0. -1.
         11    1    3    3    0    0 -0.69219962962E+01 -0.65441250907E+01 -0.33687070015E+01  0.10103850407E+02  0.51100000000E-03 0. -1.
        -11    1    3    3    0    0 -0.32513504399E+01 -0.17220615171E+02  0.23587950117E+02  0.29385579075E+02  0.51100000000E-03 0.  1.
        -12    1    3    3    0    0  0.16450449418E+01 -0.10891024440E+02 -0.74077936731E+00  0.11039444746E+02  0.00000000000E+00 0.  1.
</event>
<event>
 7    1  0.5946946E-013  0.5052887E+02  0.7816164E-02  0.1300439E+00
        -11   -1    0    0    0    0  0.00000000000E+00  0.00000000000E+00  0.45593999997E+02  0.45594000000E+02  0.51100000000E-03 0.  1.
         11   -1    0    0    0    0 -0.00000000000E+00 -0.00000000000E+00 -0.45593999997E+02  0.45594000000E+02  0.51100000000E-03 0. -1.
    9900012    2    1    2    0    0 -0.26012689482E+02 -0.42562457711E+01  0.30957867266E+02  0.50528865875E+02  0.30000018313E+02 0.  0.
         12    1    1    2    0    0  0.26012689482E+02  0.42562457711E+01 -0.30957867266E+02  0.40659134125E+02  0.00000000000E+00 0. -1.
         11    1    3    3    0    0  0.23049543234E+01 -0.32140592545E+01  0.85523019608E+01  0.94225718577E+01  0.51100000000E-03 0. -1.
        -11    1    3    3    0    0 -0.78982226291E+01  0.66178449655E+01  0.68619750483E+00  0.10327083807E+02  0.51100000000E-03 0.  1.
        -12    1    3    3    0    0 -0.20419421177E+02 -0.76600314822E+01  0.21719367800E+02  0.30779210210E+02  0.00000000000E+00 0.  1.
</event>
<event>
 7    1  0.5946946E-013  0.5052887E+02  0.7816164E-02  0.1300439E+00
        -11   -1    0    0    0    0  0.00000000000E+00  0.00000000000E+00  0.45593999997E+02  0.45594000000E+02  0.51100000000E-03 0.  1.
         11   -1    0    0    0    0 -0.00000000000E+00 -0.00000000000E+00 -0.45593999997E+02  0.45594000000E+02  0.51100000000E-03 0. -1.
    9900012    2    1    2    0    0  0.86682714103E+01  0.11002593237E+02  0.38170263218E+02  0.50528868414E+02  0.30000026030E+02 0.  0.
         12    1    1    2    0    0 -0.86682714103E+01 -0.11002593237E+02 -0.38170263218E+02  0.40659131586E+02  0.00000000000E+00 0. -1.
         11    1    3    3    0    0  0.13141508160E+02 -0.40626839710E+00  0.16881366209E+02  0.21397308617E+02  0.51100000000E-03 0. -1.
        -11    1    3    3    0    0 -0.46832082411E+01  0.14015651682E+02  0.21925021575E+02  0.26440073805E+02  0.51100000000E-03 0.  1.
        -12    1    3    3    0    0  0.20997149131E+00 -0.26067900475E+01 -0.63612456520E+00  0.26914859913E+01  0.00000000000E+00 0.  1.
</event>
<event>
 7    1  0.5946946E-013  0.5052885E+02  0.7816164E-02  0.1300439E+00
        -11   -1    0    0    0    0  0.00000000000E+00  0.00000000000E+00  0.45593999997E+02  0.45594000000E+02  0.51100000000E-03 0.  1.
         11   -1    0    0    0    0 -0.00000000000E+00 -0.00000000000E+00 -0.45593999997E+02  0.45594000000E+02  0.51100000000E-03 0. -1.
    9900012    2    1    2    0    0 -0.31064204970E+02 -0.24831502487E+02  0.84603818523E+01  0.50528850878E+02  0.29999972730E+02 0.  0.
         12    1    1    2    0    0  0.31064204970E+02  0.24831502487E+02 -0.84603818523E+01  0.40659149122E+02  0.00000000000E+00 0. -1.
         11    1    3    3    0    0  0.11398646361E+01 -0.10541151392E+02 -0.38151285438E+01  0.11268112980E+02  0.51100000000E-03 0. -1.
        -11    1    3    3    0    0 -0.25310920552E+02 -0.66260660977E+01  0.49836751654E+01  0.26634272461E+02  0.51100000000E-03 0.  1.
         12    1    3    3    0    0 -0.68931490542E+01 -0.76642849972E+01  0.72918352307E+01  0.12626465437E+02  0.00000000000E+00 0. -1.
</event>
<event>
 7    1  0.5946946E-013  0.5052886E+02  0.7816164E-02  0.1300439E+00
        -11   -1    0    0    0    0  0.00000000000E+00  0.00000000000E+00  0.45593999997E+02  0.45594000000E+02  0.51100000000E-03 0.  1.
         11   -1    0    0    0    0 -0.00000000000E+00 -0.00000000000E+00 -0.45593999997E+02  0.45594000000E+02  0.51100000000E-03 0. -1.
    9900012    2    1    2    0    0 -0.30629424214E+02  0.23537728528E+02 -0.12687770073E+02  0.50528858330E+02  0.29999995379E+02 0.  0.
         12    1    1    2    0    0  0.30629424214E+02 -0.23537728528E+02  0.12687770073E+02  0.40659141670E+02  0.00000000000E+00 0. -1.
         11    1    3    3    0    0  0.12405773249E+01  0.20827647267E+00  0.12177258504E+01  0.17507905917E+01  0.51100000000E-03 0. -1.
        -11    1    3    3    0    0 -0.16969316256E+02  0.19158720709E+02 -0.19656395393E+02  0.32270546223E+02  0.51100000000E-03 0.  1.
        -12    1    3    3    0    0 -0.14900685282E+02  0.41707313465E+01  0.57508994697E+01  0.16507521515E+02  0.00000000000E+00 0.  1.
</event>
<event>
 7    1  0.5946946E-013  0.5052887E+02  0.7816164E-02  0.1300439E+00
        -11   -1    0    0    0    0  0.00000000000E+00  0.00000000000E+00  0.45593999997E+02  0.45594000000E+02  0.51100000000E-03 0.  1.
         11   -1    0    0    0    0 -0.00000000000E+00 -0.00000000000E+00 -0.45593999997E+02  0.45594000000E+02  0.51100000000E-03 0. -1.
    9900012    2    1    2    0    0 -0.74490108996E+01  0.35090487680E+02  0.19139881922E+02  0.50528866106E+02  0.30000019015E+02 0.  0.
         12    1    1    2    0    0  0.74490108996E+01 -0.35090487680E+02 -0.19139881922E+02  0.40659133894E+02  0.00000000000E+00 0. -1.
         11    1    3    3    0    0 -0.81510701941E+01 -0.71417163158E+00  0.32531709254E+01  0.88052886244E+01  0.51100000000E-03 0. -1.
        -11    1    3    3    0    0 -0.38245535798E+01  0.21568056039E+02  0.15400877292E+02  0.26776767411E+02  0.51100000000E-03 0.  1.
         12    1    3    3    0    0  0.45266128743E+01  0.14236603274E+02  0.48583370448E+00  0.14946810070E+02  0.00000000000E+00 0. -1.
</event>
<event>
 7    1  0.5946946E-013  0.5052886E+02  0.7816164E-02  0.1300439E+00
        -11   -1    0    0    0    0  0.00000000000E+00  0.00000000000E+00  0.45593999997E+02  0.45594000000E+02  0.51100000000E-03 0.  1.
         11   -1    0    0    0    0 -0.00000000000E+00 -0.00000000000E+00 -0.45593999997E+02  0.45594000000E+02  0.51100000000E-03 0. -1.
    9900012    2    1    2    0    0  0.29211643083E+02 -0.69192934416E+01  0.27422052780E+02  0.50528859674E+02  0.29999999466E+02 0.  0.
         12    1    1    2    0    0 -0.29211643083E+02  0.69192934416E+01 -0.27422052780E+02  0.40659140326E+02  0.00000000000E+00 0. -1.
         11    1    3    3    0    0 -0.34136120126E+01 -0.25306767880E+00  0.59374656223E+01  0.68534873240E+01  0.51100000000E-03 0. -1.
        -11    1    3    3    0    0  0.21425856628E+02 -0.74005998517E+01  0.41805179693E+01  0.23050226489E+02  0.51100000000E-03 0.  1.
        -12    1    3    3    0    0  0.11199398467E+02  0.73437408891E+00  0.17304069189E+02  0.20625145862E+02  0.00000000000E+00 0.  1.
</event>
<event>
 7    1  0.5946946E-013  0.5052885E+02  0.7816164E-02  0.1300439E+00
        -11   -1    0    0    0    0  0.00000000000E+00  0.00000000000E+00  0.45593999997E+02  0.45594000000E+02  0.51100000000E-03 0. -1.
         11   -1    0    0    0    0 -0.00000000000E+00 -0.00000000000E+00 -0.45593999997E+02  0.45594000000E+02  0.51100000000E-03 0.  1.
    9900012    2    1    2    0    0  0.33239063265E+02  0.21983832025E+02  0.80649022919E+01  0.50528845481E+02  0.29999956323E+02 0.  0.
         12    1    1    2    0    0 -0.33239063265E+02 -0.21983832025E+02 -0.80649022919E+01  0.40659154519E+02  0.00000000000E+00 0. -1.
         11    1    3    3    0    0  0.10964390349E+02 -0.22568289419E+01 -0.44822146376E+01  0.12058249496E+02  0.51100000000E-03 0. -1.
        -11    1    3    3    0    0  0.14745933524E+02  0.11396665480E+02  0.14284917333E+02  0.23481597114E+02  0.51100000000E-03 0.  1.
        -12    1    3    3    0    0  0.75287393923E+01  0.12843995487E+02 -0.17378004031E+01  0.14988998871E+02  0.00000000000E+00 0.  1.
</event>
<event>
 7    1  0.5946946E-013  0.5052886E+02  0.7816164E-02  0.1300439E+00
        -11   -1    0    0    0    0  0.00000000000E+00  0.00000000000E+00  0.45593999997E+02  0.45594000000E+02  0.51100000000E-03 0.  1.
         11   -1    0    0    0    0 -0.00000000000E+00 -0.00000000000E+00 -0.45593999997E+02  0.45594000000E+02  0.51100000000E-03 0. -1.
    9900012    2    1    2    0    0 -0.22994827435E+02  0.33035809355E+02 -0.57479221770E+01  0.50528863292E+02  0.30000010464E+02 0.  0.
         12    1    1    2    0    0  0.22994827435E+02 -0.33035809355E+02  0.57479221770E+01  0.40659136708E+02  0.00000000000E+00 0. -1.
         11    1    3    3    0    0 -0.18894756030E+02  0.18899211023E+02  0.44044866841E+01  0.27084894054E+02  0.51100000000E-03 0. -1.
        -11    1    3    3    0    0 -0.24089627886E+01  0.13394177012E+02 -0.13783684175E+02  0.19370003336E+02  0.51100000000E-03 0.  1.
        -12    1    3    3    0    0 -0.16911086163E+01  0.74242131942E+00  0.36312753137E+01  0.40739659021E+01  0.00000000000E+00 0.  1.
</event>
<event>
 7    1  0.5946946E-013  0.5052886E+02  0.7816164E-02  0.1300439E+00
        -11   -1    0    0    0    0  0.00000000000E+00  0.00000000000E+00  0.45593999997E+02  0.45594000000E+02  0.51100000000E-03 0.  1.
         11   -1    0    0    0    0 -0.00000000000E+00 -0.00000000000E+00 -0.45593999997E+02  0.45594000000E+02  0.51100000000E-03 0. -1.
    9900012    2    1    2    0    0  0.82115994088E+01 -0.29240405771E+02  0.27032090483E+02  0.50528860678E+02  0.30000002518E+02 0.  0.
         12    1    1    2    0    0 -0.82115994088E+01  0.29240405771E+02 -0.27032090483E+02  0.40659139322E+02  0.00000000000E+00 0. -1.
         11    1    3    3    0    0  0.19218139550E+01  0.24818223160E+01 -0.19978700372E+01  0.37207923662E+01  0.51100000000E-03 0. -1.
        -11    1    3    3    0    0  0.88163366638E+01 -0.13800173289E+02  0.21921699506E+02  0.27362994801E+02  0.51100000000E-03 0.  1.
        -12    1    3    3    0    0 -0.25265512100E+01 -0.17922054798E+02  0.71082610140E+01  0.19445073511E+02  0.00000000000E+00 0.  1.
</event>
<event>
 7    1  0.6359592E-013  0.5052885E+02  0.7816164E-02  0.1300439E+00
        -11   -1    0    0    0    0  0.00000000000E+00  0.00000000000E+00  0.45593999997E+02  0.45594000000E+02  0.51100000000E-03 0. -1.
         11   -1    0    0    0    0 -0.00000000000E+00 -0.00000000000E+00 -0.45593999997E+02  0.45594000000E+02  0.51100000000E-03 0.  1.
    9900012    2    1    2    0    0  0.36077628897E+02  0.16741723945E+02 -0.84430842590E+01  0.50528852207E+02  0.29999976768E+02 0.  0.
         12    1    1    2    0    0 -0.36077628897E+02 -0.16741723945E+02  0.84430842590E+01  0.40659147793E+02  0.00000000000E+00 0. -1.
         11    1    3    3    0    0 -0.39065291648E+01  0.41569241681E+01 -0.27016111891E+01  0.63118691315E+01  0.51100000000E-03 0. -1.
        -11    1    3    3    0    0  0.21004370548E+02  0.74475274446E+00  0.39235409207E+00  0.21021231666E+02  0.51100000000E-03 0.  1.
        -12    1    3    3    0    0  0.18979787514E+02  0.11840047033E+02 -0.61338271620E+01  0.23195751410E+02  0.00000000000E+00 0.  1.
</event>
<event>
 7    1  0.5946946E-013  0.5052886E+02  0.7816164E-02  0.1300439E+00
        -11   -1    0    0    0    0  0.00000000000E+00  0.00000000000E+00  0.45593999997E+02  0.45594000000E+02  0.51100000000E-03 0.  1.
         11   -1    0    0    0    0 -0.00000000000E+00 -0.00000000000E+00 -0.45593999997E+02  0.45594000000E+02  0.51100000000E-03 0. -1.
    9900012    2    1    2    0    0 -0.11215340146E+02  0.18903363491E+02  0.34205919613E+02  0.50528856595E+02  0.29999990106E+02 0.  0.
         12    1    1    2    0    0  0.11215340146E+02 -0.18903363491E+02 -0.34205919613E+02  0.40659143405E+02  0.00000000000E+00 0. -1.
         11    1    3    3    0    0  0.99528491991E+00  0.84898204950E+01  0.21341377577E+02  0.22989607244E+02  0.51100000000E-03 0. -1.
        -11    1    3    3    0    0 -0.29052056321E+01 -0.37161471221E+01 -0.18989313900E+01  0.50848706850E+01  0.51100000000E-03 0.  1.
        -12    1    3    3    0    0 -0.93054194335E+01  0.14129690118E+02  0.14763473426E+02  0.22454378666E+02  0.00000000000E+00 0.  1.
</event>
<event>
 7    1  0.5946946E-013  0.5052887E+02  0.7816164E-02  0.1300439E+00
        -11   -1    0    0    0    0  0.00000000000E+00  0.00000000000E+00  0.45593999997E+02  0.45594000000E+02  0.51100000000E-03 0.  1.
         11   -1    0    0    0    0 -0.00000000000E+00 -0.00000000000E+00 -0.45593999997E+02  0.45594000000E+02  0.51100000000E-03 0. -1.
    9900012    2    1    2    0    0 -0.13875661832E+02  0.29398853532E+02  0.24420032899E+02  0.50528873263E+02  0.30000040769E+02 0.  0.
         12    1    1    2    0    0  0.13875661832E+02 -0.29398853532E+02 -0.24420032899E+02  0.40659126737E+02  0.00000000000E+00 0. -1.
         11    1    3    3    0    0 -0.63475692242E+01  0.12129047783E+01  0.40510037063E+00  0.64750968818E+01  0.51100000000E-03 0. -1.
        -11    1    3    3    0    0  0.49958208969E+01  0.80241921165E+01 -0.10784466863E+01  0.95136182956E+01  0.51100000000E-03 0.  1.
        -12    1    3    3    0    0 -0.12523913505E+02  0.20161756637E+02  0.25093379215E+02  0.34540158085E+02  0.00000000000E+00 0.  1.
</event>
<event>
 7    1  0.5946946E-013  0.5052885E+02  0.7816164E-02  0.1300439E+00
        -11   -1    0    0    0    0  0.00000000000E+00  0.00000000000E+00  0.45593999997E+02  0.45594000000E+02  0.51100000000E-03 0.  1.
         11   -1    0    0    0    0 -0.00000000000E+00 -0.00000000000E+00 -0.45593999997E+02  0.45594000000E+02  0.51100000000E-03 0. -1.
    9900012    2    1    2    0    0 -0.51190670478E+01 -0.20715492146E+01  0.40282380367E+02  0.50528851809E+02  0.29999975558E+02 0.  0.
         12    1    1    2    0    0  0.51190670478E+01  0.20715492146E+01 -0.40282380367E+02  0.40659148191E+02  0.00000000000E+00 0. -1.
         11    1    3    3    0    0  0.74826013688E+00 -0.12678090694E+02  0.13866671861E+02  0.18803682237E+02  0.51100000000E-03 0. -1.
        -11    1    3    3    0    0  0.12061859075E+01  0.10351472699E+02  0.14321010570E+02  0.17711555988E+02  0.51100000000E-03 0.  1.
         12    1    3    3    0    0 -0.70735130922E+01  0.25506878045E+00  0.12094697936E+02  0.14013613585E+02  0.00000000000E+00 0. -1.
</event>
<event>
 7    1  0.5946946E-013  0.5052886E+02  0.7816164E-02  0.1300439E+00
        -11   -1    0    0    0    0  0.00000000000E+00  0.00000000000E+00  0.45593999997E+02  0.45594000000E+02  0.51100000000E-03 0.  1.
         11   -1    0    0    0    0 -0.00000000000E+00 -0.00000000000E+00 -0.45593999997E+02  0.45594000000E+02  0.51100000000E-03 0. -1.
    9900012    2    1    2    0    0 -0.17497139645E+02  0.18168102970E+02  0.31889429599E+02  0.50528861034E+02  0.30000003599E+02 0.  0.
         12    1    1    2    0    0  0.17497139645E+02 -0.18168102970E+02 -0.31889429599E+02  0.40659138966E+02  0.00000000000E+00 0. -1.
         11    1    3    3    0    0 -0.98977133875E+01  0.20908040438E+02  0.91841700206E+01  0.24888950651E+02  0.51100000000E-03 0. -1.
        -11    1    3    3    0    0 -0.70474024089E+01  0.18209111233E+01  0.12903747913E+02  0.14815137815E+02  0.51100000000E-03 0.  1.
         12    1    3    3    0    0 -0.55202384878E+00 -0.45608485915E+01  0.98015116660E+01  0.10824772568E+02  0.00000000000E+00 0. -1.
</event>
<event>
 7    1  0.5946946E-013  0.5052886E+02  0.7816164E-02  0.1300439E+00
        -11   -1    0    0    0    0  0.00000000000E+00  0.00000000000E+00  0.45593999997E+02  0.45594000000E+02  0.51100000000E-03 0.  1.
         11   -1    0    0    0    0 -0.00000000000E+00 -0.00000000000E+00 -0.45593999997E+02  0.45594000000E+02  0.51100000000E-03 0. -1.
    9900012    2    1    2    0    0 -0.19831825269E+02  0.91906471503E+01  0.34284056033E+02  0.50528858511E+02  0.29999995930E+02 0.  0.
         12    1    1    2    0    0  0.19831825269E+02 -0.91906471503E+01 -0.34284056033E+02  0.40659141489E+02  0.00000000000E+00 0. -1.
         11    1    3    3    0    0 -0.11774462295E+02 -0.19999785637E+01 -0.52983453048E+00  0.11954856815E+02  0.51100000000E-03 0. -1.
        -11    1    3    3    0    0 -0.72966123054E+01  0.73051880444E+01  0.32236829372E+02  0.33849955565E+02  0.51100000000E-03 0.  1.
        -12    1    3    3    0    0 -0.76075066879E+00  0.38854376696E+01  0.25770611916E+01  0.47240461312E+01  0.00000000000E+00 0.  1.
</event>
<event>
 7    1  0.5946946E-013  0.5052885E+02  0.7816164E-02  0.1300439E+00
        -11   -1    0    0    0    0  0.00000000000E+00  0.00000000000E+00  0.45593999997E+02  0.45594000000E+02  0.51100000000E-03 0. -1.
         11   -1    0    0    0    0 -0.00000000000E+00 -0.00000000000E+00 -0.45593999997E+02  0.45594000000E+02  0.51100000000E-03 0.  1.
    9900012    2    1    2    0    0 -0.30971953243E+02 -0.11001182467E+02  0.23934882452E+02  0.50528849721E+02  0.29999969213E+02 0.  0.
         12    1    1    2    0    0  0.30971953243E+02  0.11001182467E+02 -0.23934882452E+02  0.40659150279E+02  0.00000000000E+00 0. -1.
         11    1    3    3    0    0 -0.35134525328E+01  0.33255604931E+01  0.42066142088E+01  0.64108739386E+01  0.51100000000E-03 0. -1.
        -11    1    3    3    0    0 -0.11104232752E+02 -0.19370261058E+02  0.11855768864E+02  0.25279838886E+02  0.51100000000E-03 0.  1.
        -12    1    3    3    0    0 -0.16354267959E+02  0.50435180981E+01  0.78724993790E+01  0.18838136897E+02  0.00000000000E+00 0.  1.
</event>
<event>
 7    1  0.5946946E-013  0.5052891E+02  0.7816164E-02  0.1300439E+00
        -11   -1    0    0    0    0  0.00000000000E+00  0.00000000000E+00  0.45593999997E+02  0.45594000000E+02  0.51100000000E-03 0. -1.
         11   -1    0    0    0    0 -0.00000000000E+00 -0.00000000000E+00 -0.45593999997E+02  0.45594000000E+02  0.51100000000E-03 0.  1.
    9900012    2    1    2    0    0  0.12473232244E+02  0.35233324388E+02 -0.16006017008E+02  0.50528914293E+02  0.30000165485E+02 0.  0.
         12    1    1    2    0    0 -0.12473232244E+02 -0.35233324388E+02  0.16006017008E+02  0.40659085707E+02  0.00000000000E+00 0. -1.
         11    1    3    3    0    0  0.70663945413E+01  0.12029654689E+02 -0.19717328160E+02  0.24154079444E+02  0.51100000000E-03 0. -1.
        -11    1    3    3    0    0  0.79510882019E+01  0.10683988056E+02  0.23955729506E+01  0.13531673008E+02  0.51100000000E-03 0.  1.
         12    1    3    3    0    0 -0.25442504994E+01  0.12519681643E+02  0.13157382019E+01  0.12843161841E+02  0.00000000000E+00 0. -1.
</event>
<event>
 7    1  0.5946946E-013  0.5052886E+02  0.7816164E-02  0.1300439E+00
        -11   -1    0    0    0    0  0.00000000000E+00  0.00000000000E+00  0.45593999997E+02  0.45594000000E+02  0.51100000000E-03 0.  1.
         11   -1    0    0    0    0 -0.00000000000E+00 -0.00000000000E+00 -0.45593999997E+02  0.45594000000E+02  0.51100000000E-03 0. -1.
    9900012    2    1    2    0    0 -0.31696479483E+02  0.18508623735E+02  0.17490852205E+02  0.50528857424E+02  0.29999992626E+02 0.  0.
         12    1    1    2    0    0  0.31696479483E+02 -0.18508623735E+02 -0.17490852205E+02  0.40659142576E+02  0.00000000000E+00 0. -1.
         11    1    3    3    0    0  0.13806281239E+01 -0.99195770145E-01 -0.43010497159E+01  0.45182964419E+01  0.51100000000E-03 0. -1.
        -11    1    3    3    0    0 -0.21435773062E+02  0.17904954417E+02  0.19658268525E+02  0.34154462097E+02  0.51100000000E-03 0.  1.
        -12    1    3    3    0    0 -0.11641334545E+02  0.70286508764E+00  0.21336333960E+01  0.11856098885E+02  0.00000000000E+00 0.  1.
</event>
<event>
 7    1  0.5946946E-013  0.5052886E+02  0.7816164E-02  0.1300439E+00
        -11   -1    0    0    0    0  0.00000000000E+00  0.00000000000E+00  0.45593999997E+02  0.45594000000E+02  0.51100000000E-03 0. -1.
         11   -1    0    0    0    0 -0.00000000000E+00 -0.00000000000E+00 -0.45593999997E+02  0.45594000000E+02  0.51100000000E-03 0.  1.
    9900012    2    1    2    0    0 -0.39675129201E+02 -0.81914263094E+01 -0.34569434814E+01  0.50528858343E+02  0.29999995419E+02 0.  0.
         12    1    1    2    0    0  0.39675129201E+02  0.81914263094E+01  0.34569434814E+01  0.40659141657E+02  0.00000000000E+00 0. -1.
         11    1    3    3    0    0 -0.16765817837E+02 -0.59482163433E+01  0.57631409855E+01  0.18699939029E+02  0.51100000000E-03 0. -1.
        -11    1    3    3    0    0 -0.94396699009E+01  0.48726021752E+01 -0.12336177506E+02  0.16279769517E+02  0.51100000000E-03 0.  1.
        -12    1    3    3    0    0 -0.13469641463E+02 -0.71158121413E+01  0.31160930396E+01  0.15549149797E+02  0.00000000000E+00 0.  1.
</event>
<event>
 7    1  0.5946946E-013  0.5052886E+02  0.7816164E-02  0.1300439E+00
        -11   -1    0    0    0    0  0.00000000000E+00  0.00000000000E+00  0.45593999997E+02  0.45594000000E+02  0.51100000000E-03 0.  1.
         11   -1    0    0    0    0 -0.00000000000E+00 -0.00000000000E+00 -0.45593999997E+02  0.45594000000E+02  0.51100000000E-03 0. -1.
    9900012    2    1    2    0    0 -0.20960328222E+02 -0.67477926120E+01  0.34180370667E+02  0.50528858307E+02  0.29999995309E+02 0.  0.
         12    1    1    2    0    0  0.20960328222E+02  0.67477926120E+01 -0.34180370667E+02  0.40659141693E+02  0.00000000000E+00 0. -1.
         11    1    3    3    0    0  0.41713138264E+01 -0.48659800378E+01  0.16484803714E+02  0.17686898386E+02  0.51100000000E-03 0. -1.
        -11    1    3    3    0    0 -0.19201777810E+02  0.13889915248E+01  0.76267448943E+01  0.20707602625E+02  0.51100000000E-03 0.  1.
         12    1    3    3    0    0 -0.59298642384E+01 -0.32708040990E+01  0.10068822059E+02  0.12134357296E+02  0.00000000000E+00 0. -1.
</event>
<event>
 7    1  0.5946946E-013  0.5052886E+02  0.7816164E-02  0.1300439E+00
        -11   -1    0    0    0    0  0.00000000000E+00  0.00000000000E+00  0.45593999997E+02  0.45594000000E+02  0.51100000000E-03 0.  1.
         11   -1    0    0    0    0 -0.00000000000E+00 -0.00000000000E+00 -0.45593999997E+02  0.45594000000E+02  0.51100000000E-03 0. -1.
    9900012    2    1    2    0    0 -0.70333125513E+01  0.33899624135E+02  0.21319331603E+02  0.50528857093E+02  0.29999991621E+02 0.  0.
         12    1    1    2    0    0  0.70333125513E+01 -0.33899624135E+02 -0.21319331603E+02  0.40659142907E+02  0.00000000000E+00 0. -1.
         11    1    3    3    0    0 -0.43927061347E+01 -0.40158525919E+01  0.26317199662E+01  0.65076024362E+01  0.51100000000E-03 0. -1.
        -11    1    3    3    0    0 -0.46549735880E+01  0.25886073078E+02  0.17868536694E+02  0.31796889193E+02  0.51100000000E-03 0.  1.
         12    1    3    3    0    0  0.20143671715E+01  0.12029403649E+02  0.81907494246E+00  0.12224365465E+02  0.00000000000E+00 0. -1.
</event>
<event>
 7    1  0.5946946E-013  0.5052886E+02  0.7816164E-02  0.1300439E+00
        -11   -1    0    0    0    0  0.00000000000E+00  0.00000000000E+00  0.45593999997E+02  0.45594000000E+02  0.51100000000E-03 0.  1.
         11   -1    0    0    0    0 -0.00000000000E+00 -0.00000000000E+00 -0.45593999997E+02  0.45594000000E+02  0.51100000000E-03 0. -1.
    9900012    2    1    2    0    0 -0.12434503916E+02 -0.24326789292E+02  0.30112386938E+02  0.50528863118E+02  0.30000009934E+02 0.  0.
         12    1    1    2    0    0  0.12434503916E+02  0.24326789292E+02 -0.30112386938E+02  0.40659136882E+02  0.00000000000E+00 0. -1.
         11    1    3    3    0    0  0.15481140973E+01 -0.21209178284E+02  0.95283990488E+01  0.23302709916E+02  0.51100000000E-03 0. -1.
        -11    1    3    3    0    0 -0.12404591811E+02 -0.64178021802E+01  0.17821569412E+02  0.22642226467E+02  0.51100000000E-03 0.  1.
         12    1    3    3    0    0 -0.15780262023E+01  0.33001911724E+01  0.27624184768E+01  0.45839267349E+01  0.00000000000E+00 0. -1.
</event>
<event>
 7    1  0.5946946E-013  0.5052886E+02  0.7816164E-02  0.1300439E+00
        -11   -1    0    0    0    0  0.00000000000E+00  0.00000000000E+00  0.45593999997E+02  0.45594000000E+02  0.51100000000E-03 0. -1.
         11   -1    0    0    0    0 -0.00000000000E+00 -0.00000000000E+00 -0.45593999997E+02  0.45594000000E+02  0.51100000000E-03 0.  1.
    9900012    2    1    2    0    0 -0.66673859965E+01  0.39574465915E+02 -0.65248385778E+01  0.50528857032E+02  0.29999991433E+02 0.  0.
         12    1    1    2    0    0  0.66673859965E+01 -0.39574465915E+02  0.65248385778E+01  0.40659142968E+02  0.00000000000E+00 0. -1.
         11    1    3    3    0    0 -0.13220217784E+02  0.38908412182E+02 -0.37132569609E+01  0.41260477146E+02  0.51100000000E-03 0. -1.
        -11    1    3    3    0    0  0.44357320885E+00 -0.76508256858E+00 -0.28599325351E+01  0.29935468753E+01  0.51100000000E-03 0.  1.
         12    1    3    3    0    0  0.61092585789E+01  0.14311363010E+01  0.48350918159E-01  0.62748330103E+01  0.00000000000E+00 0. -1.
</event>
<event>
 7    1  0.5946946E-013  0.5052886E+02  0.7816164E-02  0.1300439E+00
        -11   -1    0    0    0    0  0.00000000000E+00  0.00000000000E+00  0.45593999997E+02  0.45594000000E+02  0.51100000000E-03 0.  1.
         11   -1    0    0    0    0 -0.00000000000E+00 -0.00000000000E+00 -0.45593999997E+02  0.45594000000E+02  0.51100000000E-03 0. -1.
    9900012    2    1    2    0    0  0.13477158078E+02 -0.30786995581E+02  0.22884332500E+02  0.50528861288E+02  0.30000004373E+02 0.  0.
         12    1    1    2    0    0 -0.13477158078E+02  0.30786995581E+02 -0.22884332500E+02  0.40659138712E+02  0.00000000000E+00 0. -1.
         11    1    3    3    0    0  0.10685832385E+02 -0.19895836500E+02  0.11896549170E+02  0.25525657802E+02  0.51100000000E-03 0. -1.
        -11    1    3    3    0    0  0.53038725993E+01  0.38447879528E+01  0.17372644442E+00  0.65531397124E+01  0.51100000000E-03 0.  1.
        -12    1    3    3    0    0 -0.25125469063E+01 -0.14735947034E+02  0.10814056886E+02  0.18450063774E+02  0.00000000000E+00 0.  1.
</event>
<event>
 7    1  0.5946946E-013  0.5052886E+02  0.7816164E-02  0.1300439E+00
        -11   -1    0    0    0    0  0.00000000000E+00  0.00000000000E+00  0.45593999997E+02  0.45594000000E+02  0.51100000000E-03 0. -1.
         11   -1    0    0    0    0 -0.00000000000E+00 -0.00000000000E+00 -0.45593999997E+02  0.45594000000E+02  0.51100000000E-03 0.  1.
    9900012    2    1    2    0    0 -0.19836278488E+02 -0.19000788009E+02 -0.29977620803E+02  0.50528860336E+02  0.30000001476E+02 0.  0.
         12    1    1    2    0    0  0.19836278488E+02  0.19000788009E+02  0.29977620803E+02  0.40659139664E+02  0.00000000000E+00 0. -1.
         11    1    3    3    0    0  0.61477223516E+01 -0.10438667912E+02 -0.58888800807E+01  0.13469936405E+02  0.51100000000E-03 0. -1.
        -11    1    3    3    0    0 -0.18647460833E+02 -0.29938708931E+01 -0.17357945057E+02  0.25651302409E+02  0.51100000000E-03 0.  1.
         12    1    3    3    0    0 -0.73365400073E+01 -0.55682492039E+01 -0.67307956650E+01  0.11407621521E+02  0.00000000000E+00 0. -1.
</event>
<event>
 7    1  0.5946946E-013  0.5052891E+02  0.7816164E-02  0.1300439E+00
        -11   -1    0    0    0    0  0.00000000000E+00  0.00000000000E+00  0.45593999997E+02  0.45594000000E+02  0.51100000000E-03 0. -1.
         11   -1    0    0    0    0 -0.00000000000E+00 -0.00000000000E+00 -0.45593999997E+02  0.45594000000E+02  0.51100000000E-03 0.  1.
    9900012    2    1    2    0    0  0.12711355389E+02 -0.29374656536E+02 -0.25074148659E+02  0.50528905896E+02  0.30000139960E+02 0.  0.
         12    1    1    2    0    0 -0.12711355389E+02  0.29374656536E+02  0.25074148659E+02  0.40659094104E+02  0.00000000000E+00 0. -1.
         11    1    3    3    0    0  0.13072218685E+02 -0.56336522879E+01 -0.88253037776E+01  0.16748341006E+02  0.51100000000E-03 0. -1.
        -11    1    3    3    0    0 -0.18192546461E+01 -0.17880648031E+02 -0.19827231851E+02  0.26760911506E+02  0.51100000000E-03 0.  1.
        -12    1    3    3    0    0  0.14583913502E+01 -0.58603562162E+01  0.35783869699E+01  0.70196533830E+01  0.00000000000E+00 0.  1.
</event>
<event>
 7    1  0.5946946E-013  0.5052886E+02  0.7816164E-02  0.1300439E+00
        -11   -1    0    0    0    0  0.00000000000E+00  0.00000000000E+00  0.45593999997E+02  0.45594000000E+02  0.51100000000E-03 0.  1.
         11   -1    0    0    0    0 -0.00000000000E+00 -0.00000000000E+00 -0.45593999997E+02  0.45594000000E+02  0.51100000000E-03 0. -1.
    9900012    2    1    2    0    0 -0.20660347805E+02 -0.69959246425E+01  0.34312867581E+02  0.50528858166E+02  0.29999994883E+02 0.  0.
         12    1    1    2    0    0  0.20660347805E+02  0.69959246425E+01 -0.34312867581E+02  0.40659141834E+02  0.00000000000E+00 0. -1.
         11    1    3    3    0    0  0.28337267765E-01 -0.80743920828E+01  0.26136826053E+01  0.84869280385E+01  0.51100000000E-03 0. -1.
        -11    1    3    3    0    0 -0.20660780045E+02 -0.43049646162E+01  0.19612823582E+02  0.28810820911E+02  0.51100000000E-03 0.  1.
        -12    1    3    3    0    0 -0.27905027908E-01  0.53834320566E+01  0.12086361393E+02  0.13231109217E+02  0.00000000000E+00 0.  1.
</event>
<event>
 7    1  0.5946946E-013  0.5052886E+02  0.7816164E-02  0.1300439E+00
        -11   -1    0    0    0    0  0.00000000000E+00  0.00000000000E+00  0.45593999997E+02  0.45594000000E+02  0.51100000000E-03 0.  1.
         11   -1    0    0    0    0 -0.00000000000E+00 -0.00000000000E+00 -0.45593999997E+02  0.45594000000E+02  0.51100000000E-03 0. -1.
    9900012    2    1    2    0    0 -0.31819245547E+02  0.11232724354E+02  0.22683191730E+02  0.50528859937E+02  0.30000000265E+02 0.  0.
         12    1    1    2    0    0  0.31819245547E+02 -0.11232724354E+02 -0.22683191730E+02  0.40659140063E+02  0.00000000000E+00 0. -1.
         11    1    3    3    0    0  0.12190278187E+01 -0.10069915621E+01 -0.47190913722E+01  0.49769352487E+01  0.51100000000E-03 0. -1.
        -11    1    3    3    0    0 -0.24672956780E+02  0.13166502860E+02  0.21389809397E+02  0.35208458360E+02  0.51100000000E-03 0.  1.
         12    1    3    3    0    0 -0.83653165865E+01 -0.92678694372E+00  0.60124737044E+01  0.10343466328E+02  0.00000000000E+00 0. -1.
</event>
<event>
 7    1  0.5946946E-013  0.5052886E+02  0.7816164E-02  0.1300439E+00
        -11   -1    0    0    0    0  0.00000000000E+00  0.00000000000E+00  0.45593999997E+02  0.45594000000E+02  0.51100000000E-03 0.  1.
         11   -1    0    0    0    0 -0.00000000000E+00 -0.00000000000E+00 -0.45593999997E+02  0.45594000000E+02  0.51100000000E-03 0. -1.
    9900012    2    1    2    0    0  0.28244675782E+02 -0.21980672243E+01  0.29164577976E+02  0.50528858125E+02  0.29999994755E+02 0.  0.
         12    1    1    2    0    0 -0.28244675782E+02  0.21980672243E+01 -0.29164577976E+02  0.40659141875E+02  0.00000000000E+00 0. -1.
         11    1    3    3    0    0  0.29079769756E+00  0.38862964416E+01 -0.29977069326E+00  0.39086731844E+01  0.51100000000E-03 0. -1.
        -11    1    3    3    0    0  0.46216821477E+01 -0.11219794369E+02  0.11621564725E+02  0.16801919487E+02  0.51100000000E-03 0.  1.
        -12    1    3    3    0    0  0.23332195936E+02  0.51354307027E+01  0.17842783945E+02  0.29818265453E+02  0.00000000000E+00 0.  1.
</event>
<event>
 7    1  0.5946946E-013  0.5052886E+02  0.7816164E-02  0.1300439E+00
        -11   -1    0    0    0    0  0.00000000000E+00  0.00000000000E+00  0.45593999997E+02  0.45594000000E+02  0.51100000000E-03 0.  1.
         11   -1    0    0    0    0 -0.00000000000E+00 -0.00000000000E+00 -0.45593999997E+02  0.45594000000E+02  0.51100000000E-03 0. -1.
    9900012    2    1    2    0    0 -0.16127199332E-01 -0.38509695363E+02  0.13044875138E+02  0.50528860014E+02  0.30000000499E+02 0.  0.
         12    1    1    2    0    0  0.16127199332E-01  0.38509695363E+02 -0.13044875138E+02  0.40659139986E+02  0.00000000000E+00 0. -1.
         11    1    3    3    0    0 -0.38927414322E+00  0.21694952822E+01 -0.12056124718E+01  0.25123188156E+01  0.51100000000E-03 0. -1.
        -11    1    3    3    0    0 -0.48973548492E+01 -0.30694793173E+02  0.18243222018E+02  0.36041220322E+02  0.51100000000E-03 0.  1.
        -12    1    3    3    0    0  0.52705017931E+01 -0.99843974725E+01 -0.39927344082E+01  0.11975320876E+02  0.00000000000E+00 0.  1.
</event>
<event>
 7    1  0.5946946E-013  0.5052886E+02  0.7816164E-02  0.1300439E+00
        -11   -1    0    0    0    0  0.00000000000E+00  0.00000000000E+00  0.45593999997E+02  0.45594000000E+02  0.51100000000E-03 0.  1.
         11   -1    0    0    0    0 -0.00000000000E+00 -0.00000000000E+00 -0.45593999997E+02  0.45594000000E+02  0.51100000000E-03 0. -1.
    9900012    2    1    2    0    0  0.11830009826E+02 -0.17104834666E+02  0.34937674952E+02  0.50528860406E+02  0.30000001691E+02 0.  0.
         12    1    1    2    0    0 -0.11830009826E+02  0.17104834666E+02 -0.34937674952E+02  0.40659139594E+02  0.00000000000E+00 0. -1.
         11    1    3    3    0    0 -0.17772000911E+01 -0.84835412129E+01  0.17189532551E+01  0.88364988672E+01  0.51100000000E-03 0. -1.
        -11    1    3    3    0    0  0.82326964974E+01 -0.70668786191E+01  0.34316552217E+02  0.35990885254E+02  0.51100000000E-03 0.  1.
        -12    1    3    3    0    0  0.53745134198E+01 -0.15544148335E+01 -0.10978305200E+01  0.57014762847E+01  0.00000000000E+00 0.  1.
</event>
<event>
 7    1  0.5946946E-013  0.5052888E+02  0.7816164E-02  0.1300439E+00
        -11   -1    0    0    0    0  0.00000000000E+00  0.00000000000E+00  0.45593999997E+02  0.45594000000E+02  0.51100000000E-03 0. -1.
         11   -1    0    0    0    0 -0.00000000000E+00 -0.00000000000E+00 -0.45593999997E+02  0.45594000000E+02  0.51100000000E-03 0.  1.
    9900012    2    1    2    0    0  0.18214688411E+02 -0.26602601765E+02 -0.24772786479E+02  0.50528877475E+02  0.30000053572E+02 0.  0.
         12    1    1    2    0    0 -0.18214688411E+02  0.26602601765E+02  0.24772786479E+02  0.40659122525E+02  0.00000000000E+00 0. -1.
         11    1    3    3    0    0  0.46353639164E+01  0.50838186945E+01 -0.65998493212E+01  0.95336153939E+01  0.51100000000E-03 0. -1.
        -11    1    3    3    0    0  0.45199354475E+01 -0.24450642534E+02 -0.14730255095E+02  0.28900590862E+02  0.51100000000E-03 0.  1.
         12    1    3    3    0    0  0.90593890471E+01 -0.72357779256E+01 -0.34426820637E+01  0.12094671219E+02  0.00000000000E+00 0. -1.
</event>
<event>
 7    1  0.8585028E-013  0.5052894E+02  0.7816164E-02  0.1300439E+00
        -11   -1    0    0    0    0  0.00000000000E+00  0.00000000000E+00  0.45593999997E+02  0.45594000000E+02  0.51100000000E-03 0. -1.
         11   -1    0    0    0    0 -0.00000000000E+00 -0.00000000000E+00 -0.45593999997E+02  0.45594000000E+02  0.51100000000E-03 0.  1.
    9900012    2    1    2    0    0  0.38301114039E+02  0.55678418148E+00 -0.13633548284E+02  0.50528942165E+02  0.30000250203E+02 0.  0.
         12    1    1    2    0    0 -0.38301114039E+02 -0.55678418148E+00  0.13633548284E+02  0.40659057835E+02  0.00000000000E+00 0. -1.
         11    1    3    3    0    0  0.61449460476E+01  0.88236621713E+01  0.14658363751E+01  0.10852006846E+02  0.51100000000E-03 0. -1.
        -11    1    3    3    0    0  0.29232799494E+02 -0.58927168184E+01 -0.68337627190E+01  0.30593806414E+02  0.51100000000E-03 0.  1.
        -12    1    3    3    0    0  0.29233684971E+01 -0.23741611715E+01 -0.82656219404E+01  0.90831289047E+01  0.00000000000E+00 0.  1.
</event>
<event>
 7    1  0.5946946E-013  0.5052886E+02  0.7816164E-02  0.1300439E+00
        -11   -1    0    0    0    0  0.00000000000E+00  0.00000000000E+00  0.45593999997E+02  0.45594000000E+02  0.51100000000E-03 0.  1.
         11   -1    0    0    0    0 -0.00000000000E+00 -0.00000000000E+00 -0.45593999997E+02  0.45594000000E+02  0.51100000000E-03 0. -1.
    9900012    2    1    2    0    0 -0.24971081077E+02  0.27476877426E+02  0.16572027581E+02  0.50528858576E+02  0.29999996126E+02 0.  0.
         12    1    1    2    0    0  0.24971081077E+02 -0.27476877426E+02 -0.16572027581E+02  0.40659141424E+02  0.00000000000E+00 0. -1.
         11    1    3    3    0    0 -0.27987824358E+02  0.17318278665E+02  0.10942683169E+02  0.34684051139E+02  0.51100000000E-03 0. -1.
        -11    1    3    3    0    0 -0.14864054045E+01  0.10161263337E+02  0.44336941310E+01  0.11185629957E+02  0.51100000000E-03 0.  1.
         12    1    3    3    0    0  0.45031486862E+01 -0.26645756262E-02  0.11956502805E+01  0.46591774792E+01  0.00000000000E+00 0. -1.
</event>
<event>
 7    1  0.5946946E-013  0.5052885E+02  0.7816164E-02  0.1300439E+00
        -11   -1    0    0    0    0  0.00000000000E+00  0.00000000000E+00  0.45593999997E+02  0.45594000000E+02  0.51100000000E-03 0.  1.
         11   -1    0    0    0    0 -0.00000000000E+00 -0.00000000000E+00 -0.45593999997E+02  0.45594000000E+02  0.51100000000E-03 0. -1.
    9900012    2    1    2    0    0 -0.20851065141E+02  0.17115518893E+01  0.34863593967E+02  0.50528849595E+02  0.29999968828E+02 0.  0.
         12    1    1    2    0    0  0.20851065141E+02 -0.17115518893E+01 -0.34863593967E+02  0.40659150405E+02  0.00000000000E+00 0. -1.
         11    1    3    3    0    0 -0.96838902375E+01 -0.49120912101E+01 -0.14512674742E+00  0.10859439775E+02  0.51100000000E-03 0. -1.
        -11    1    3    3    0    0 -0.13896879885E+02  0.34198176389E+01  0.28921380771E+02  0.32268633209E+02  0.51100000000E-03 0.  1.
        -12    1    3    3    0    0  0.27297049809E+01  0.32038254605E+01  0.60873399428E+01  0.74007766108E+01  0.00000000000E+00 0.  1.
</event>
<event>
 7    1  0.5946946E-013  0.5052879E+02  0.7816164E-02  0.1300439E+00
        -11   -1    0    0    0    0  0.00000000000E+00  0.00000000000E+00  0.45593999997E+02  0.45594000000E+02  0.51100000000E-03 0.  1.
         11   -1    0    0    0    0 -0.00000000000E+00 -0.00000000000E+00 -0.45593999997E+02  0.45594000000E+02  0.51100000000E-03 0. -1.
    9900012    2    1    2    0    0  0.33726549468E+02  0.22705309381E+02 -0.39978515769E+00  0.50528793893E+02  0.29999799516E+02 0.  0.
         12    1    1    2    0    0 -0.33726549468E+02 -0.22705309381E+02  0.39978515769E+00  0.40659206107E+02  0.00000000000E+00 0. -1.
         11    1    3    3    0    0  0.24472811697E+02  0.83107351658E+01 -0.98929295230E+01  0.27674119429E+02  0.51100000000E-03 0. -1.
        -11    1    3    3    0    0 -0.52302312416E+00  0.53766755261E+01  0.77403384325E+01  0.94390164854E+01  0.51100000000E-03 0.  1.
        -12    1    3    3    0    0  0.97767608947E+01  0.90178986889E+01  0.17528059328E+01  0.13415657978E+02  0.00000000000E+00 0.  1.
</event>
<event>
 7    1  0.5946946E-013  0.5052886E+02  0.7816164E-02  0.1300439E+00
        -11   -1    0    0    0    0  0.00000000000E+00  0.00000000000E+00  0.45593999997E+02  0.45594000000E+02  0.51100000000E-03 0.  1.
         11   -1    0    0    0    0 -0.00000000000E+00 -0.00000000000E+00 -0.45593999997E+02  0.45594000000E+02  0.51100000000E-03 0. -1.
    9900012    2    1    2    0    0 -0.11698630296E+02  0.76672557565E+01  0.38177493978E+02  0.50528858247E+02  0.29999995128E+02 0.  0.
         12    1    1    2    0    0  0.11698630296E+02 -0.76672557565E+01 -0.38177493978E+02  0.40659141753E+02  0.00000000000E+00 0. -1.
         11    1    3    3    0    0 -0.21190172352E+01  0.13628194338E+02  0.12694771644E+02  0.18745003129E+02  0.51100000000E-03 0. -1.
        -11    1    3    3    0    0 -0.12310347614E+02 -0.48510235201E+01  0.25617758946E+02  0.28833082756E+02  0.51100000000E-03 0.  1.
         12    1    3    3    0    0  0.27307345539E+01 -0.11099150610E+01 -0.13503661093E+00  0.29507723621E+01  0.00000000000E+00 0. -1.
</event>
<event>
 7    1  0.5946946E-013  0.5052886E+02  0.7816164E-02  0.1300439E+00
        -11   -1    0    0    0    0  0.00000000000E+00  0.00000000000E+00  0.45593999997E+02  0.45594000000E+02  0.51100000000E-03 0.  1.
         11   -1    0    0    0    0 -0.00000000000E+00 -0.00000000000E+00 -0.45593999997E+02  0.45594000000E+02  0.51100000000E-03 0. -1.
    9900012    2    1    2    0    0 -0.18565228541E+02 -0.89841614279E+01  0.35039734284E+02  0.50528857780E+02  0.29999993708E+02 0.  0.
         12    1    1    2    0    0  0.18565228541E+02  0.89841614279E+01 -0.35039734284E+02  0.40659142220E+02  0.00000000000E+00 0. -1.
         11    1    3    3    0    0 -0.34134239188E+01 -0.41682114494E+01  0.16350575738E+02  0.17215306467E+02  0.51100000000E-03 0.  1.
        -11    1    3    3    0    0  0.33651465427E+01  0.37674902732E+01 -0.77493319213E+00  0.51106473098E+01  0.51100000000E-03 0. -1.
        -12    1    3    3    0    0 -0.18516951165E+02 -0.85834402517E+01  0.19464091738E+02  0.28202904003E+02  0.00000000000E+00 0.  1.
</event>
<event>
 7    1  0.5946946E-013  0.5052886E+02  0.7816164E-02  0.1300439E+00
        -11   -1    0    0    0    0  0.00000000000E+00  0.00000000000E+00  0.45593999997E+02  0.45594000000E+02  0.51100000000E-03 0. -1.
         11   -1    0    0    0    0 -0.00000000000E+00 -0.00000000000E+00 -0.45593999997E+02  0.45594000000E+02  0.51100000000E-03 0.  1.
    9900012    2    1    2    0    0  0.10517284041E+02 -0.10409450061E+02 -0.37870780185E+02  0.50528857043E+02  0.29999991469E+02 0.  0.
         12    1    1    2    0    0 -0.10517284041E+02  0.10409450061E+02  0.37870780185E+02  0.40659142957E+02  0.00000000000E+00 0. -1.
         11    1    3    3    0    0 -0.29900757906E+01 -0.28236155417E+01 -0.41983925811E+01  0.58770620626E+01  0.51100000000E-03 0. -1.
        -11    1    3    3    0    0  0.17736819983E+02 -0.94151505166E+01 -0.34549136825E+02  0.39961014727E+02  0.51100000000E-03 0.  1.
        -12    1    3    3    0    0 -0.42294601517E+01  0.18293159976E+01  0.87674922179E+00  0.46907802540E+01  0.00000000000E+00 0.  1.
</event>
<event>
 7    1  0.5946946E-013  0.5052886E+02  0.7816164E-02  0.1300439E+00
        -11   -1    0    0    0    0  0.00000000000E+00  0.00000000000E+00  0.45593999997E+02  0.45594000000E+02  0.51100000000E-03 0.  1.
         11   -1    0    0    0    0 -0.00000000000E+00 -0.00000000000E+00 -0.45593999997E+02  0.45594000000E+02  0.51100000000E-03 0. -1.
    9900012    2    1    2    0    0  0.22631832271E+02  0.31679872415E+02  0.11719700421E+02  0.50528861714E+02  0.30000005666E+02 0.  0.
         12    1    1    2    0    0 -0.22631832271E+02 -0.31679872415E+02 -0.11719700421E+02  0.40659138286E+02  0.00000000000E+00 0. -1.
         11    1    3    3    0    0  0.95837971829E+00  0.34346098551E+01 -0.22753645980E+01  0.42299315427E+01  0.51100000000E-03 0. -1.
        -11    1    3    3    0    0  0.22002610726E+02  0.22542684351E+02  0.20544893494E+02  0.37608245711E+02  0.51100000000E-03 0.  1.
        -12    1    3    3    0    0 -0.32915817309E+00  0.57025782093E+01 -0.65498284751E+01  0.86906844604E+01  0.00000000000E+00 0.  1.
</event>
<event>
 7    1  0.5946946E-013  0.5052884E+02  0.7816164E-02  0.1300439E+00
        -11   -1    0    0    0    0  0.00000000000E+00  0.00000000000E+00  0.45593999997E+02  0.45594000000E+02  0.51100000000E-03 0.  1.
         11   -1    0    0    0    0 -0.00000000000E+00 -0.00000000000E+00 -0.45593999997E+02  0.45594000000E+02  0.51100000000E-03 0. -1.
    9900012    2    1    2    0    0 -0.28286732622E+02  0.10594153506E+02  0.27217488008E+02  0.50528843782E+02  0.29999951159E+02 0.  0.
         12    1    1    2    0    0  0.28286732622E+02 -0.10594153506E+02 -0.27217488008E+02  0.40659156218E+02  0.00000000000E+00 0. -1.
         11    1    3    3    0    0  0.37744271469E+01 -0.41784003847E-01  0.59106669375E+01  0.70131326879E+01  0.51100000000E-03 0. -1.
        -11    1    3    3    0    0 -0.13508793814E+02  0.12797360433E+02  0.66038212429E+01  0.19745136100E+02  0.51100000000E-03 0.  1.
        -12    1    3    3    0    0 -0.18552365955E+02 -0.21614229234E+01  0.14702999827E+02  0.23770574993E+02  0.00000000000E+00 0.  1.
</event>
<event>
 7    1  0.5946946E-013  0.5052889E+02  0.7816164E-02  0.1300439E+00
        -11   -1    0    0    0    0  0.00000000000E+00  0.00000000000E+00  0.45593999997E+02  0.45594000000E+02  0.51100000000E-03 0.  1.
         11   -1    0    0    0    0 -0.00000000000E+00 -0.00000000000E+00 -0.45593999997E+02  0.45594000000E+02  0.51100000000E-03 0. -1.
    9900012    2    1    2    0    0 -0.14265069494E+02 -0.31825896798E+02  0.20899360453E+02  0.50528890541E+02  0.30000093287E+02 0.  0.
         12    1    1    2    0    0  0.14265069494E+02  0.31825896798E+02 -0.20899360453E+02  0.40659109459E+02  0.00000000000E+00 0. -1.
         11    1    3    3    0    0 -0.15701690109E+02 -0.27504963870E+02  0.13591002871E+02  0.34464205621E+02  0.51100000000E-03 0.  1.
        -11    1    3    3    0    0  0.62000690527E+01 -0.23611205973E+01  0.84951882808E+01  0.10778866866E+02  0.51100000000E-03 0. -1.
        -12    1    3    3    0    0 -0.47634484374E+01 -0.19598123305E+01 -0.11868306984E+01  0.52858180534E+01  0.00000000000E+00 0.  1.
</event>
<event>
 7    1  0.5946946E-013  0.5052890E+02  0.7816164E-02  0.1300439E+00
        -11   -1    0    0    0    0  0.00000000000E+00  0.00000000000E+00  0.45593999997E+02  0.45594000000E+02  0.51100000000E-03 0. -1.
         11   -1    0    0    0    0 -0.00000000000E+00 -0.00000000000E+00 -0.45593999997E+02  0.45594000000E+02  0.51100000000E-03 0.  1.
    9900012    2    1    2    0    0 -0.31454741759E+02 -0.25270457877E+02  0.50165658594E+01  0.50528895811E+02  0.30000109306E+02 0.  0.
         12    1    1    2    0    0  0.31454741759E+02  0.25270457877E+02 -0.50165658594E+01  0.40659104189E+02  0.00000000000E+00 0. -1.
         11    1    3    3    0    0 -0.62909992910E+01  0.53002943511E+01  0.69579455903E+01  0.10774172794E+02  0.51100000000E-03 0. -1.
        -11    1    3    3    0    0 -0.11855286362E+02 -0.15867154680E+02 -0.21354343548E+01  0.19921709075E+02  0.51100000000E-03 0.  1.
         12    1    3    3    0    0 -0.13308456106E+02 -0.14703597549E+02  0.19405462393E+00  0.19833013942E+02  0.00000000000E+00 0. -1.
</event>
<event>
 7    1  0.5946946E-013  0.5052888E+02  0.7816164E-02  0.1300439E+00
        -11   -1    0    0    0    0  0.00000000000E+00  0.00000000000E+00  0.45593999997E+02  0.45594000000E+02  0.51100000000E-03 0.  1.
         11   -1    0    0    0    0 -0.00000000000E+00 -0.00000000000E+00 -0.45593999997E+02  0.45594000000E+02  0.51100000000E-03 0. -1.
    9900012    2    1    2    0    0 -0.39187859142E+02 -0.94223992924E+01  0.53566966339E+01  0.50528879112E+02  0.30000058550E+02 0.  0.
         12    1    1    2    0    0  0.39187859142E+02  0.94223992924E+01 -0.53566966339E+01  0.40659120888E+02  0.00000000000E+00 0. -1.
         11    1    3    3    0    0 -0.47738243245E+01 -0.77034593031E+01  0.96160140271E+00  0.91135811531E+01  0.51100000000E-03 0. -1.
        -11    1    3    3    0    0 -0.35261879391E+02  0.20513303542E+01 -0.31484545470E+00  0.35322899405E+02  0.51100000000E-03 0.  1.
        -12    1    3    3    0    0  0.84784457419E+00 -0.37702703435E+01  0.47099406859E+01  0.60923985547E+01  0.00000000000E+00 0.  1.
</event>
<event>
 7    1  0.5946946E-013  0.5052878E+02  0.7816164E-02  0.1300439E+00
        -11   -1    0    0    0    0  0.00000000000E+00  0.00000000000E+00  0.45593999997E+02  0.45594000000E+02  0.51100000000E-03 0. -1.
         11   -1    0    0    0    0 -0.00000000000E+00 -0.00000000000E+00 -0.45593999997E+02  0.45594000000E+02  0.51100000000E-03 0.  1.
    9900012    2    1    2    0    0  0.28096146795E+02  0.20954910356E+02 -0.20607529788E+02  0.50528781897E+02  0.29999763054E+02 0.  0.
         12    1    1    2    0    0 -0.28096146795E+02 -0.20954910356E+02  0.20607529788E+02  0.40659218103E+02  0.00000000000E+00 0. -1.
         11    1    3    3    0    0  0.14703119394E+02 -0.51142357932E+01 -0.51366397791E+01  0.16392748279E+02  0.51100000000E-03 0. -1.
        -11    1    3    3    0    0  0.11340531738E+02  0.14899086564E+02 -0.12083525229E+02  0.22284569162E+02  0.51100000000E-03 0.  1.
         12    1    3    3    0    0  0.20524956629E+01  0.11170059586E+02 -0.33873647805E+01  0.11851464456E+02  0.00000000000E+00 0. -1.
</event>
<event>
 7    1  0.5946946E-013  0.5052885E+02  0.7816164E-02  0.1300439E+00
        -11   -1    0    0    0    0  0.00000000000E+00  0.00000000000E+00  0.45593999997E+02  0.45594000000E+02  0.51100000000E-03 0.  1.
         11   -1    0    0    0    0 -0.00000000000E+00 -0.00000000000E+00 -0.45593999997E+02  0.45594000000E+02  0.51100000000E-03 0. -1.
    9900012    2    1    2    0    0  0.52654116775E+01 -0.10650319327E+02  0.38884602250E+02  0.50528853993E+02  0.29999982197E+02 0.  0.
         12    1    1    2    0    0 -0.52654116775E+01  0.10650319327E+02 -0.38884602250E+02  0.40659146007E+02  0.00000000000E+00 0. -1.
         11    1    3    3    0    0  0.78527208661E+01  0.81486961713E+01  0.16487068048E+02  0.19997246995E+02  0.51100000000E-03 0. -1.
        -11    1    3    3    0    0 -0.46841455758E+01 -0.14844675479E+02  0.13640747466E+02  0.20697236568E+02  0.51100000000E-03 0.  1.
        -12    1    3    3    0    0  0.20968363872E+01 -0.39543400196E+01  0.87567867361E+01  0.98343704306E+01  0.00000000000E+00 0.  1.
</event>
<event>
 7    1  0.5946946E-013  0.5052886E+02  0.7816164E-02  0.1300439E+00
        -11   -1    0    0    0    0  0.00000000000E+00  0.00000000000E+00  0.45593999997E+02  0.45594000000E+02  0.51100000000E-03 0.  1.
         11   -1    0    0    0    0 -0.00000000000E+00 -0.00000000000E+00 -0.45593999997E+02  0.45594000000E+02  0.51100000000E-03 0. -1.
    9900012    2    1    2    0    0  0.38700025777E+02  0.10811158542E+02  0.62122787978E+01  0.50528861396E+02  0.30000004698E+02 0.  0.
         12    1    1    2    0    0 -0.38700025777E+02 -0.10811158542E+02 -0.62122787978E+01  0.40659138604E+02  0.00000000000E+00 0. -1.
         11    1    3    3    0    0 -0.34219355389E+01  0.67647926754E+00 -0.32588107097E+01  0.47735850820E+01  0.51100000000E-03 0. -1.
        -11    1    3    3    0    0  0.19815064234E+02  0.35535947121E+01  0.10029291399E+02  0.22491142528E+02  0.51100000000E-03 0.  1.
        -12    1    3    3    0    0  0.22306897082E+02  0.65810845622E+01 -0.55820189155E+00  0.23264133786E+02  0.00000000000E+00 0.  1.
</event>
<event>
 7    1  0.5946946E-013  0.5052886E+02  0.7816164E-02  0.1300439E+00
        -11   -1    0    0    0    0  0.00000000000E+00  0.00000000000E+00  0.45593999997E+02  0.45594000000E+02  0.51100000000E-03 0.  1.
         11   -1    0    0    0    0 -0.00000000000E+00 -0.00000000000E+00 -0.45593999997E+02  0.45594000000E+02  0.51100000000E-03 0. -1.
    9900012    2    1    2    0    0 -0.29723492992E+02  0.22420317935E+02  0.16340399516E+02  0.50528863901E+02  0.30000012315E+02 0.  0.
         12    1    1    2    0    0  0.29723492992E+02 -0.22420317935E+02 -0.16340399516E+02  0.40659136099E+02  0.00000000000E+00 0. -1.
         11    1    3    3    0    0 -0.13480987499E+01  0.15513196862E+02  0.64795236199E+01  0.16865967915E+02  0.51100000000E-03 0. -1.
        -11    1    3    3    0    0 -0.20745430918E+02 -0.15410190547E+01  0.63758093632E+01  0.21757724812E+02  0.51100000000E-03 0.  1.
         12    1    3    3    0    0 -0.76299633237E+01  0.84481401285E+01  0.34850665326E+01  0.11905171174E+02  0.00000000000E+00 0. -1.
</event>
<event>
 7    1  0.5946946E-013  0.5052890E+02  0.7816164E-02  0.1300439E+00
        -11   -1    0    0    0    0  0.00000000000E+00  0.00000000000E+00  0.45593999997E+02  0.45594000000E+02  0.51100000000E-03 0.  1.
         11   -1    0    0    0    0 -0.00000000000E+00 -0.00000000000E+00 -0.45593999997E+02  0.45594000000E+02  0.51100000000E-03 0. -1.
    9900012    2    1    2    0    0  0.27868781124E+02  0.11192497642E+02  0.27408420082E+02  0.50528899467E+02  0.30000120418E+02 0.  0.
         12    1    1    2    0    0 -0.27868781124E+02 -0.11192497642E+02 -0.27408420082E+02  0.40659100533E+02  0.00000000000E+00 0. -1.
         11    1    3    3    0    0  0.92385336513E+01 -0.46623371133E+01  0.12149332879E+02  0.15959140987E+02  0.51100000000E-03 0. -1.
        -11    1    3    3    0    0 -0.13041678487E+01  0.10205741545E+02  0.46182678929E+01  0.11277695370E+02  0.51100000000E-03 0.  1.
        -12    1    3    3    0    0  0.19934415322E+02  0.56490932105E+01  0.10640819309E+02  0.23292063109E+02  0.00000000000E+00 0.  1.
</event>
<event>
 7    1  0.5946946E-013  0.5052887E+02  0.7816164E-02  0.1300439E+00
        -11   -1    0    0    0    0  0.00000000000E+00  0.00000000000E+00  0.45593999997E+02  0.45594000000E+02  0.51100000000E-03 0.  1.
         11   -1    0    0    0    0 -0.00000000000E+00 -0.00000000000E+00 -0.45593999997E+02  0.45594000000E+02  0.51100000000E-03 0. -1.
    9900012    2    1    2    0    0 -0.14716291917E+02 -0.18259972730E+02  0.33213983858E+02  0.50528873403E+02  0.30000041196E+02 0.  0.
         12    1    1    2    0    0  0.14716291917E+02  0.18259972730E+02 -0.33213983858E+02  0.40659126597E+02  0.00000000000E+00 0. -1.
         11    1    3    3    0    0  0.77069973915E+01 -0.11484104519E+02  0.93948571001E+01  0.16719623369E+02  0.51100000000E-03 0. -1.
        -11    1    3    3    0    0 -0.82007663428E+00 -0.75767198222E+00  0.30323055233E+01  0.32313262860E+01  0.51100000000E-03 0.  1.
         12    1    3    3    0    0 -0.21603212674E+02 -0.60181962288E+01  0.20786821235E+02  0.30577923748E+02  0.00000000000E+00 0. -1.
</event>
<event>
 7    1  0.5946946E-013  0.5052886E+02  0.7816164E-02  0.1300439E+00
        -11   -1    0    0    0    0  0.00000000000E+00  0.00000000000E+00  0.45593999997E+02  0.45594000000E+02  0.51100000000E-03 0. -1.
         11   -1    0    0    0    0 -0.00000000000E+00 -0.00000000000E+00 -0.45593999997E+02  0.45594000000E+02  0.51100000000E-03 0.  1.
    9900012    2    1    2    0    0 -0.31878907798E+02  0.10678279377E+02 -0.22866466056E+02  0.50528859788E+02  0.29999999811E+02 0.  0.
         12    1    1    2    0    0  0.31878907798E+02 -0.10678279377E+02  0.22866466056E+02  0.40659140212E+02  0.00000000000E+00 0. -1.
         11    1    3    3    0    0 -0.39881065372E+01  0.14860413416E+02 -0.32750139623E+01  0.15730943944E+02  0.51100000000E-03 0. -1.
        -11    1    3    3    0    0 -0.26462550591E+02 -0.37415809027E+01 -0.16620898026E+02  0.31472531879E+02  0.51100000000E-03 0.  1.
         12    1    3    3    0    0 -0.14282506704E+01 -0.44055313656E+00 -0.29705540683E+01  0.33253839652E+01  0.00000000000E+00 0. -1.
</event>
<event>
 7    1  0.5946946E-013  0.5052886E+02  0.7816164E-02  0.1300439E+00
        -11   -1    0    0    0    0  0.00000000000E+00  0.00000000000E+00  0.45593999997E+02  0.45594000000E+02  0.51100000000E-03 0. -1.
         11   -1    0    0    0    0 -0.00000000000E+00 -0.00000000000E+00 -0.45593999997E+02  0.45594000000E+02  0.51100000000E-03 0.  1.
    9900012    2    1    2    0    0  0.39910871904E+02 -0.48490278748E+01 -0.60642027110E+01  0.50528864225E+02  0.30000013298E+02 0.  0.
         12    1    1    2    0    0 -0.39910871904E+02  0.48490278748E+01  0.60642027110E+01  0.40659135775E+02  0.00000000000E+00 0. -1.
         11    1    3    3    0    0  0.27332829382E+02 -0.67078703886E+01  0.20246833129E+01  0.28216633923E+02  0.51100000000E-03 0. -1.
        -11    1    3    3    0    0  0.13832251632E+02  0.53915782794E+01 -0.10197796401E+02  0.18010978687E+02  0.51100000000E-03 0.  1.
         12    1    3    3    0    0 -0.12542091102E+01 -0.35327357657E+01  0.21089103766E+01  0.43012516154E+01  0.00000000000E+00 0. -1.
</event>
<event>
 7    1  0.5946946E-013  0.5052886E+02  0.7816164E-02  0.1300439E+00
        -11   -1    0    0    0    0  0.00000000000E+00  0.00000000000E+00  0.45593999997E+02  0.45594000000E+02  0.51100000000E-03 0.  1.
         11   -1    0    0    0    0 -0.00000000000E+00 -0.00000000000E+00 -0.45593999997E+02  0.45594000000E+02  0.51100000000E-03 0. -1.
    9900012    2    1    2    0    0 -0.26513351751E+02  0.30785132238E+02  0.15759470273E+01  0.50528858383E+02  0.29999995542E+02 0.  0.
         12    1    1    2    0    0  0.26513351751E+02 -0.30785132238E+02 -0.15759470273E+01  0.40659141617E+02  0.00000000000E+00 0. -1.
         11    1    3    3    0    0 -0.69344133945E+00  0.13694896376E+01 -0.77835742753E+01  0.79334980633E+01  0.51100000000E-03 0. -1.
        -11    1    3    3    0    0 -0.24556704945E+02  0.30841998987E+02  0.79308527655E+01  0.40213916560E+02  0.51100000000E-03 0.  1.
        -12    1    3    3    0    0 -0.12632054668E+01 -0.14263563865E+01  0.14286685371E+01  0.23814437599E+01  0.00000000000E+00 0.  1.
</event>
<event>
 7    1  0.5946946E-013  0.5052889E+02  0.7816164E-02  0.1300439E+00
        -11   -1    0    0    0    0  0.00000000000E+00  0.00000000000E+00  0.45593999997E+02  0.45594000000E+02  0.51100000000E-03 0.  1.
         11   -1    0    0    0    0 -0.00000000000E+00 -0.00000000000E+00 -0.45593999997E+02  0.45594000000E+02  0.51100000000E-03 0. -1.
    9900012    2    1    2    0    0  0.39021110955E+02 -0.20157781525E+01  0.11245106304E+02  0.50528894285E+02  0.30000104669E+02 0.  0.
         12    1    1    2    0    0 -0.39021110955E+02  0.20157781525E+01 -0.11245106304E+02  0.40659105715E+02  0.00000000000E+00 0. -1.
         11    1    3    3    0    0  0.59054612841E+01 -0.11307865109E+02  0.41054840774E+01  0.13401391199E+02  0.51100000000E-03 0. -1.
        -11    1    3    3    0    0  0.25616879269E+02  0.60321885885E+01  0.10436249545E+02  0.28311254078E+02  0.51100000000E-03 0.  1.
         12    1    3    3    0    0  0.74987704021E+01  0.32598983675E+01 -0.32966273175E+01  0.88162490086E+01  0.00000000000E+00 0. -1.
</event>
<event>
 7    1  0.5946946E-013  0.5052885E+02  0.7816164E-02  0.1300439E+00
        -11   -1    0    0    0    0  0.00000000000E+00  0.00000000000E+00  0.45593999997E+02  0.45594000000E+02  0.51100000000E-03 0. -1.
         11   -1    0    0    0    0 -0.00000000000E+00 -0.00000000000E+00 -0.45593999997E+02  0.45594000000E+02  0.51100000000E-03 0.  1.
    9900012    2    1    2    0    0  0.37184141253E+01 -0.18940154136E+02 -0.35785618486E+02  0.50528849336E+02  0.29999968042E+02 0.  0.
         12    1    1    2    0    0 -0.37184141253E+01  0.18940154136E+02  0.35785618486E+02  0.40659150664E+02  0.00000000000E+00 0. -1.
         11    1    3    3    0    0 -0.83830392737E+01  0.24048621927E+00 -0.27821534268E+01  0.88359243454E+01  0.51100000000E-03 0. -1.
        -11    1    3    3    0    0  0.12575658799E+01 -0.11583434063E+02 -0.19929263914E+02  0.23085341172E+02  0.51100000000E-03 0.  1.
         12    1    3    3    0    0  0.10843887519E+02 -0.75972062923E+01 -0.13074201145E+02  0.18607583818E+02  0.00000000000E+00 0. -1.
</event>
<event>
 7    1  0.5946946E-013  0.5052888E+02  0.7816164E-02  0.1300439E+00
        -11   -1    0    0    0    0  0.00000000000E+00  0.00000000000E+00  0.45593999997E+02  0.45594000000E+02  0.51100000000E-03 0.  1.
         11   -1    0    0    0    0 -0.00000000000E+00 -0.00000000000E+00 -0.45593999997E+02  0.45594000000E+02  0.51100000000E-03 0. -1.
    9900012    2    1    2    0    0  0.15510736393E+01  0.20167452654E+01  0.40579444093E+02  0.50528875885E+02  0.30000048739E+02 0.  0.
         12    1    1    2    0    0 -0.15510736393E+01 -0.20167452654E+01 -0.40579444093E+02  0.40659124115E+02  0.00000000000E+00 0. -1.
         11    1    3    3    0    0  0.11166304017E+02  0.63040484677E+01  0.16583513865E+02  0.20962831509E+02  0.51100000000E-03 0. -1.
        -11    1    3    3    0    0 -0.12064743542E+02 -0.67266182162E+01  0.19393465594E+02  0.23809912586E+02  0.51100000000E-03 0.  1.
        -12    1    3    3    0    0  0.24495131638E+01  0.24393150140E+01  0.46024646346E+01  0.57561317905E+01  0.00000000000E+00 0.  1.
</event>
<event>
 7    1  0.5946946E-013  0.5052885E+02  0.7816164E-02  0.1300439E+00
        -11   -1    0    0    0    0  0.00000000000E+00  0.00000000000E+00  0.45593999997E+02  0.45594000000E+02  0.51100000000E-03 0.  1.
         11   -1    0    0    0    0 -0.00000000000E+00 -0.00000000000E+00 -0.45593999997E+02  0.45594000000E+02  0.51100000000E-03 0. -1.
    9900012    2    1    2    0    0 -0.39713786384E+02 -0.46548312886E+01  0.73697929972E+01  0.50528854262E+02  0.29999983016E+02 0.  0.
         12    1    1    2    0    0  0.39713786384E+02  0.46548312886E+01 -0.73697929972E+01  0.40659145738E+02  0.00000000000E+00 0. -1.
         11    1    3    3    0    0 -0.76222048088E+01 -0.76693363282E+01  0.35265384184E+01  0.11373354797E+02  0.51100000000E-03 0. -1.
        -11    1    3    3    0    0 -0.20888850189E+02  0.11970463520E+02 -0.77380358744E+00  0.24088064085E+02  0.51100000000E-03 0.  1.
        -12    1    3    3    0    0 -0.11202731387E+02 -0.89559584808E+01  0.46170581662E+01  0.15067435380E+02  0.00000000000E+00 0.  1.
</event>
<event>
 7    1  0.5946946E-013  0.5052886E+02  0.7816164E-02  0.1300439E+00
        -11   -1    0    0    0    0  0.00000000000E+00  0.00000000000E+00  0.45593999997E+02  0.45594000000E+02  0.51100000000E-03 0.  1.
         11   -1    0    0    0    0 -0.00000000000E+00 -0.00000000000E+00 -0.45593999997E+02  0.45594000000E+02  0.51100000000E-03 0. -1.
    9900012    2    1    2    0    0  0.25620143857E+02  0.81591125021E+01  0.30499224469E+02  0.50528861036E+02  0.30000003604E+02 0.  0.
         12    1    1    2    0    0 -0.25620143857E+02 -0.81591125021E+01 -0.30499224469E+02  0.40659138964E+02  0.00000000000E+00 0. -1.
         11    1    3    3    0    0 -0.94316184154E+00  0.26100523056E+01  0.77327819381E+01  0.82157071553E+01  0.51100000000E-03 0. -1.
        -11    1    3    3    0    0  0.30142651426E+02  0.80948859719E+01  0.19096402130E+02  0.36589331621E+02  0.51100000000E-03 0.  1.
        -12    1    3    3    0    0 -0.35793457272E+01 -0.25458257754E+01  0.36700404013E+01  0.57238222597E+01  0.00000000000E+00 0.  1.
</event>
<event>
 7    1  0.5946946E-013  0.5052883E+02  0.7816164E-02  0.1300439E+00
        -11   -1    0    0    0    0  0.00000000000E+00  0.00000000000E+00  0.45593999997E+02  0.45594000000E+02  0.51100000000E-03 0.  1.
         11   -1    0    0    0    0 -0.00000000000E+00 -0.00000000000E+00 -0.45593999997E+02  0.45594000000E+02  0.51100000000E-03 0. -1.
    9900012    2    1    2    0    0 -0.30483750932E+02  0.26782908002E+02 -0.25661044581E+01  0.50528829767E+02  0.29999908561E+02 0.  0.
         12    1    1    2    0    0  0.30483750932E+02 -0.26782908002E+02  0.25661044581E+01  0.40659170233E+02  0.00000000000E+00 0. -1.
         11    1    3    3    0    0 -0.16938534753E+02  0.67282130279E+01 -0.90270028686E+01  0.20338868975E+02  0.51100000000E-03 0. -1.
        -11    1    3    3    0    0 -0.19562089808E+00  0.14635762091E+02  0.64017301156E+00  0.14651062121E+02  0.51100000000E-03 0.  1.
        -12    1    3    3    0    0 -0.13349595281E+02  0.54189328825E+01  0.58207253989E+01  0.15538898671E+02  0.00000000000E+00 0.  1.
</event>
<event>
 7    1  0.5946946E-013  0.5052884E+02  0.7816164E-02  0.1300439E+00
        -11   -1    0    0    0    0  0.00000000000E+00  0.00000000000E+00  0.45593999997E+02  0.45594000000E+02  0.51100000000E-03 0. -1.
         11   -1    0    0    0    0 -0.00000000000E+00 -0.00000000000E+00 -0.45593999997E+02  0.45594000000E+02  0.51100000000E-03 0.  1.
    9900012    2    1    2    0    0 -0.27397523491E+02 -0.17327824760E+02 -0.24541579933E+02  0.50528844205E+02  0.29999952447E+02 0.  0.
         12    1    1    2    0    0  0.27397523491E+02  0.17327824760E+02  0.24541579933E+02  0.40659155795E+02  0.00000000000E+00 0. -1.
         11    1    3    3    0    0 -0.25162100683E+02 -0.48623073727E+01 -0.15274260443E+02  0.29834147819E+02  0.51100000000E-03 0. -1.
        -11    1    3    3    0    0  0.21767826841E+01 -0.13003328603E+01 -0.82677016317E+01  0.86477823131E+01  0.51100000000E-03 0.  1.
         12    1    3    3    0    0 -0.44122054920E+01 -0.11165184527E+02 -0.99961785761E+00  0.12046914073E+02  0.00000000000E+00 0. -1.
</event>
<event>
 7    1  0.5946946E-013  0.5052885E+02  0.7816164E-02  0.1300439E+00
        -11   -1    0    0    0    0  0.00000000000E+00  0.00000000000E+00  0.45593999997E+02  0.45594000000E+02  0.51100000000E-03 0. -1.
         11   -1    0    0    0    0 -0.00000000000E+00 -0.00000000000E+00 -0.45593999997E+02  0.45594000000E+02  0.51100000000E-03 0.  1.
    9900012    2    1    2    0    0 -0.21516395806E+02  0.39064752396E+01 -0.34277548860E+02  0.50528853512E+02  0.29999980734E+02 0.  0.
         12    1    1    2    0    0  0.21516395806E+02 -0.39064752396E+01  0.34277548860E+02  0.40659146488E+02  0.00000000000E+00 0. -1.
         11    1    3    3    0    0 -0.49462311656E+01 -0.86937051964E+01 -0.13116238021E+02  0.16494890508E+02  0.51100000000E-03 0. -1.
        -11    1    3    3    0    0 -0.19574948121E+02  0.80335737432E+01 -0.16155228368E+02  0.26621575928E+02  0.51100000000E-03 0.  1.
        -12    1    3    3    0    0  0.30047834801E+01  0.45666066929E+01 -0.50060824710E+01  0.74123870754E+01  0.00000000000E+00 0.  1.
</event>
<event>
 7    1  0.6093116E-013  0.5052899E+02  0.7816164E-02  0.1300438E+00
        -11   -1    0    0    0    0  0.00000000000E+00  0.00000000000E+00  0.45593999997E+02  0.45594000000E+02  0.51100000000E-03 0.  1.
         11   -1    0    0    0    0 -0.00000000000E+00 -0.00000000000E+00 -0.45593999997E+02  0.45594000000E+02  0.51100000000E-03 0. -1.
    9900012    2    1    2    0    0  0.36622005310E+02 -0.16715285216E+02 -0.57081311818E+01  0.50528993687E+02  0.30000406807E+02 0.  0.
         12    1    1    2    0    0 -0.36622005310E+02  0.16715285216E+02  0.57081311818E+01  0.40659006313E+02  0.00000000000E+00 0. -1.
         11    1    3    3    0    0  0.76755535374E+01 -0.29462142572E+00 -0.10146178875E+02  0.12725795453E+02  0.51100000000E-03 0. -1.
        -11    1    3    3    0    0  0.16088640026E+02 -0.18390115670E+02  0.15820004104E+01  0.24485575709E+02  0.51100000000E-03 0.  1.
        -12    1    3    3    0    0  0.12857811747E+02  0.19694518798E+01  0.28560472827E+01  0.13317622524E+02  0.00000000000E+00 0.  1.
</event>
<event>
 7    1  0.5946946E-013  0.5052886E+02  0.7816164E-02  0.1300439E+00
        -11   -1    0    0    0    0  0.00000000000E+00  0.00000000000E+00  0.45593999997E+02  0.45594000000E+02  0.51100000000E-03 0.  1.
         11   -1    0    0    0    0 -0.00000000000E+00 -0.00000000000E+00 -0.45593999997E+02  0.45594000000E+02  0.51100000000E-03 0. -1.
    9900012    2    1    2    0    0 -0.29421010797E+02  0.38561927445E+01  0.27797473426E+02  0.50528860466E+02  0.30000001873E+02 0.  0.
         12    1    1    2    0    0  0.29421010797E+02 -0.38561927445E+01 -0.27797473426E+02  0.40659139534E+02  0.00000000000E+00 0. -1.
         11    1    3    3    0    0 -0.33352502347E+02  0.61687925210E+01  0.20830176520E+02  0.39803764496E+02  0.51100000000E-03 0. -1.
        -11    1    3    3    0    0  0.27780005835E+01  0.21549664048E+01  0.34221885548E+01  0.49063777080E+01  0.51100000000E-03 0.  1.
         12    1    3    3    0    0  0.11534909665E+01 -0.44675661813E+01  0.35451083512E+01  0.58187182623E+01  0.00000000000E+00 0. -1.
</event>
<event>
 7    1  0.5946946E-013  0.5052887E+02  0.7816164E-02  0.1300439E+00
        -11   -1    0    0    0    0  0.00000000000E+00  0.00000000000E+00  0.45593999997E+02  0.45594000000E+02  0.51100000000E-03 0. -1.
         11   -1    0    0    0    0 -0.00000000000E+00 -0.00000000000E+00 -0.45593999997E+02  0.45594000000E+02  0.51100000000E-03 0.  1.
    9900012    2    1    2    0    0 -0.33012972263E+02  0.70036006995E+01 -0.22677264357E+02  0.50528867212E+02  0.30000022378E+02 0.  0.
         12    1    1    2    0    0  0.33012972263E+02 -0.70036006995E+01  0.22677264357E+02  0.40659132788E+02  0.00000000000E+00 0. -1.
         11    1    3    3    0    0 -0.33864742139E+02  0.49055073686E+00 -0.94903839542E+01  0.35172841626E+02  0.51100000000E-03 0. -1.
        -11    1    3    3    0    0  0.22870087795E+01  0.47626968633E+01 -0.70140418865E+01  0.87812569952E+01  0.51100000000E-03 0.  1.
        -12    1    3    3    0    0 -0.14352389028E+01  0.17503530994E+01 -0.61728385159E+01  0.65747685909E+01  0.00000000000E+00 0.  1.
</event>
<event>
 7    1  0.5946946E-013  0.5052885E+02  0.7816164E-02  0.1300439E+00
        -11   -1    0    0    0    0  0.00000000000E+00  0.00000000000E+00  0.45593999997E+02  0.45594000000E+02  0.51100000000E-03 0.  1.
         11   -1    0    0    0    0 -0.00000000000E+00 -0.00000000000E+00 -0.45593999997E+02  0.45594000000E+02  0.51100000000E-03 0. -1.
    9900012    2    1    2    0    0  0.27576440287E+02 -0.28951675161E+02 -0.73828936670E+01  0.50528847618E+02  0.29999962820E+02 0.  0.
         12    1    1    2    0    0 -0.27576440287E+02  0.28951675161E+02  0.73828936670E+01  0.40659152382E+02  0.00000000000E+00 0. -1.
         11    1    3    3    0    0  0.70704244279E+01 -0.13214041865E+02 -0.10916145755E+02  0.18540874909E+02  0.51100000000E-03 0. -1.
        -11    1    3    3    0    0  0.19526857971E+02 -0.58820483124E+01  0.68969867430E+01  0.21528239616E+02  0.51100000000E-03 0.  1.
        -12    1    3    3    0    0  0.97915788805E+00 -0.98555849837E+01 -0.33637346553E+01  0.10459733093E+02  0.00000000000E+00 0.  1.
</event>
<event>
 7    1  0.5946946E-013  0.5052886E+02  0.7816164E-02  0.1300439E+00
        -11   -1    0    0    0    0  0.00000000000E+00  0.00000000000E+00  0.45593999997E+02  0.45594000000E+02  0.51100000000E-03 0.  1.
         11   -1    0    0    0    0 -0.00000000000E+00 -0.00000000000E+00 -0.45593999997E+02  0.45594000000E+02  0.51100000000E-03 0. -1.
    9900012    2    1    2    0    0  0.24218761369E+02  0.13720117007E+02  0.29637404052E+02  0.50528859184E+02  0.29999997977E+02 0.  0.
         12    1    1    2    0    0 -0.24218761369E+02 -0.13720117007E+02 -0.29637404052E+02  0.40659140816E+02  0.00000000000E+00 0. -1.
         11    1    3    3    0    0  0.19862753751E+02  0.10465154302E+02  0.10444035573E+02  0.24761387693E+02  0.51100000000E-03 0. -1.
        -11    1    3    3    0    0  0.15185985578E+01  0.55111314480E+01  0.20966601051E+02  0.21731936667E+02  0.51100000000E-03 0.  1.
         12    1    3    3    0    0  0.28374090594E+01 -0.22561687430E+01 -0.17732325717E+01  0.40355348246E+01  0.00000000000E+00 0. -1.
</event>
<event>
 7    1  0.5946946E-013  0.5052884E+02  0.7816164E-02  0.1300439E+00
        -11   -1    0    0    0    0  0.00000000000E+00  0.00000000000E+00  0.45593999997E+02  0.45594000000E+02  0.51100000000E-03 0.  1.
         11   -1    0    0    0    0 -0.00000000000E+00 -0.00000000000E+00 -0.45593999997E+02  0.45594000000E+02  0.51100000000E-03 0. -1.
    9900012    2    1    2    0    0 -0.21910886967E+02 -0.33774636210E+02  0.56880992122E+01  0.50528837546E+02  0.29999932204E+02 0.  0.
         12    1    1    2    0    0  0.21910886967E+02  0.33774636210E+02 -0.56880992122E+01  0.40659162454E+02  0.00000000000E+00 0. -1.
         11    1    3    3    0    0  0.51200722629E+01 -0.56224348085E+01 -0.44061043641E+01  0.87886670822E+01  0.51100000000E-03 0. -1.
        -11    1    3    3    0    0 -0.17362674124E+02 -0.10285935027E+02  0.46724931074E+01  0.20714610888E+02  0.51100000000E-03 0.  1.
         12    1    3    3    0    0 -0.96682851057E+01 -0.17866266375E+02  0.54217104689E+01  0.21025559576E+02  0.00000000000E+00 0. -1.
</event>
<event>
 7    1  0.5946946E-013  0.5052885E+02  0.7816164E-02  0.1300439E+00
        -11   -1    0    0    0    0  0.00000000000E+00  0.00000000000E+00  0.45593999997E+02  0.45594000000E+02  0.51100000000E-03 0. -1.
         11   -1    0    0    0    0 -0.00000000000E+00 -0.00000000000E+00 -0.45593999997E+02  0.45594000000E+02  0.51100000000E-03 0.  1.
    9900012    2    1    2    0    0 -0.28661051941E+02  0.24257969867E+02 -0.15596834004E+02  0.50528853042E+02  0.29999979306E+02 0.  0.
         12    1    1    2    0    0  0.28661051941E+02 -0.24257969867E+02  0.15596834004E+02  0.40659146958E+02  0.00000000000E+00 0. -1.
         11    1    3    3    0    0  0.22490869116E+01  0.87068215891E+00 -0.14955360278E+01  0.28377997867E+01  0.51100000000E-03 0. -1.
        -11    1    3    3    0    0 -0.30696552103E+02  0.26847039446E+02 -0.93995452259E+01  0.41849650999E+02  0.51100000000E-03 0.  1.
        -12    1    3    3    0    0 -0.21358674912E+00 -0.34597517380E+01 -0.47017527506E+01  0.58414022559E+01  0.00000000000E+00 0.  1.
</event>
<event>
 7    1  0.5946946E-013  0.5052886E+02  0.7816164E-02  0.1300439E+00
        -11   -1    0    0    0    0  0.00000000000E+00  0.00000000000E+00  0.45593999997E+02  0.45594000000E+02  0.51100000000E-03 0.  1.
         11   -1    0    0    0    0 -0.00000000000E+00 -0.00000000000E+00 -0.45593999997E+02  0.45594000000E+02  0.51100000000E-03 0. -1.
    9900012    2    1    2    0    0 -0.32588794036E+02  0.20456542707E+02  0.13140253011E+02  0.50528857295E+02  0.29999992235E+02 0.  0.
         12    1    1    2    0    0  0.32588794036E+02 -0.20456542707E+02 -0.13140253011E+02  0.40659142705E+02  0.00000000000E+00 0. -1.
         11    1    3    3    0    0 -0.12054603446E+01  0.66801860103E+01  0.87170094153E+01  0.11048270144E+02  0.51100000000E-03 0. -1.
        -11    1    3    3    0    0 -0.23008190680E+02  0.32579913791E+00  0.52945453633E+01  0.23611759661E+02  0.51100000000E-03 0.  1.
        -12    1    3    3    0    0 -0.83751430120E+01  0.13450557559E+02 -0.87130176759E+00  0.15868827490E+02  0.00000000000E+00 0.  1.
</event>
<event>
 7    1  0.6268301E-013  0.5052886E+02  0.7816164E-02  0.1300439E+00
        -11   -1    0    0    0    0  0.00000000000E+00  0.00000000000E+00  0.45593999997E+02  0.45594000000E+02  0.51100000000E-03 0. -1.
         11   -1    0    0    0    0 -0.00000000000E+00 -0.00000000000E+00 -0.45593999997E+02  0.45594000000E+02  0.51100000000E-03 0.  1.
    9900012    2    1    2    0    0 -0.46357746737E+01  0.78285054115E+01 -0.39628138566E+02  0.50528864864E+02  0.30000015239E+02 0.  0.
         12    1    1    2    0    0  0.46357746737E+01 -0.78285054115E+01  0.39628138566E+02  0.40659135136E+02  0.00000000000E+00 0. -1.
         11    1    3    3    0    0  0.36788921648E+01 -0.10858504597E+01 -0.10497325082E+01  0.39768401251E+01  0.51100000000E-03 0. -1.
        -11    1    3    3    0    0 -0.14865223774E+02 -0.87010875827E-01 -0.20541721888E+02  0.25356355952E+02  0.51100000000E-03 0.  1.
        -12    1    3    3    0    0  0.65505569355E+01  0.90013667470E+01 -0.18036684170E+02  0.21195668787E+02  0.00000000000E+00 0.  1.
</event>
<event>
 7    1  0.5946946E-013  0.5052880E+02  0.7816164E-02  0.1300439E+00
        -11   -1    0    0    0    0  0.00000000000E+00  0.00000000000E+00  0.45593999997E+02  0.45594000000E+02  0.51100000000E-03 0. -1.
         11   -1    0    0    0    0 -0.00000000000E+00 -0.00000000000E+00 -0.45593999997E+02  0.45594000000E+02  0.51100000000E-03 0.  1.
    9900012    2    1    2    0    0 -0.60390529252E+01  0.26956649869E+02 -0.29833525254E+02  0.50528802253E+02  0.29999824927E+02 0.  0.
         12    1    1    2    0    0  0.60390529252E+01 -0.26956649869E+02  0.29833525254E+02  0.40659197747E+02  0.00000000000E+00 0. -1.
         11    1    3    3    0    0  0.88714444386E+01  0.39003880512E+01 -0.24635435164E+01  0.99992299852E+01  0.51100000000E-03 0. -1.
        -11    1    3    3    0    0 -0.14632279245E+02  0.22276367186E+02 -0.20537570427E+02  0.33647168235E+02  0.51100000000E-03 0.  1.
         12    1    3    3    0    0 -0.27821811838E+00  0.77989463164E+00 -0.68324113105E+01  0.68824040331E+01  0.00000000000E+00 0. -1.
</event>
<event>
 7    1  0.5946946E-013  0.5052885E+02  0.7816164E-02  0.1300439E+00
        -11   -1    0    0    0    0  0.00000000000E+00  0.00000000000E+00  0.45593999997E+02  0.45594000000E+02  0.51100000000E-03 0.  1.
         11   -1    0    0    0    0 -0.00000000000E+00 -0.00000000000E+00 -0.45593999997E+02  0.45594000000E+02  0.51100000000E-03 0. -1.
    9900012    2    1    2    0    0 -0.14983537278E+02  0.50908009759E+01  0.37453217598E+02  0.50528854013E+02  0.29999982258E+02 0.  0.
         12    1    1    2    0    0  0.14983537278E+02 -0.50908009759E+01 -0.37453217598E+02  0.40659145987E+02  0.00000000000E+00 0. -1.
         11    1    3    3    0    0 -0.30568470600E-01 -0.88790383103E+01  0.15571536994E+02  0.17925150497E+02  0.51100000000E-03 0.  1.
        -11    1    3    3    0    0 -0.12446148341E+02  0.11155360840E+02  0.23215111000E+02  0.28605769750E+02  0.51100000000E-03 0. -1.
        -12    1    3    3    0    0 -0.25068204656E+01  0.28144784466E+01 -0.13334303955E+01  0.39979337654E+01  0.00000000000E+00 0.  1.
</event>
<event>
 7    1  0.5946946E-013  0.5052886E+02  0.7816164E-02  0.1300439E+00
        -11   -1    0    0    0    0  0.00000000000E+00  0.00000000000E+00  0.45593999997E+02  0.45594000000E+02  0.51100000000E-03 0. -1.
         11   -1    0    0    0    0 -0.00000000000E+00 -0.00000000000E+00 -0.45593999997E+02  0.45594000000E+02  0.51100000000E-03 0.  1.
    9900012    2    1    2    0    0 -0.19693459261E+02 -0.18741715304E+00 -0.35571034535E+02  0.50528856370E+02  0.29999989423E+02 0.  0.
         12    1    1    2    0    0  0.19693459261E+02  0.18741715304E+00  0.35571034535E+02  0.40659143630E+02  0.00000000000E+00 0. -1.
         11    1    3    3    0    0 -0.13519922785E+02  0.13035520440E+02 -0.24471198175E+02  0.30847246970E+02  0.51100000000E-03 0.  1.
        -11    1    3    3    0    0 -0.59763176163E+01 -0.48548782912E+01 -0.38527950445E+01  0.86098922983E+01  0.51100000000E-03 0. -1.
         12    1    3    3    0    0 -0.19721885997E+00 -0.83680593020E+01 -0.72470413147E+01  0.11071717102E+02  0.00000000000E+00 0. -1.
</event>
<event>
 7    1  0.5946946E-013  0.5052885E+02  0.7816164E-02  0.1300439E+00
        -11   -1    0    0    0    0  0.00000000000E+00  0.00000000000E+00  0.45593999997E+02  0.45594000000E+02  0.51100000000E-03 0.  1.
         11   -1    0    0    0    0 -0.00000000000E+00 -0.00000000000E+00 -0.45593999997E+02  0.45594000000E+02  0.51100000000E-03 0. -1.
    9900012    2    1    2    0    0  0.22114682173E+02 -0.34004100836E+02 -0.27979466912E+01  0.50528849161E+02  0.29999967509E+02 0.  0.
         12    1    1    2    0    0 -0.22114682173E+02  0.34004100836E+02  0.27979466912E+01  0.40659150839E+02  0.00000000000E+00 0. -1.
         11    1    3    3    0    0  0.10844687734E+02 -0.74989460055E+00 -0.26194328853E+01  0.11181727186E+02  0.51100000000E-03 0. -1.
        -11    1    3    3    0    0  0.62099616679E+01 -0.28063620375E+02  0.65249375982E+01  0.29473805716E+02  0.51100000000E-03 0.  1.
        -12    1    3    3    0    0  0.50600327712E+01 -0.51905858601E+01 -0.67034514041E+01  0.98733162587E+01  0.00000000000E+00 0.  1.
</event>
<event>
 7    1  0.5946946E-013  0.5052885E+02  0.7816164E-02  0.1300439E+00
        -11   -1    0    0    0    0  0.00000000000E+00  0.00000000000E+00  0.45593999997E+02  0.45594000000E+02  0.51100000000E-03 0.  1.
         11   -1    0    0    0    0 -0.00000000000E+00 -0.00000000000E+00 -0.45593999997E+02  0.45594000000E+02  0.51100000000E-03 0. -1.
    9900012    2    1    2    0    0  0.99115405271E+01  0.12634779012E+02  0.37353582733E+02  0.50528850731E+02  0.29999972283E+02 0.  0.
         12    1    1    2    0    0 -0.99115405271E+01 -0.12634779012E+02 -0.37353582733E+02  0.40659149269E+02  0.00000000000E+00 0. -1.
         11    1    3    3    0    0  0.59885829435E+01 -0.77714255351E+01  0.18079559615E+02  0.20570091314E+02  0.51100000000E-03 0. -1.
        -11    1    3    3    0    0 -0.29278632600E+01  0.28329559586E+01  0.33956629644E+01  0.53036355419E+01  0.51100000000E-03 0.  1.
         12    1    3    3    0    0  0.68508208436E+01  0.17573248588E+02  0.15878360153E+02  0.24655123876E+02  0.00000000000E+00 0. -1.
</event>
<event>
 7    1  0.5946946E-013  0.5052887E+02  0.7816164E-02  0.1300439E+00
        -11   -1    0    0    0    0  0.00000000000E+00  0.00000000000E+00  0.45593999997E+02  0.45594000000E+02  0.51100000000E-03 0.  1.
         11   -1    0    0    0    0 -0.00000000000E+00 -0.00000000000E+00 -0.45593999997E+02  0.45594000000E+02  0.51100000000E-03 0. -1.
    9900012    2    1    2    0    0 -0.38930330896E+02 -0.78590522549E+01  0.87080358337E+01  0.50528865060E+02  0.30000015836E+02 0.  0.
         12    1    1    2    0    0  0.38930330896E+02  0.78590522549E+01 -0.87080358337E+01  0.40659134940E+02  0.00000000000E+00 0. -1.
         11    1    3    3    0    0 -0.30937506173E+02 -0.12649034222E+02  0.27429051162E+01  0.33535814940E+02  0.51100000000E-03 0. -1.
        -11    1    3    3    0    0 -0.88061182578E+01  0.84203967235E+01  0.47851106262E+01  0.13089999378E+02  0.51100000000E-03 0.  1.
         12    1    3    3    0    0  0.81329353496E+00 -0.36304147568E+01  0.11800200914E+01  0.39030507422E+01  0.00000000000E+00 0. -1.
</event>
<event>
 7    1  0.5946946E-013  0.5052886E+02  0.7816164E-02  0.1300439E+00
        -11   -1    0    0    0    0  0.00000000000E+00  0.00000000000E+00  0.45593999997E+02  0.45594000000E+02  0.51100000000E-03 0. -1.
         11   -1    0    0    0    0 -0.00000000000E+00 -0.00000000000E+00 -0.45593999997E+02  0.45594000000E+02  0.51100000000E-03 0.  1.
    9900012    2    1    2    0    0  0.30282978961E+02 -0.22427722706E+02 -0.15267758193E+02  0.50528855877E+02  0.29999987925E+02 0.  0.
         12    1    1    2    0    0 -0.30282978961E+02  0.22427722706E+02  0.15267758193E+02  0.40659144123E+02  0.00000000000E+00 0. -1.
         11    1    3    3    0    0  0.19588069005E+02 -0.23085497911E+02  0.48638784465E+00  0.30279848654E+02  0.51100000000E-03 0.  1.
        -11    1    3    3    0    0  0.45595816519E+01  0.35595656510E+01 -0.88078772766E+01  0.10537504204E+02  0.51100000000E-03 0. -1.
        -12    1    3    3    0    0  0.61353283041E+01 -0.29017904462E+01 -0.69462687611E+01  0.97115030193E+01  0.00000000000E+00 0.  1.
</event>
<event>
 7    1  0.5946946E-013  0.5052885E+02  0.7816164E-02  0.1300439E+00
        -11   -1    0    0    0    0  0.00000000000E+00  0.00000000000E+00  0.45593999997E+02  0.45594000000E+02  0.51100000000E-03 0. -1.
         11   -1    0    0    0    0 -0.00000000000E+00 -0.00000000000E+00 -0.45593999997E+02  0.45594000000E+02  0.51100000000E-03 0.  1.
    9900012    2    1    2    0    0 -0.26896810466E+02  0.11249112026E+02 -0.28340527116E+02  0.50528850823E+02  0.29999972561E+02 0.  0.
         12    1    1    2    0    0  0.26896810466E+02 -0.11249112026E+02  0.28340527116E+02  0.40659149177E+02  0.00000000000E+00 0. -1.
         11    1    3    3    0    0  0.45593653565E+01  0.38409667479E+01 -0.57748577313E+01  0.82999891621E+01  0.51100000000E-03 0. -1.
        -11    1    3    3    0    0 -0.26468544435E+02  0.52273606953E+00 -0.20490697272E+02  0.33477242605E+02  0.51100000000E-03 0.  1.
        -12    1    3    3    0    0 -0.49876313869E+01  0.68854092085E+01 -0.20749721131E+01  0.87516190554E+01  0.00000000000E+00 0.  1.
</event>
<event>
 7    1  0.5946946E-013  0.5052885E+02  0.7816164E-02  0.1300439E+00
        -11   -1    0    0    0    0  0.00000000000E+00  0.00000000000E+00  0.45593999997E+02  0.45594000000E+02  0.51100000000E-03 0. -1.
         11   -1    0    0    0    0 -0.00000000000E+00 -0.00000000000E+00 -0.45593999997E+02  0.45594000000E+02  0.51100000000E-03 0.  1.
    9900012    2    1    2    0    0  0.12233949199E+02 -0.36224439199E+02 -0.13830649633E+02  0.50528851244E+02  0.29999973841E+02 0.  0.
         12    1    1    2    0    0 -0.12233949199E+02  0.36224439199E+02  0.13830649633E+02  0.40659148756E+02  0.00000000000E+00 0. -1.
         11    1    3    3    0    0 -0.90795381678E+01 -0.13300289132E+02 -0.22894618371E+01  0.16265833520E+02  0.51100000000E-03 0. -1.
        -11    1    3    3    0    0  0.12624985305E+02 -0.16183987890E+02 -0.10918121733E+02  0.23249023645E+02  0.51100000000E-03 0.  1.
        -12    1    3    3    0    0  0.86885020620E+01 -0.67401621769E+01 -0.62306606259E+00  0.11013994079E+02  0.00000000000E+00 0.  1.
</event>
<event>
 7    1  0.5946946E-013  0.5052885E+02  0.7816164E-02  0.1300439E+00
        -11   -1    0    0    0    0  0.00000000000E+00  0.00000000000E+00  0.45593999997E+02  0.45594000000E+02  0.51100000000E-03 0. -1.
         11   -1    0    0    0    0 -0.00000000000E+00 -0.00000000000E+00 -0.45593999997E+02  0.45594000000E+02  0.51100000000E-03 0.  1.
    9900012    2    1    2    0    0 -0.92446694331E+01 -0.14578108218E+02 -0.36812783439E+02  0.50528853714E+02  0.29999981349E+02 0.  0.
         12    1    1    2    0    0  0.92446694331E+01  0.14578108218E+02  0.36812783439E+02  0.40659146286E+02  0.00000000000E+00 0. -1.
         11    1    3    3    0    0 -0.15699746500E+01 -0.74332384062E+01 -0.18678749807E+01  0.78234781785E+01  0.51100000000E-03 0. -1.
        -11    1    3    3    0    0 -0.80016151388E+01 -0.33369204865E+01 -0.37247675616E+02  0.38243302972E+02  0.51100000000E-03 0.  1.
        -12    1    3    3    0    0  0.32692035574E+00 -0.38079493250E+01  0.23027671572E+01  0.44620725634E+01  0.00000000000E+00 0.  1.
</event>
<event>
 7    1  0.5946946E-013  0.5052886E+02  0.7816164E-02  0.1300439E+00
        -11   -1    0    0    0    0  0.00000000000E+00  0.00000000000E+00  0.45593999997E+02  0.45594000000E+02  0.51100000000E-03 0. -1.
         11   -1    0    0    0    0 -0.00000000000E+00 -0.00000000000E+00 -0.45593999997E+02  0.45594000000E+02  0.51100000000E-03 0.  1.
    9900012    2    1    2    0    0  0.23069524286E+02  0.33396534994E+02 -0.23737181989E+01  0.50528855414E+02  0.29999986518E+02 0.  0.
         12    1    1    2    0    0 -0.23069524286E+02 -0.33396534994E+02  0.23737181989E+01  0.40659144586E+02  0.00000000000E+00 0. -1.
         11    1    3    3    0    0  0.21015026992E+01 -0.18423480975E+01  0.49866283490E+01  0.57163819554E+01  0.51100000000E-03 0. -1.
        -11    1    3    3    0    0  0.45738552831E+01  0.21846826660E+02 -0.77858593270E+01  0.23639449930E+02  0.51100000000E-03 0.  1.
        -12    1    3    3    0    0  0.16394166303E+02  0.13392056431E+02  0.42551277914E+00  0.21173023529E+02  0.00000000000E+00 0.  1.
</event>
<event>
 7    1  0.5946946E-013  0.5052886E+02  0.7816164E-02  0.1300439E+00
        -11   -1    0    0    0    0  0.00000000000E+00  0.00000000000E+00  0.45593999997E+02  0.45594000000E+02  0.51100000000E-03 0.  1.
         11   -1    0    0    0    0 -0.00000000000E+00 -0.00000000000E+00 -0.45593999997E+02  0.45594000000E+02  0.51100000000E-03 0. -1.
    9900012    2    1    2    0    0 -0.21826388314E+02 -0.80580146562E+01  0.33344307952E+02  0.50528859578E+02  0.29999999174E+02 0.  0.
         12    1    1    2    0    0  0.21826388314E+02  0.80580146562E+01 -0.33344307952E+02  0.40659140422E+02  0.00000000000E+00 0. -1.
         11    1    3    3    0    0 -0.21581715490E+02  0.25696478678E+01  0.86291950306E+01  0.23384536360E+02  0.51100000000E-03 0. -1.
        -11    1    3    3    0    0 -0.43309101547E+00 -0.18595929391E+01  0.84754066779E+01  0.86878174672E+01  0.51100000000E-03 0.  1.
         12    1    3    3    0    0  0.18841819097E+00 -0.87680695849E+01  0.16239706243E+02  0.18456505751E+02  0.00000000000E+00 0. -1.
</event>
<event>
 7    1  0.5946946E-013  0.5052886E+02  0.7816164E-02  0.1300439E+00
        -11   -1    0    0    0    0  0.00000000000E+00  0.00000000000E+00  0.45593999997E+02  0.45594000000E+02  0.51100000000E-03 0.  1.
         11   -1    0    0    0    0 -0.00000000000E+00 -0.00000000000E+00 -0.45593999997E+02  0.45594000000E+02  0.51100000000E-03 0. -1.
    9900012    2    1    2    0    0 -0.24821564224E+02  0.29970774415E+02  0.11781678772E+02  0.50528864197E+02  0.30000013214E+02 0.  0.
         12    1    1    2    0    0  0.24821564224E+02 -0.29970774415E+02 -0.11781678772E+02  0.40659135803E+02  0.00000000000E+00 0. -1.
         11    1    3    3    0    0 -0.84559026815E+00  0.20539897896E+02 -0.12761902447E+01  0.20596870886E+02  0.51100000000E-03 0. -1.
        -11    1    3    3    0    0 -0.10366955804E+02  0.69016138669E+01  0.94326464092E+01  0.15623087568E+02  0.51100000000E-03 0.  1.
         12    1    3    3    0    0 -0.13609018152E+02  0.25292626517E+01  0.36252226076E+01  0.14308905744E+02  0.00000000000E+00 0. -1.
</event>
<event>
 7    1  0.5946946E-013  0.5052889E+02  0.7816164E-02  0.1300439E+00
        -11   -1    0    0    0    0  0.00000000000E+00  0.00000000000E+00  0.45593999997E+02  0.45594000000E+02  0.51100000000E-03 0.  1.
         11   -1    0    0    0    0 -0.00000000000E+00 -0.00000000000E+00 -0.45593999997E+02  0.45594000000E+02  0.51100000000E-03 0. -1.
    9900012    2    1    2    0    0  0.13240760367E+02 -0.19810668633E+02  0.32945151770E+02  0.50528888451E+02  0.30000086936E+02 0.  0.
         12    1    1    2    0    0 -0.13240760367E+02  0.19810668633E+02 -0.32945151770E+02  0.40659111549E+02  0.00000000000E+00 0. -1.
         11    1    3    3    0    0 -0.22981852170E+01 -0.12817917629E+02  0.40364493696E+01  0.13633546546E+02  0.51100000000E-03 0.  1.
        -11    1    3    3    0    0  0.28166520300E+01  0.43071576715E+01  0.11256136731E+02  0.12376823107E+02  0.51100000000E-03 0. -1.
         12    1    3    3    0    0  0.12722293554E+02 -0.11299908675E+02  0.17652565670E+02  0.24518518798E+02  0.00000000000E+00 0. -1.
</event>
<event>
 7    1  0.5946946E-013  0.5052886E+02  0.7816164E-02  0.1300439E+00
        -11   -1    0    0    0    0  0.00000000000E+00  0.00000000000E+00  0.45593999997E+02  0.45594000000E+02  0.51100000000E-03 0.  1.
         11   -1    0    0    0    0 -0.00000000000E+00 -0.00000000000E+00 -0.45593999997E+02  0.45594000000E+02  0.51100000000E-03 0. -1.
    9900012    2    1    2    0    0  0.38917904642E+02  0.11533858740E+02  0.23521762713E+01  0.50528856719E+02  0.29999990483E+02 0.  0.
         12    1    1    2    0    0 -0.38917904642E+02 -0.11533858740E+02 -0.23521762713E+01  0.40659143281E+02  0.00000000000E+00 0. -1.
         11    1    3    3    0    0  0.25197085626E+02 -0.17931519677E+01  0.55780966319E+01  0.25869357942E+02  0.51100000000E-03 0. -1.
        -11    1    3    3    0    0 -0.83162367517E+00 -0.24251207018E+01 -0.18662743345E+01  0.31710863293E+01  0.51100000000E-03 0.  1.
        -12    1    3    3    0    0  0.14552442691E+02  0.15752131409E+02 -0.13596460261E+01  0.21488412448E+02  0.00000000000E+00 0.  1.
</event>
<event>
 7    1  0.5946946E-013  0.5052886E+02  0.7816164E-02  0.1300439E+00
        -11   -1    0    0    0    0  0.00000000000E+00  0.00000000000E+00  0.45593999997E+02  0.45594000000E+02  0.51100000000E-03 0.  1.
         11   -1    0    0    0    0 -0.00000000000E+00 -0.00000000000E+00 -0.45593999997E+02  0.45594000000E+02  0.51100000000E-03 0. -1.
    9900012    2    1    2    0    0  0.20504332241E+01 -0.28264693276E+02  0.29155929078E+02  0.50528863723E+02  0.30000011773E+02 0.  0.
         12    1    1    2    0    0 -0.20504332241E+01  0.28264693276E+02 -0.29155929078E+02  0.40659136277E+02  0.00000000000E+00 0. -1.
         11    1    3    3    0    0  0.13377652992E+01  0.38766614681E+01  0.13450399873E+01  0.43159301387E+01  0.51100000000E-03 0. -1.
        -11    1    3    3    0    0  0.22495208523E+01 -0.11064268964E+02  0.21286785389E+02  0.24095759466E+02  0.51100000000E-03 0.  1.
         12    1    3    3    0    0 -0.15368529273E+01 -0.21077085780E+02  0.65241037016E+01  0.22117174119E+02  0.00000000000E+00 0. -1.
</event>
<event>
 7    1  0.5946946E-013  0.5052886E+02  0.7816164E-02  0.1300439E+00
        -11   -1    0    0    0    0  0.00000000000E+00  0.00000000000E+00  0.45593999997E+02  0.45594000000E+02  0.51100000000E-03 0.  1.
         11   -1    0    0    0    0 -0.00000000000E+00 -0.00000000000E+00 -0.45593999997E+02  0.45594000000E+02  0.51100000000E-03 0. -1.
    9900012    2    1    2    0    0 -0.27293616669E+02  0.29233878465E+02 -0.73214828838E+01  0.50528864832E+02  0.30000015144E+02 0.  0.
         12    1    1    2    0    0  0.27293616669E+02 -0.29233878465E+02  0.73214828838E+01  0.40659135168E+02  0.00000000000E+00 0. -1.
         11    1    3    3    0    0 -0.13290689500E+02 -0.21600066874E+01 -0.47562828058E+01  0.14280416054E+02  0.51100000000E-03 0. -1.
        -11    1    3    3    0    0 -0.15161453592E+02  0.23199541416E+02 -0.50041947679E+00  0.27718925247E+02  0.51100000000E-03 0.  1.
         12    1    3    3    0    0  0.11585264227E+01  0.81943437364E+01 -0.20647806012E+01  0.85295235314E+01  0.00000000000E+00 0. -1.
</event>
<event>
 7    1  0.5946946E-013  0.5052884E+02  0.7816164E-02  0.1300439E+00
        -11   -1    0    0    0    0  0.00000000000E+00  0.00000000000E+00  0.45593999997E+02  0.45594000000E+02  0.51100000000E-03 0. -1.
         11   -1    0    0    0    0 -0.00000000000E+00 -0.00000000000E+00 -0.45593999997E+02  0.45594000000E+02  0.51100000000E-03 0.  1.
    9900012    2    1    2    0    0  0.31651316491E+02  0.22197165796E+02 -0.12595522224E+02  0.50528841314E+02  0.29999943657E+02 0.  0.
         12    1    1    2    0    0 -0.31651316491E+02 -0.22197165796E+02  0.12595522224E+02  0.40659158686E+02  0.00000000000E+00 0. -1.
         11    1    3    3    0    0  0.80683734056E+01  0.95098149726E+01  0.76639416243E+01  0.14638006412E+02  0.51100000000E-03 0. -1.
        -11    1    3    3    0    0  0.22734552334E+02  0.11374851106E+02 -0.21951541442E+02  0.33587457175E+02  0.51100000000E-03 0.  1.
        -12    1    3    3    0    0  0.84839075155E+00  0.13124997166E+01  0.16920775932E+01  0.23033777273E+01  0.00000000000E+00 0.  1.
</event>
<event>
 7    1  0.5946946E-013  0.5052885E+02  0.7816164E-02  0.1300439E+00
        -11   -1    0    0    0    0  0.00000000000E+00  0.00000000000E+00  0.45593999997E+02  0.45594000000E+02  0.51100000000E-03 0. -1.
         11   -1    0    0    0    0 -0.00000000000E+00 -0.00000000000E+00 -0.45593999997E+02  0.45594000000E+02  0.51100000000E-03 0.  1.
    9900012    2    1    2    0    0 -0.59109391390E+01 -0.40198166090E+02  0.15279914578E+01  0.50528849537E+02  0.29999968652E+02 0.  0.
         12    1    1    2    0    0  0.59109391390E+01  0.40198166090E+02 -0.15279914578E+01  0.40659150463E+02  0.00000000000E+00 0. -1.
         11    1    3    3    0    0  0.85975469301E+01 -0.14560678798E+02  0.44688793963E+01  0.17490056135E+02  0.51100000000E-03 0. -1.
        -11    1    3    3    0    0 -0.91157080136E+01 -0.73518556519E+01 -0.68651277537E+01  0.13574825725E+02  0.51100000000E-03 0.  1.
        -12    1    3    3    0    0 -0.53927780555E+01 -0.18285631640E+02  0.39242398152E+01  0.19463967678E+02  0.00000000000E+00 0.  1.
</event>
<event>
 7    1  0.5946946E-013  0.5052886E+02  0.7816164E-02  0.1300439E+00
        -11   -1    0    0    0    0  0.00000000000E+00  0.00000000000E+00  0.45593999997E+02  0.45594000000E+02  0.51100000000E-03 0.  1.
         11   -1    0    0    0    0 -0.00000000000E+00 -0.00000000000E+00 -0.45593999997E+02  0.45594000000E+02  0.51100000000E-03 0. -1.
    9900012    2    1    2    0    0  0.13433823888E+02  0.25713186225E+02  0.28487368961E+02  0.50528858833E+02  0.29999996909E+02 0.  0.
         12    1    1    2    0    0 -0.13433823888E+02 -0.25713186225E+02 -0.28487368961E+02  0.40659141167E+02  0.00000000000E+00 0. -1.
         11    1    3    3    0    0  0.59808527859E+01  0.28069934035E+02  0.15852047989E+02  0.32786875766E+02  0.51100000000E-03 0. -1.
        -11    1    3    3    0    0  0.44660928835E+01 -0.19540903825E+01  0.13703203856E+02  0.14544492121E+02  0.51100000000E-03 0.  1.
         12    1    3    3    0    0  0.29868782190E+01 -0.40265742763E+00 -0.10678828835E+01  0.31974909464E+01  0.00000000000E+00 0. -1.
</event>
<event>
 7    1  0.5946946E-013  0.5052886E+02  0.7816164E-02  0.1300439E+00
        -11   -1    0    0    0    0  0.00000000000E+00  0.00000000000E+00  0.45593999997E+02  0.45594000000E+02  0.51100000000E-03 0.  1.
         11   -1    0    0    0    0 -0.00000000000E+00 -0.00000000000E+00 -0.45593999997E+02  0.45594000000E+02  0.51100000000E-03 0. -1.
    9900012    2    1    2    0    0 -0.21864910790E+01 -0.40249607674E+02 -0.53248413170E+01  0.50528860853E+02  0.30000003049E+02 0.  0.
         12    1    1    2    0    0  0.21864910790E+01  0.40249607674E+02  0.53248413170E+01  0.40659139147E+02  0.00000000000E+00 0. -1.
         11    1    3    3    0    0  0.16012713921E+01 -0.18072300227E+02  0.78706815198E+01  0.19776747291E+02  0.51100000000E-03 0. -1.
        -11    1    3    3    0    0 -0.55190832522E+01 -0.14617509890E+02 -0.16132964134E+02  0.22458949381E+02  0.51100000000E-03 0.  1.
        -12    1    3    3    0    0  0.17313207811E+01 -0.75597975567E+01  0.29374412970E+01  0.82931641802E+01  0.00000000000E+00 0.  1.
</event>
<event>
 7    1  0.5946946E-013  0.5052891E+02  0.7816164E-02  0.1300439E+00
        -11   -1    0    0    0    0  0.00000000000E+00  0.00000000000E+00  0.45593999997E+02  0.45594000000E+02  0.51100000000E-03 0.  1.
         11   -1    0    0    0    0 -0.00000000000E+00 -0.00000000000E+00 -0.45593999997E+02  0.45594000000E+02  0.51100000000E-03 0. -1.
    9900012    2    1    2    0    0 -0.28893033913E+02  0.26895799856E+02 -0.97452664195E+01  0.50528909059E+02  0.30000149574E+02 0.  0.
         12    1    1    2    0    0  0.28893033913E+02 -0.26895799856E+02  0.97452664195E+01  0.40659090941E+02  0.00000000000E+00 0. -1.
         11    1    3    3    0    0 -0.16181275370E+02  0.15516699565E+02 -0.10112933897E+02  0.24594167403E+02  0.51100000000E-03 0. -1.
        -11    1    3    3    0    0 -0.92959918382E+01  0.50962838642E+01  0.95689626349E+01  0.14281198117E+02  0.51100000000E-03 0.  1.
        -12    1    3    3    0    0 -0.34157667054E+01  0.62828164260E+01 -0.92012951575E+01  0.11653543538E+02  0.00000000000E+00 0.  1.
</event>
<event>
 7    1  0.5946946E-013  0.5052886E+02  0.7816164E-02  0.1300439E+00
        -11   -1    0    0    0    0  0.00000000000E+00  0.00000000000E+00  0.45593999997E+02  0.45594000000E+02  0.51100000000E-03 0. -1.
         11   -1    0    0    0    0 -0.00000000000E+00 -0.00000000000E+00 -0.45593999997E+02  0.45594000000E+02  0.51100000000E-03 0.  1.
    9900012    2    1    2    0    0  0.10595756368E+02 -0.42877334969E+01 -0.39019369647E+02  0.50528856881E+02  0.29999990974E+02 0.  0.
         12    1    1    2    0    0 -0.10595756368E+02  0.42877334969E+01  0.39019369647E+02  0.40659143119E+02  0.00000000000E+00 0. -1.
         11    1    3    3    0    0 -0.34644451783E+01 -0.56606459396E+01 -0.34162276408E+01  0.74643087022E+01  0.51100000000E-03 0. -1.
        -11    1    3    3    0    0  0.17936481905E+02 -0.26473446468E+01 -0.30592427815E+02  0.35561530572E+02  0.51100000000E-03 0.  1.
        -12    1    3    3    0    0 -0.38762803585E+01  0.40202570895E+01 -0.50107141917E+01  0.75030176059E+01  0.00000000000E+00 0.  1.
</event>
<event>
 7    1  0.5946946E-013  0.5052886E+02  0.7816164E-02  0.1300439E+00
        -11   -1    0    0    0    0  0.00000000000E+00  0.00000000000E+00  0.45593999997E+02  0.45594000000E+02  0.51100000000E-03 0.  1.
         11   -1    0    0    0    0 -0.00000000000E+00 -0.00000000000E+00 -0.45593999997E+02  0.45594000000E+02  0.51100000000E-03 0. -1.
    9900012    2    1    2    0    0 -0.32920257581E+01  0.13160854611E+02  0.38329100809E+02  0.50528862079E+02  0.30000006774E+02 0.  0.
         12    1    1    2    0    0  0.32920257581E+01 -0.13160854611E+02 -0.38329100809E+02  0.40659137921E+02  0.00000000000E+00 0. -1.
         11    1    3    3    0    0 -0.22968417208E+00  0.16923570766E+02  0.13723550204E+02  0.21789810296E+02  0.51100000000E-03 0. -1.
        -11    1    3    3    0    0 -0.77939469727E+01  0.12466218607E+01  0.11784029790E+02  0.14183195473E+02  0.51100000000E-03 0.  1.
         12    1    3    3    0    0  0.47316053867E+01 -0.50093380153E+01  0.12821520815E+02  0.14555856309E+02  0.00000000000E+00 0. -1.
</event>
<event>
 7    1  0.5946946E-013  0.5052886E+02  0.7816164E-02  0.1300439E+00
        -11   -1    0    0    0    0  0.00000000000E+00  0.00000000000E+00  0.45593999997E+02  0.45594000000E+02  0.51100000000E-03 0.  1.
         11   -1    0    0    0    0 -0.00000000000E+00 -0.00000000000E+00 -0.45593999997E+02  0.45594000000E+02  0.51100000000E-03 0. -1.
    9900012    2    1    2    0    0 -0.95416454204E+01  0.37793543110E+02  0.11565942807E+02  0.50528856733E+02  0.29999990527E+02 0.  0.
         12    1    1    2    0    0  0.95416454204E+01 -0.37793543110E+02 -0.11565942807E+02  0.40659143267E+02  0.00000000000E+00 0. -1.
         11    1    3    3    0    0 -0.56955684638E+01  0.37344742935E+01  0.68700508115E+01  0.96738511870E+01  0.51100000000E-03 0. -1.
        -11    1    3    3    0    0  0.61889011829E+01  0.26049286414E+02 -0.10350428820E+01  0.26794386251E+02  0.51100000000E-03 0.  1.
        -12    1    3    3    0    0 -0.10034978139E+02  0.80097824026E+01  0.57309348775E+01  0.14060619295E+02  0.00000000000E+00 0.  1.
</event>
<event>
 7    1  0.5946946E-013  0.5052886E+02  0.7816164E-02  0.1300439E+00
        -11   -1    0    0    0    0  0.00000000000E+00  0.00000000000E+00  0.45593999997E+02  0.45594000000E+02  0.51100000000E-03 0.  1.
         11   -1    0    0    0    0 -0.00000000000E+00 -0.00000000000E+00 -0.45593999997E+02  0.45594000000E+02  0.51100000000E-03 0. -1.
    9900012    2    1    2    0    0 -0.34534893913E+02 -0.54125642131E+01  0.20765618129E+02  0.50528860250E+02  0.30000001216E+02 0.  0.
         12    1    1    2    0    0  0.34534893913E+02  0.54125642131E+01 -0.20765618129E+02  0.40659139750E+02  0.00000000000E+00 0. -1.
         11    1    3    3    0    0 -0.45479461397E+01  0.57934204962E+01 -0.48440435190E+01  0.88154576178E+01  0.51100000000E-03 0. -1.
        -11    1    3    3    0    0 -0.12049271233E+02 -0.85829996640E+01  0.11170179101E+02  0.18537144384E+02  0.51100000000E-03 0.  1.
         12    1    3    3    0    0 -0.17937676540E+02 -0.26229850453E+01  0.14439482547E+02  0.23176258249E+02  0.00000000000E+00 0. -1.
</event>
<event>
 7    1  0.5946946E-013  0.5052883E+02  0.7816164E-02  0.1300439E+00
        -11   -1    0    0    0    0  0.00000000000E+00  0.00000000000E+00  0.45593999997E+02  0.45594000000E+02  0.51100000000E-03 0.  1.
         11   -1    0    0    0    0 -0.00000000000E+00 -0.00000000000E+00 -0.45593999997E+02  0.45594000000E+02  0.51100000000E-03 0. -1.
    9900012    2    1    2    0    0  0.85490334278E+01  0.39671222207E+02  0.25051891116E+01  0.50528833550E+02  0.29999920057E+02 0.  0.
         12    1    1    2    0    0 -0.85490334278E+01 -0.39671222207E+02 -0.25051891116E+01  0.40659166450E+02  0.00000000000E+00 0. -1.
         11    1    3    3    0    0 -0.65736410134E+01  0.50520413966E+01 -0.56913308484E+01  0.10056198364E+02  0.51100000000E-03 0. -1.
        -11    1    3    3    0    0  0.69680092718E+01  0.25223522649E+02  0.11921123674E+01  0.26195426704E+02  0.51100000000E-03 0.  1.
        -12    1    3    3    0    0  0.81546651694E+01  0.93956581617E+01  0.70044075927E+01  0.14277208482E+02  0.00000000000E+00 0.  1.
</event>
<event>
 7    1  0.5946946E-013  0.5052886E+02  0.7816164E-02  0.1300439E+00
        -11   -1    0    0    0    0  0.00000000000E+00  0.00000000000E+00  0.45593999997E+02  0.45594000000E+02  0.51100000000E-03 0. -1.
         11   -1    0    0    0    0 -0.00000000000E+00 -0.00000000000E+00 -0.45593999997E+02  0.45594000000E+02  0.51100000000E-03 0.  1.
    9900012    2    1    2    0    0 -0.12153855615E+02  0.37942921266E+02  0.81107388331E+01  0.50528861237E+02  0.30000004216E+02 0.  0.
         12    1    1    2    0    0  0.12153855615E+02 -0.37942921266E+02 -0.81107388331E+01  0.40659138763E+02  0.00000000000E+00 0. -1.
         11    1    3    3    0    0  0.12245478470E+01  0.42458952115E+01 -0.42463982810E+01  0.61285432362E+01  0.51100000000E-03 0. -1.
        -11    1    3    3    0    0 -0.19247977573E+02  0.20066795797E+02  0.80479817859E+01  0.28947036900E+02  0.51100000000E-03 0.  1.
        -12    1    3    3    0    0  0.58695741113E+01  0.13630230258E+02  0.43091553282E+01  0.15453281101E+02  0.00000000000E+00 0.  1.
</event>
<event>
 7    1  0.5946946E-013  0.5052886E+02  0.7816164E-02  0.1300439E+00
        -11   -1    0    0    0    0  0.00000000000E+00  0.00000000000E+00  0.45593999997E+02  0.45594000000E+02  0.51100000000E-03 0.  1.
         11   -1    0    0    0    0 -0.00000000000E+00 -0.00000000000E+00 -0.45593999997E+02  0.45594000000E+02  0.51100000000E-03 0. -1.
    9900012    2    1    2    0    0 -0.31243149011E+01 -0.19962209753E+02  0.35283344396E+02  0.50528861376E+02  0.30000004639E+02 0.  0.
         12    1    1    2    0    0  0.31243149011E+01  0.19962209753E+02 -0.35283344396E+02  0.40659138624E+02  0.00000000000E+00 0. -1.
         11    1    3    3    0    0 -0.64896819490E+00 -0.70483530112E+00 -0.34705614141E+01  0.36003818284E+01  0.51100000000E-03 0. -1.
        -11    1    3    3    0    0  0.47320836660E+01 -0.15081832199E+02  0.33602485908E+02  0.37134637978E+02  0.51100000000E-03 0.  1.
        -12    1    3    3    0    0 -0.72074303722E+01 -0.41755422530E+01  0.51514199023E+01  0.97938415694E+01  0.00000000000E+00 0.  1.
</event>
<event>
 7    1  0.5946946E-013  0.5052886E+02  0.7816164E-02  0.1300439E+00
        -11   -1    0    0    0    0  0.00000000000E+00  0.00000000000E+00  0.45593999997E+02  0.45594000000E+02  0.51100000000E-03 0.  1.
         11   -1    0    0    0    0 -0.00000000000E+00 -0.00000000000E+00 -0.45593999997E+02  0.45594000000E+02  0.51100000000E-03 0. -1.
    9900012    2    1    2    0    0  0.26937045397E+02 -0.26583593830E+02  0.14861819698E+02  0.50528861293E+02  0.30000004387E+02 0.  0.
         12    1    1    2    0    0 -0.26937045397E+02  0.26583593830E+02 -0.14861819698E+02  0.40659138707E+02  0.00000000000E+00 0. -1.
         11    1    3    3    0    0 -0.17911102056E+01 -0.91715925938E+01  0.33030023880E+01  0.99114081497E+01  0.51100000000E-03 0. -1.
        -11    1    3    3    0    0  0.22876039180E+02 -0.17144304781E+02  0.16452901035E+02  0.32983909831E+02  0.51100000000E-03 0.  1.
        -12    1    3    3    0    0  0.58521164218E+01 -0.26769645462E+00 -0.48940837240E+01  0.76335433126E+01  0.00000000000E+00 0.  1.
</event>
<event>
 7    1  0.5946946E-013  0.5052886E+02  0.7816164E-02  0.1300439E+00
        -11   -1    0    0    0    0  0.00000000000E+00  0.00000000000E+00  0.45593999997E+02  0.45594000000E+02  0.51100000000E-03 0. -1.
         11   -1    0    0    0    0 -0.00000000000E+00 -0.00000000000E+00 -0.45593999997E+02  0.45594000000E+02  0.51100000000E-03 0.  1.
    9900012    2    1    2    0    0  0.31962347621E+02  0.24978475124E+02  0.27658425594E+01  0.50528858715E+02  0.29999996550E+02 0.  0.
         12    1    1    2    0    0 -0.31962347621E+02 -0.24978475124E+02 -0.27658425594E+01  0.40659141285E+02  0.00000000000E+00 0. -1.
         11    1    3    3    0    0  0.13547590324E+02  0.53788697200E+01 -0.10568543788E+02  0.18004542791E+02  0.51100000000E-03 0. -1.
        -11    1    3    3    0    0  0.20332168714E+02  0.18008482703E+02  0.11942491388E+02  0.29670282012E+02  0.51100000000E-03 0.  1.
         12    1    3    3    0    0 -0.19174114166E+01  0.15911227007E+01  0.13918949595E+01  0.28540339114E+01  0.00000000000E+00 0. -1.
</event>
<event>
 7    1  0.5946946E-013  0.5052883E+02  0.7816164E-02  0.1300439E+00
        -11   -1    0    0    0    0  0.00000000000E+00  0.00000000000E+00  0.45593999997E+02  0.45594000000E+02  0.51100000000E-03 0.  1.
         11   -1    0    0    0    0 -0.00000000000E+00 -0.00000000000E+00 -0.45593999997E+02  0.45594000000E+02  0.51100000000E-03 0. -1.
    9900012    2    1    2    0    0 -0.18764488880E+01 -0.14725065282E+02  0.37852598631E+02  0.50528833369E+02  0.29999919509E+02 0.  0.
         12    1    1    2    0    0  0.18764488880E+01  0.14725065282E+02 -0.37852598631E+02  0.40659166631E+02  0.00000000000E+00 0. -1.
         11    1    3    3    0    0  0.46805407972E+01 -0.97092303881E+00  0.75086570335E+01  0.89011282660E+01  0.51100000000E-03 0. -1.
        -11    1    3    3    0    0 -0.12541334855E+02 -0.21545734342E+01  0.61404462996E+01  0.14129131171E+02  0.51100000000E-03 0.  1.
        -12    1    3    3    0    0  0.59843451697E+01 -0.11599568809E+02  0.24203495298E+02  0.27498573932E+02  0.00000000000E+00 0.  1.
</event>
<event>
 7    1  0.5946946E-013  0.5052885E+02  0.7816164E-02  0.1300439E+00
        -11   -1    0    0    0    0  0.00000000000E+00  0.00000000000E+00  0.45593999997E+02  0.45594000000E+02  0.51100000000E-03 0.  1.
         11   -1    0    0    0    0 -0.00000000000E+00 -0.00000000000E+00 -0.45593999997E+02  0.45594000000E+02  0.51100000000E-03 0. -1.
    9900012    2    1    2    0    0  0.29457897757E+02  0.80647303881E+01  0.26839498872E+02  0.50528851999E+02  0.29999976135E+02 0.  0.
         12    1    1    2    0    0 -0.29457897757E+02 -0.80647303881E+01 -0.26839498872E+02  0.40659148001E+02  0.00000000000E+00 0. -1.
         11    1    3    3    0    0  0.13085868110E+02 -0.29348009687E+01  0.25130718950E+02  0.28485189768E+02  0.51100000000E-03 0.  1.
        -11    1    3    3    0    0  0.84248876894E+01  0.27714405008E+01 -0.34221066960E+01  0.95063362832E+01  0.51100000000E-03 0. -1.
        -12    1    3    3    0    0  0.79471419575E+01  0.82280908560E+01  0.51308866181E+01  0.12537325948E+02  0.00000000000E+00 0.  1.
</event>
<event>
 7    1  0.5946946E-013  0.5052883E+02  0.7816164E-02  0.1300439E+00
        -11   -1    0    0    0    0  0.00000000000E+00  0.00000000000E+00  0.45593999997E+02  0.45594000000E+02  0.51100000000E-03 0. -1.
         11   -1    0    0    0    0 -0.00000000000E+00 -0.00000000000E+00 -0.45593999997E+02  0.45594000000E+02  0.51100000000E-03 0.  1.
    9900012    2    1    2    0    0 -0.14397017919E+01  0.14370379666E+02 -0.38007728181E+02  0.50528831852E+02  0.29999914898E+02 0.  0.
         12    1    1    2    0    0  0.14397017919E+01 -0.14370379666E+02  0.38007728181E+02  0.40659168148E+02  0.00000000000E+00 0. -1.
         11    1    3    3    0    0 -0.21655060165E+01  0.32750990042E+01 -0.12931181617E+02  0.13514109222E+02  0.51100000000E-03 0.  1.
        -11    1    3    3    0    0  0.73145761950E+01 -0.15554717883E+01  0.74532728864E+00  0.75151866527E+01  0.51100000000E-03 0. -1.
        -12    1    3    3    0    0 -0.65887719704E+01  0.12650752451E+02 -0.25821873852E+02  0.29499535977E+02  0.00000000000E+00 0.  1.
</event>
<event>
 7    1  0.5946946E-013  0.5052888E+02  0.7816164E-02  0.1300439E+00
        -11   -1    0    0    0    0  0.00000000000E+00  0.00000000000E+00  0.45593999997E+02  0.45594000000E+02  0.51100000000E-03 0.  1.
         11   -1    0    0    0    0 -0.00000000000E+00 -0.00000000000E+00 -0.45593999997E+02  0.45594000000E+02  0.51100000000E-03 0. -1.
    9900012    2    1    2    0    0  0.66087281095E+01 -0.37167971509E+02  0.15100695728E+02  0.50528875504E+02  0.30000047583E+02 0.  0.
         12    1    1    2    0    0 -0.66087281095E+01  0.37167971509E+02 -0.15100695728E+02  0.40659124496E+02  0.00000000000E+00 0. -1.
         11    1    3    3    0    0 -0.73527017939E+01 -0.92823359148E+01  0.12172986895E+01  0.11904024532E+02  0.51100000000E-03 0.  1.
        -11    1    3    3    0    0  0.74376448270E+01 -0.19392183090E+02  0.17666232746E+02  0.27266666559E+02  0.51100000000E-03 0. -1.
         12    1    3    3    0    0  0.65237850764E+01 -0.84934525040E+01 -0.37828357074E+01  0.11358184413E+02  0.00000000000E+00 0. -1.
</event>
<event>
 7    1  0.5946946E-013  0.5052886E+02  0.7816164E-02  0.1300439E+00
        -11   -1    0    0    0    0  0.00000000000E+00  0.00000000000E+00  0.45593999997E+02  0.45594000000E+02  0.51100000000E-03 0.  1.
         11   -1    0    0    0    0 -0.00000000000E+00 -0.00000000000E+00 -0.45593999997E+02  0.45594000000E+02  0.51100000000E-03 0. -1.
    9900012    2    1    2    0    0  0.26432633832E+02 -0.84235371793E+01  0.29724157978E+02  0.50528859854E+02  0.30000000012E+02 0.  0.
         12    1    1    2    0    0 -0.26432633832E+02  0.84235371793E+01 -0.29724157978E+02  0.40659140146E+02  0.00000000000E+00 0. -1.
         11    1    3    3    0    0  0.27174349482E+01 -0.28741093912E+01  0.10962666033E+01  0.41044802615E+01  0.51100000000E-03 0. -1.
        -11    1    3    3    0    0  0.17314785463E+02 -0.16417330918E+02  0.17309867664E+02  0.29478162577E+02  0.51100000000E-03 0.  1.
        -12    1    3    3    0    0  0.64004134206E+01  0.10867903130E+02  0.11318023712E+02  0.16946217016E+02  0.00000000000E+00 0.  1.
</event>
<event>
 7    1  0.5946946E-013  0.5052886E+02  0.7816164E-02  0.1300439E+00
        -11   -1    0    0    0    0  0.00000000000E+00  0.00000000000E+00  0.45593999997E+02  0.45594000000E+02  0.51100000000E-03 0.  1.
         11   -1    0    0    0    0 -0.00000000000E+00 -0.00000000000E+00 -0.45593999997E+02  0.45594000000E+02  0.51100000000E-03 0. -1.
    9900012    2    1    2    0    0  0.63463758468E+01 -0.24327546923E+02  0.31954019092E+02  0.50528863736E+02  0.30000011811E+02 0.  0.
         12    1    1    2    0    0 -0.63463758468E+01  0.24327546923E+02 -0.31954019092E+02  0.40659136264E+02  0.00000000000E+00 0. -1.
         11    1    3    3    0    0  0.67394651441E+01  0.36776227308E+01  0.11931282680E+02  0.14188051523E+02  0.51100000000E-03 0.  1.
        -11    1    3    3    0    0  0.13119866425E+01 -0.15029482374E+02  0.39143868940E+01  0.15586182162E+02  0.51100000000E-03 0. -1.
         12    1    3    3    0    0 -0.17050759398E+01 -0.12975687280E+02  0.16108349518E+02  0.20754630051E+02  0.00000000000E+00 0. -1.
</event>
<event>
 7    1  0.5946946E-013  0.5052886E+02  0.7816164E-02  0.1300439E+00
        -11   -1    0    0    0    0  0.00000000000E+00  0.00000000000E+00  0.45593999997E+02  0.45594000000E+02  0.51100000000E-03 0.  1.
         11   -1    0    0    0    0 -0.00000000000E+00 -0.00000000000E+00 -0.45593999997E+02  0.45594000000E+02  0.51100000000E-03 0. -1.
    9900012    2    1    2    0    0 -0.20667451360E+02  0.33288308608E+02 -0.10858666017E+02  0.50528860026E+02  0.30000000536E+02 0.  0.
         12    1    1    2    0    0  0.20667451360E+02 -0.33288308608E+02  0.10858666017E+02  0.40659139974E+02  0.00000000000E+00 0. -1.
         11    1    3    3    0    0 -0.21429564260E+01  0.13148536323E+02 -0.65253435173E+01  0.14834297353E+02  0.51100000000E-03 0. -1.
        -11    1    3    3    0    0 -0.10186819725E+02  0.11115732251E+02  0.90034972905E+01  0.17561143565E+02  0.51100000000E-03 0.  1.
        -12    1    3    3    0    0 -0.83376752090E+01  0.90240400338E+01 -0.13336819790E+02  0.18133419108E+02  0.00000000000E+00 0.  1.
</event>
<event>
 7    1  0.5946946E-013  0.5052886E+02  0.7816164E-02  0.1300439E+00
        -11   -1    0    0    0    0  0.00000000000E+00  0.00000000000E+00  0.45593999997E+02  0.45594000000E+02  0.51100000000E-03 0. -1.
         11   -1    0    0    0    0 -0.00000000000E+00 -0.00000000000E+00 -0.45593999997E+02  0.45594000000E+02  0.51100000000E-03 0.  1.
    9900012    2    1    2    0    0 -0.32311569422E+02 -0.67293299523E+01 -0.23745400754E+02  0.50528862563E+02  0.30000008248E+02 0.  0.
         12    1    1    2    0    0  0.32311569422E+02  0.67293299523E+01  0.23745400754E+02  0.40659137437E+02  0.00000000000E+00 0. -1.
         11    1    3    3    0    0 -0.18211996279E+02 -0.55605634665E+01 -0.49936452580E+01  0.19685862129E+02  0.51100000000E-03 0. -1.
        -11    1    3    3    0    0 -0.96554452707E+01 -0.46312814506E+01 -0.21908129615E+02  0.24385293411E+02  0.51100000000E-03 0.  1.
        -12    1    3    3    0    0 -0.44441278718E+01  0.34625149649E+01  0.31563741188E+01  0.64577070235E+01  0.00000000000E+00 0.  1.
</event>
<event>
 7    1  0.5946946E-013  0.5052886E+02  0.7816164E-02  0.1300439E+00
        -11   -1    0    0    0    0  0.00000000000E+00  0.00000000000E+00  0.45593999997E+02  0.45594000000E+02  0.51100000000E-03 0. -1.
         11   -1    0    0    0    0 -0.00000000000E+00 -0.00000000000E+00 -0.45593999997E+02  0.45594000000E+02  0.51100000000E-03 0.  1.
    9900012    2    1    2    0    0 -0.35645515887E+01  0.22882305723E+02 -0.33419453504E+02  0.50528858153E+02  0.29999994842E+02 0.  0.
         12    1    1    2    0    0  0.35645515887E+01 -0.22882305723E+02  0.33419453504E+02  0.40659141847E+02  0.00000000000E+00 0. -1.
         11    1    3    3    0    0 -0.62075100583E+01  0.19159369183E+02 -0.84924845432E+01  0.21857193383E+02  0.51100000000E-03 0.  1.
        -11    1    3    3    0    0 -0.15828043412E+01 -0.34562114321E+01 -0.16066288301E+02  0.16509884526E+02  0.51100000000E-03 0. -1.
        -12    1    3    3    0    0  0.42257628109E+01  0.71791479717E+01 -0.88606806603E+01  0.12161780244E+02  0.00000000000E+00 0.  1.
</event>
<event>
 7    1  0.5946946E-013  0.5052884E+02  0.7816164E-02  0.1300439E+00
        -11   -1    0    0    0    0  0.00000000000E+00  0.00000000000E+00  0.45593999997E+02  0.45594000000E+02  0.51100000000E-03 0.  1.
         11   -1    0    0    0    0 -0.00000000000E+00 -0.00000000000E+00 -0.45593999997E+02  0.45594000000E+02  0.51100000000E-03 0. -1.
    9900012    2    1    2    0    0 -0.31466375398E+02  0.11644214587E+02  0.22966202312E+02  0.50528844049E+02  0.29999951970E+02 0.  0.
         12    1    1    2    0    0  0.31466375398E+02 -0.11644214587E+02 -0.22966202312E+02  0.40659155951E+02  0.00000000000E+00 0. -1.
         11    1    3    3    0    0 -0.65909384834E+01  0.11843045068E+02  0.11924755170E+01  0.13605887869E+02  0.51100000000E-03 0. -1.
        -11    1    3    3    0    0 -0.25400965592E+02 -0.42193127200E+01  0.18389198011E+02  0.31641337781E+02  0.51100000000E-03 0.  1.
        -12    1    3    3    0    0  0.52552867697E+00  0.40204822388E+01  0.33845287841E+01  0.52816183991E+01  0.00000000000E+00 0.  1.
</event>
<event>
 7    1  0.5946946E-013  0.5052886E+02  0.7816164E-02  0.1300439E+00
        -11   -1    0    0    0    0  0.00000000000E+00  0.00000000000E+00  0.45593999997E+02  0.45594000000E+02  0.51100000000E-03 0.  1.
         11   -1    0    0    0    0 -0.00000000000E+00 -0.00000000000E+00 -0.45593999997E+02  0.45594000000E+02  0.51100000000E-03 0. -1.
    9900012    2    1    2    0    0 -0.35210513501E+01  0.17736940160E+01  0.40467545698E+02  0.50528855298E+02  0.29999986163E+02 0.  0.
         12    1    1    2    0    0  0.35210513501E+01 -0.17736940160E+01 -0.40467545698E+02  0.40659144702E+02  0.00000000000E+00 0. -1.
         11    1    3    3    0    0 -0.43435804149E+01 -0.19522210165E+00  0.15483428259E+01  0.46154272020E+01  0.51100000000E-03 0. -1.
        -11    1    3    3    0    0 -0.44997837533E+01 -0.69344920601E+01  0.32895597150E+02  0.33918365911E+02  0.51100000000E-03 0.  1.
        -12    1    3    3    0    0  0.53223128181E+01  0.89034081777E+01  0.60236057221E+01  0.11995062184E+02  0.00000000000E+00 0.  1.
</event>
<event>
 7    1  0.5946946E-013  0.5052886E+02  0.7816164E-02  0.1300439E+00
        -11   -1    0    0    0    0  0.00000000000E+00  0.00000000000E+00  0.45593999997E+02  0.45594000000E+02  0.51100000000E-03 0.  1.
         11   -1    0    0    0    0 -0.00000000000E+00 -0.00000000000E+00 -0.45593999997E+02  0.45594000000E+02  0.51100000000E-03 0. -1.
    9900012    2    1    2    0    0 -0.38847227080E+02  0.95246330909E+01  0.73034348325E+01  0.50528857761E+02  0.29999993649E+02 0.  0.
         12    1    1    2    0    0  0.38847227080E+02 -0.95246330909E+01 -0.73034348325E+01  0.40659142239E+02  0.00000000000E+00 0. -1.
         11    1    3    3    0    0 -0.14052984064E+02  0.16761904147E+01  0.11887882751E+02  0.18482903775E+02  0.51100000000E-03 0. -1.
        -11    1    3    3    0    0 -0.12874435807E+02  0.11547381032E+02 -0.80748138825E+01  0.19086532570E+02  0.51100000000E-03 0.  1.
        -12    1    3    3    0    0 -0.11919807209E+02 -0.36989383562E+01  0.34903659642E+01  0.12959421416E+02  0.00000000000E+00 0.  1.
</event>
<event>
 7    1  0.5946946E-013  0.5052886E+02  0.7816164E-02  0.1300439E+00
        -11   -1    0    0    0    0  0.00000000000E+00  0.00000000000E+00  0.45593999997E+02  0.45594000000E+02  0.51100000000E-03 0.  1.
         11   -1    0    0    0    0 -0.00000000000E+00 -0.00000000000E+00 -0.45593999997E+02  0.45594000000E+02  0.51100000000E-03 0. -1.
    9900012    2    1    2    0    0  0.11991404305E+02  0.17586309699E+02  0.34642372804E+02  0.50528855155E+02  0.29999985728E+02 0.  0.
         12    1    1    2    0    0 -0.11991404305E+02 -0.17586309699E+02 -0.34642372804E+02  0.40659144845E+02  0.00000000000E+00 0. -1.
         11    1    3    3    0    0  0.86065390662E+01  0.16224697979E+02  0.23528962156E+02  0.29848373483E+02  0.51100000000E-03 0.  1.
        -11    1    3    3    0    0  0.10203635107E+02 -0.92677792539E+00  0.63590543146E+01  0.12058634199E+02  0.51100000000E-03 0. -1.
        -12    1    3    3    0    0 -0.68187698679E+01  0.22883896461E+01  0.47543563339E+01  0.86218474722E+01  0.00000000000E+00 0.  1.
</event>
<event>
 7    1  0.5946946E-013  0.5052886E+02  0.7816164E-02  0.1300439E+00
        -11   -1    0    0    0    0  0.00000000000E+00  0.00000000000E+00  0.45593999997E+02  0.45594000000E+02  0.51100000000E-03 0.  1.
         11   -1    0    0    0    0 -0.00000000000E+00 -0.00000000000E+00 -0.45593999997E+02  0.45594000000E+02  0.51100000000E-03 0. -1.
    9900012    2    1    2    0    0 -0.13806531723E+02  0.38107324610E+02  0.32214010195E+01  0.50528856727E+02  0.29999990508E+02 0.  0.
         12    1    1    2    0    0  0.13806531723E+02 -0.38107324610E+02 -0.32214010195E+01  0.40659143273E+02  0.00000000000E+00 0. -1.
         11    1    3    3    0    0  0.92949429185E+00  0.28130808910E+01  0.31624555387E+01  0.43334177082E+01  0.51100000000E-03 0.  1.
        -11    1    3    3    0    0  0.73362608777E-01  0.78870211859E+01 -0.10650959672E+02  0.13253430781E+02  0.51100000000E-03 0. -1.
        -12    1    3    3    0    0 -0.14809388623E+02  0.27407222533E+02  0.10709905153E+02  0.32942008238E+02  0.00000000000E+00 0.  1.
</event>
<event>
 7    1  0.5946946E-013  0.5052885E+02  0.7816164E-02  0.1300439E+00
        -11   -1    0    0    0    0  0.00000000000E+00  0.00000000000E+00  0.45593999997E+02  0.45594000000E+02  0.51100000000E-03 0.  1.
         11   -1    0    0    0    0 -0.00000000000E+00 -0.00000000000E+00 -0.45593999997E+02  0.45594000000E+02  0.51100000000E-03 0. -1.
    9900012    2    1    2    0    0 -0.34776794163E+02 -0.13294609030E+02  0.16339953896E+02  0.50528854229E+02  0.29999982915E+02 0.  0.
         12    1    1    2    0    0  0.34776794163E+02  0.13294609030E+02 -0.16339953896E+02  0.40659145771E+02  0.00000000000E+00 0. -1.
         11    1    3    3    0    0 -0.57131382583E+01 -0.10869821714E+02 -0.31919339933E+01  0.12687845196E+02  0.51100000000E-03 0. -1.
        -11    1    3    3    0    0 -0.14873630862E+02  0.12384123908E+01  0.17572461788E+02  0.23055367571E+02  0.51100000000E-03 0.  1.
        -12    1    3    3    0    0 -0.14190025042E+02 -0.36631997066E+01  0.19594261015E+01  0.14785641462E+02  0.00000000000E+00 0.  1.
</event>
<event>
 7    1  0.5946946E-013  0.5052887E+02  0.7816164E-02  0.1300439E+00
        -11   -1    0    0    0    0  0.00000000000E+00  0.00000000000E+00  0.45593999997E+02  0.45594000000E+02  0.51100000000E-03 0.  1.
         11   -1    0    0    0    0 -0.00000000000E+00 -0.00000000000E+00 -0.45593999997E+02  0.45594000000E+02  0.51100000000E-03 0. -1.
    9900012    2    1    2    0    0  0.10305428151E+02 -0.88638483557E+01  0.38319647660E+02  0.50528867523E+02  0.30000023322E+02 0.  0.
         12    1    1    2    0    0 -0.10305428151E+02  0.88638483557E+01 -0.38319647660E+02  0.40659132477E+02  0.00000000000E+00 0. -1.
         11    1    3    3    0    0 -0.68298429305E+01 -0.15318411685E+01 -0.28998963978E+00  0.70055253959E+01  0.51100000000E-03 0. -1.
        -11    1    3    3    0    0  0.12366267122E+02 -0.63356433212E+01  0.20466631703E+02  0.24737581781E+02  0.51100000000E-03 0.  1.
         12    1    3    3    0    0  0.47690039592E+01 -0.99636386599E+00  0.18143005596E+02  0.18785760346E+02  0.00000000000E+00 0. -1.
</event>
<event>
 7    1  0.5946946E-013  0.5052884E+02  0.7816164E-02  0.1300439E+00
        -11   -1    0    0    0    0  0.00000000000E+00  0.00000000000E+00  0.45593999997E+02  0.45594000000E+02  0.51100000000E-03 0. -1.
         11   -1    0    0    0    0 -0.00000000000E+00 -0.00000000000E+00 -0.45593999997E+02  0.45594000000E+02  0.51100000000E-03 0.  1.
    9900012    2    1    2    0    0 -0.11622815789E+02 -0.31491357328E+02 -0.22942789495E+02  0.50528843307E+02  0.29999949715E+02 0.  0.
         12    1    1    2    0    0  0.11622815789E+02  0.31491357328E+02  0.22942789495E+02  0.40659156693E+02  0.00000000000E+00 0. -1.
         11    1    3    3    0    0  0.19948732199E+01  0.35438525416E+01  0.13533892590E+01  0.42860322849E+01  0.51100000000E-03 0. -1.
        -11    1    3    3    0    0 -0.43942803329E+01 -0.26194103687E+02 -0.15932506246E+02  0.30972334803E+02  0.51100000000E-03 0.  1.
        -12    1    3    3    0    0 -0.92234086757E+01 -0.88411061820E+01 -0.83636725080E+01  0.15270476219E+02  0.00000000000E+00 0.  1.
</event>
<event>
 7    1  0.5946946E-013  0.5052885E+02  0.7816164E-02  0.1300439E+00
        -11   -1    0    0    0    0  0.00000000000E+00  0.00000000000E+00  0.45593999997E+02  0.45594000000E+02  0.51100000000E-03 0. -1.
         11   -1    0    0    0    0 -0.00000000000E+00 -0.00000000000E+00 -0.45593999997E+02  0.45594000000E+02  0.51100000000E-03 0.  1.
    9900012    2    1    2    0    0 -0.34599694136E+02  0.18400693689E+02 -0.10837055501E+02  0.50528854233E+02  0.29999982927E+02 0.  0.
         12    1    1    2    0    0  0.34599694136E+02 -0.18400693689E+02  0.10837055501E+02  0.40659145767E+02  0.00000000000E+00 0. -1.
         11    1    3    3    0    0 -0.34995447470E+02  0.15001513653E+02 -0.13613319935E+01  0.38099606042E+02  0.51100000000E-03 0.  1.
        -11    1    3    3    0    0  0.36429973086E+00 -0.71965321677E+00  0.93409290459E+00  0.12341575515E+01  0.51100000000E-03 0. -1.
         12    1    3    3    0    0  0.31453602820E-01  0.41188332531E+01 -0.10409816412E+02  0.11195090640E+02  0.00000000000E+00 0. -1.
</event>
<event>
 7    1  0.5946946E-013  0.5052884E+02  0.7816164E-02  0.1300439E+00
        -11   -1    0    0    0    0  0.00000000000E+00  0.00000000000E+00  0.45593999997E+02  0.45594000000E+02  0.51100000000E-03 0. -1.
         11   -1    0    0    0    0 -0.00000000000E+00 -0.00000000000E+00 -0.45593999997E+02  0.45594000000E+02  0.51100000000E-03 0.  1.
    9900012    2    1    2    0    0  0.24116352887E+02  0.15580840646E+02 -0.28788988698E+02  0.50528844303E+02  0.29999952742E+02 0.  0.
         12    1    1    2    0    0 -0.24116352887E+02 -0.15580840646E+02  0.28788988698E+02  0.40659155697E+02  0.00000000000E+00 0. -1.
         11    1    3    3    0    0  0.11616050297E+02  0.87886010746E+01  0.34413949957E+01  0.14967141782E+02  0.51100000000E-03 0. -1.
        -11    1    3    3    0    0  0.99738945721E+01  0.62745622918E+01 -0.29685087119E+02  0.31938270185E+02  0.51100000000E-03 0.  1.
         12    1    3    3    0    0  0.25264080176E+01  0.51767727988E+00 -0.25452965741E+01  0.36234323352E+01  0.00000000000E+00 0. -1.
</event>
<event>
 7    1  0.5946946E-013  0.5052886E+02  0.7816164E-02  0.1300439E+00
        -11   -1    0    0    0    0  0.00000000000E+00  0.00000000000E+00  0.45593999997E+02  0.45594000000E+02  0.51100000000E-03 0. -1.
         11   -1    0    0    0    0 -0.00000000000E+00 -0.00000000000E+00 -0.45593999997E+02  0.45594000000E+02  0.51100000000E-03 0.  1.
    9900012    2    1    2    0    0  0.40171124393E+02  0.57131417140E+01 -0.26088874783E+01  0.50528861825E+02  0.30000006003E+02 0.  0.
         12    1    1    2    0    0 -0.40171124393E+02 -0.57131417140E+01  0.26088874783E+01  0.40659138175E+02  0.00000000000E+00 0. -1.
         11    1    3    3    0    0  0.58167819378E+01  0.16332241429E+01 -0.69407846437E+01  0.92020033114E+01  0.51100000000E-03 0. -1.
        -11    1    3    3    0    0  0.36180793525E+02  0.54042633045E+01  0.75925703759E+01  0.37361785385E+02  0.51100000000E-03 0.  1.
        -12    1    3    3    0    0 -0.18264510692E+01 -0.13243457334E+01 -0.32606732106E+01  0.39650731288E+01  0.00000000000E+00 0.  1.
</event>
<event>
 7    1  0.5946946E-013  0.5052885E+02  0.7816164E-02  0.1300439E+00
        -11   -1    0    0    0    0  0.00000000000E+00  0.00000000000E+00  0.45593999997E+02  0.45594000000E+02  0.51100000000E-03 0.  1.
         11   -1    0    0    0    0 -0.00000000000E+00 -0.00000000000E+00 -0.45593999997E+02  0.45594000000E+02  0.51100000000E-03 0. -1.
    9900012    2    1    2    0    0 -0.16710893702E+01 -0.27143858928E+01  0.40534008435E+02  0.50528852564E+02  0.29999977853E+02 0.  0.
         12    1    1    2    0    0  0.16710893702E+01  0.27143858928E+01 -0.40534008435E+02  0.40659147436E+02  0.00000000000E+00 0. -1.
         11    1    3    3    0    0  0.49198366893E+01  0.93493579990E+01  0.48273870844E+01  0.11615461866E+02  0.51100000000E-03 0. -1.
        -11    1    3    3    0    0 -0.60003000867E+01 -0.46903741625E+01  0.13409729934E+02  0.15421545580E+02  0.51100000000E-03 0.  1.
         12    1    3    3    0    0 -0.59062597283E+00 -0.73733697293E+01  0.22296891416E+02  0.23491845117E+02  0.00000000000E+00 0. -1.
</event>
<event>
 7    1  0.5946946E-013  0.5052886E+02  0.7816164E-02  0.1300439E+00
        -11   -1    0    0    0    0  0.00000000000E+00  0.00000000000E+00  0.45593999997E+02  0.45594000000E+02  0.51100000000E-03 0. -1.
         11   -1    0    0    0    0 -0.00000000000E+00 -0.00000000000E+00 -0.45593999997E+02  0.45594000000E+02  0.51100000000E-03 0.  1.
    9900012    2    1    2    0    0  0.11355722392E+02 -0.24972700243E+02 -0.30009624042E+02  0.50528859286E+02  0.29999998287E+02 0.  0.
         12    1    1    2    0    0 -0.11355722392E+02  0.24972700243E+02  0.30009624042E+02  0.40659140714E+02  0.00000000000E+00 0. -1.
         11    1    3    3    0    0  0.86438041731E+01 -0.22442801191E+02 -0.59733326143E+01  0.24780544358E+02  0.51100000000E-03 0. -1.
        -11    1    3    3    0    0  0.50901380917E+01  0.45001037880E+00 -0.16923520218E+02  0.17678165967E+02  0.51100000000E-03 0.  1.
         12    1    3    3    0    0 -0.23782198732E+01 -0.29799094302E+01 -0.71127712098E+01  0.80701489615E+01  0.00000000000E+00 0. -1.
</event>
<event>
 7    1  0.5946946E-013  0.5052886E+02  0.7816164E-02  0.1300439E+00
        -11   -1    0    0    0    0  0.00000000000E+00  0.00000000000E+00  0.45593999997E+02  0.45594000000E+02  0.51100000000E-03 0.  1.
         11   -1    0    0    0    0 -0.00000000000E+00 -0.00000000000E+00 -0.45593999997E+02  0.45594000000E+02  0.51100000000E-03 0. -1.
    9900012    2    1    2    0    0 -0.19894028304E+02  0.30225036807E+02 -0.18542935072E+02  0.50528860151E+02  0.30000000916E+02 0.  0.
         12    1    1    2    0    0  0.19894028304E+02 -0.30225036807E+02  0.18542935072E+02  0.40659139849E+02  0.00000000000E+00 0. -1.
         11    1    3    3    0    0 -0.59955406530E+01 -0.22153818373E+01 -0.99697193982E+01  0.11842707864E+02  0.51100000000E-03 0. -1.
        -11    1    3    3    0    0 -0.10918500963E+02  0.28153195023E+02 -0.11942620574E+02  0.32472176393E+02  0.51100000000E-03 0.  1.
         12    1    3    3    0    0 -0.29799866883E+01  0.42872236213E+01  0.33694048994E+01  0.62139758945E+01  0.00000000000E+00 0. -1.
</event>
<event>
 7    1  0.5946946E-013  0.5052887E+02  0.7816164E-02  0.1300439E+00
        -11   -1    0    0    0    0  0.00000000000E+00  0.00000000000E+00  0.45593999997E+02  0.45594000000E+02  0.51100000000E-03 0.  1.
         11   -1    0    0    0    0 -0.00000000000E+00 -0.00000000000E+00 -0.45593999997E+02  0.45594000000E+02  0.51100000000E-03 0. -1.
    9900012    2    1    2    0    0  0.56852032572E+01  0.17748658023E+02  0.36136250536E+02  0.50528868178E+02  0.30000025315E+02 0.  0.
         12    1    1    2    0    0 -0.56852032572E+01 -0.17748658023E+02 -0.36136250536E+02  0.40659131822E+02  0.00000000000E+00 0. -1.
         11    1    3    3    0    0  0.65271050524E+01  0.11788035007E+02  0.25731925440E+01  0.13717951371E+02  0.51100000000E-03 0. -1.
        -11    1    3    3    0    0 -0.24535952389E+01  0.10155307742E+02  0.25895547228E+02  0.27923641801E+02  0.51100000000E-03 0.  1.
         12    1    3    3    0    0  0.16116934437E+01 -0.41946847267E+01  0.76675107640E+01  0.88872750058E+01  0.00000000000E+00 0. -1.
</event>
<event>
 7    1  0.5946946E-013  0.5052886E+02  0.7816164E-02  0.1300439E+00
        -11   -1    0    0    0    0  0.00000000000E+00  0.00000000000E+00  0.45593999997E+02  0.45594000000E+02  0.51100000000E-03 0. -1.
         11   -1    0    0    0    0 -0.00000000000E+00 -0.00000000000E+00 -0.45593999997E+02  0.45594000000E+02  0.51100000000E-03 0.  1.
    9900012    2    1    2    0    0 -0.69793176816E+01 -0.22340741682E+02 -0.33246748676E+02  0.50528856972E+02  0.29999991253E+02 0.  0.
         12    1    1    2    0    0  0.69793176816E+01  0.22340741682E+02  0.33246748676E+02  0.40659143028E+02  0.00000000000E+00 0. -1.
         11    1    3    3    0    0 -0.47740203667E+01 -0.27327596257E+01  0.28336678057E+01  0.61878040635E+01  0.51100000000E-03 0. -1.
        -11    1    3    3    0    0  0.51957045939E+01 -0.17134474396E+02 -0.23629726781E+02  0.29647083281E+02  0.51100000000E-03 0.  1.
        -12    1    3    3    0    0 -0.74010019088E+01 -0.24735076609E+01 -0.12450689700E+02  0.14693969628E+02  0.00000000000E+00 0.  1.
</event>
<event>
 7    1  0.6431241E-013  0.5052886E+02  0.7816164E-02  0.1300439E+00
        -11   -1    0    0    0    0  0.00000000000E+00  0.00000000000E+00  0.45593999997E+02  0.45594000000E+02  0.51100000000E-03 0.  1.
         11   -1    0    0    0    0 -0.00000000000E+00 -0.00000000000E+00 -0.45593999997E+02  0.45594000000E+02  0.51100000000E-03 0. -1.
    9900012    2    1    2    0    0  0.55678757444E+01 -0.32024538478E+02 -0.24425265601E+02  0.50528857059E+02  0.29999991516E+02 0.  0.
         12    1    1    2    0    0 -0.55678757444E+01  0.32024538478E+02  0.24425265601E+02  0.40659142941E+02  0.00000000000E+00 0. -1.
         11    1    3    3    0    0  0.16701040683E+01  0.37518216316E+01  0.40122803568E+00  0.41263055331E+01  0.51100000000E-03 0. -1.
        -11    1    3    3    0    0 -0.17182230788E+00 -0.21355942431E+02 -0.56970097838E+01  0.22103432330E+02  0.51100000000E-03 0.  1.
        -12    1    3    3    0    0  0.40695939839E+01 -0.14420417679E+02 -0.19129483853E+02  0.24299119196E+02  0.00000000000E+00 0.  1.
</event>
<event>
 7    1  0.5946946E-013  0.5052886E+02  0.7816164E-02  0.1300439E+00
        -11   -1    0    0    0    0  0.00000000000E+00  0.00000000000E+00  0.45593999997E+02  0.45594000000E+02  0.51100000000E-03 0. -1.
         11   -1    0    0    0    0 -0.00000000000E+00 -0.00000000000E+00 -0.45593999997E+02  0.45594000000E+02  0.51100000000E-03 0.  1.
    9900012    2    1    2    0    0  0.24380889354E+02  0.10817651061E+02 -0.30687400791E+02  0.50528857025E+02  0.29999991412E+02 0.  0.
         12    1    1    2    0    0 -0.24380889354E+02 -0.10817651061E+02  0.30687400791E+02  0.40659142975E+02  0.00000000000E+00 0. -1.
         11    1    3    3    0    0  0.24151804109E+02  0.10222885283E+02 -0.26090465001E+02  0.36993639851E+02  0.51100000000E-03 0. -1.
        -11    1    3    3    0    0  0.43106803103E+01  0.45576290726E+01 -0.84296690632E-01  0.62738388324E+01  0.51100000000E-03 0.  1.
         12    1    3    3    0    0 -0.40815950651E+01 -0.39628632944E+01 -0.45126390998E+01  0.72613783410E+01  0.00000000000E+00 0. -1.
</event>
<event>
 7    1  0.5946946E-013  0.5052884E+02  0.7816164E-02  0.1300439E+00
        -11   -1    0    0    0    0  0.00000000000E+00  0.00000000000E+00  0.45593999997E+02  0.45594000000E+02  0.51100000000E-03 0.  1.
         11   -1    0    0    0    0 -0.00000000000E+00 -0.00000000000E+00 -0.45593999997E+02  0.45594000000E+02  0.51100000000E-03 0. -1.
    9900012    2    1    2    0    0  0.63728383420E+01  0.49453157027E+01  0.39850946227E+02  0.50528841978E+02  0.29999945675E+02 0.  0.
         12    1    1    2    0    0 -0.63728383420E+01 -0.49453157027E+01 -0.39850946227E+02  0.40659158022E+02  0.00000000000E+00 0. -1.
         11    1    3    3    0    0 -0.78617421129E+01  0.88976762612E+01  0.62441610764E+01  0.13415110127E+02  0.51100000000E-03 0. -1.
        -11    1    3    3    0    0  0.12887286799E+02 -0.46916376498E+01  0.26454704390E+02  0.29798406157E+02  0.51100000000E-03 0.  1.
         12    1    3    3    0    0  0.13472936561E+01  0.73927709126E+00  0.71520807598E+01  0.73153256939E+01  0.00000000000E+00 0. -1.
</event>
<event>
 7    1  0.5946946E-013  0.5052886E+02  0.7816164E-02  0.1300439E+00
        -11   -1    0    0    0    0  0.00000000000E+00  0.00000000000E+00  0.45593999997E+02  0.45594000000E+02  0.51100000000E-03 0. -1.
         11   -1    0    0    0    0 -0.00000000000E+00 -0.00000000000E+00 -0.45593999997E+02  0.45594000000E+02  0.51100000000E-03 0.  1.
    9900012    2    1    2    0    0 -0.76453554965E+01  0.34644807089E+02 -0.19860809512E+02  0.50528857444E+02  0.29999992686E+02 0.  0.
         12    1    1    2    0    0  0.76453554965E+01 -0.34644807089E+02  0.19860809512E+02  0.40659142556E+02  0.00000000000E+00 0. -1.
         11    1    3    3    0    0 -0.17942494986E+02  0.26102807458E+02 -0.17006090051E+02  0.35951311278E+02  0.51100000000E-03 0. -1.
        -11    1    3    3    0    0  0.68271704040E+01  0.46125147906E+01  0.66063534460E+00  0.82657115688E+01  0.51100000000E-03 0.  1.
         12    1    3    3    0    0  0.34699690858E+01  0.39294848412E+01 -0.35153548054E+01  0.63118345971E+01  0.00000000000E+00 0. -1.
</event>
<event>
 7    1  0.5946946E-013  0.5052886E+02  0.7816164E-02  0.1300439E+00
        -11   -1    0    0    0    0  0.00000000000E+00  0.00000000000E+00  0.45593999997E+02  0.45594000000E+02  0.51100000000E-03 0.  1.
         11   -1    0    0    0    0 -0.00000000000E+00 -0.00000000000E+00 -0.45593999997E+02  0.45594000000E+02  0.51100000000E-03 0. -1.
    9900012    2    1    2    0    0 -0.18842316315E+02  0.89962078850E-01  0.36029498841E+02  0.50528858789E+02  0.29999996776E+02 0.  0.
         12    1    1    2    0    0  0.18842316315E+02 -0.89962078850E-01 -0.36029498841E+02  0.40659141211E+02  0.00000000000E+00 0. -1.
         11    1    3    3    0    0 -0.52343950056E+01 -0.11610113598E+02  0.86311868122E+01  0.15384765675E+02  0.51100000000E-03 0. -1.
        -11    1    3    3    0    0 -0.75986564612E+01  0.12971552149E+02  0.14639238636E+02  0.20983518610E+02  0.51100000000E-03 0.  1.
        -12    1    3    3    0    0 -0.60092648478E+01 -0.12714764719E+01  0.12759073393E+02  0.14160574504E+02  0.00000000000E+00 0.  1.
</event>
<event>
 7    1  0.5946946E-013  0.5052886E+02  0.7816164E-02  0.1300439E+00
        -11   -1    0    0    0    0  0.00000000000E+00  0.00000000000E+00  0.45593999997E+02  0.45594000000E+02  0.51100000000E-03 0.  1.
         11   -1    0    0    0    0 -0.00000000000E+00 -0.00000000000E+00 -0.45593999997E+02  0.45594000000E+02  0.51100000000E-03 0. -1.
    9900012    2    1    2    0    0 -0.66215058157E+00 -0.27028786137E+02  0.30367284463E+02  0.50528859710E+02  0.29999999575E+02 0.  0.
         12    1    1    2    0    0  0.66215058157E+00  0.27028786137E+02 -0.30367284463E+02  0.40659140290E+02  0.00000000000E+00 0. -1.
         11    1    3    3    0    0  0.89771429967E+01 -0.19160194290E+01  0.15942812085E+02  0.18396561752E+02  0.51100000000E-03 0. -1.
        -11    1    3    3    0    0 -0.58186785898E+00 -0.13496160102E+02  0.98140555416E+01  0.16697322963E+02  0.51100000000E-03 0.  1.
         12    1    3    3    0    0 -0.90574257193E+01 -0.11616606606E+02  0.46104168361E+01  0.15434974995E+02  0.00000000000E+00 0. -1.
</event>
<event>
 7    1  0.5946946E-013  0.5052886E+02  0.7816164E-02  0.1300439E+00
        -11   -1    0    0    0    0  0.00000000000E+00  0.00000000000E+00  0.45593999997E+02  0.45594000000E+02  0.51100000000E-03 0.  1.
         11   -1    0    0    0    0 -0.00000000000E+00 -0.00000000000E+00 -0.45593999997E+02  0.45594000000E+02  0.51100000000E-03 0. -1.
    9900012    2    1    2    0    0 -0.16743276596E+02  0.14765153654E+02  0.33982619690E+02  0.50528861856E+02  0.30000006098E+02 0.  0.
         12    1    1    2    0    0  0.16743276596E+02 -0.14765153654E+02 -0.33982619690E+02  0.40659138144E+02  0.00000000000E+00 0. -1.
         11    1    3    3    0    0  0.37000213177E+01  0.70857525850E+01 -0.19638373167E+01  0.82313246027E+01  0.51100000000E-03 0. -1.
        -11    1    3    3    0    0 -0.51581961837E+01  0.37425402349E+01  0.12539570858E+02  0.14066073825E+02  0.51100000000E-03 0.  1.
         12    1    3    3    0    0 -0.15285101730E+02  0.39368608340E+01  0.23406886149E+02  0.28231463428E+02  0.00000000000E+00 0. -1.
</event>
<event>
 7    1  0.5946946E-013  0.5052885E+02  0.7816164E-02  0.1300439E+00
        -11   -1    0    0    0    0  0.00000000000E+00  0.00000000000E+00  0.45593999997E+02  0.45594000000E+02  0.51100000000E-03 0.  1.
         11   -1    0    0    0    0 -0.00000000000E+00 -0.00000000000E+00 -0.45593999997E+02  0.45594000000E+02  0.51100000000E-03 0. -1.
    9900012    2    1    2    0    0 -0.72443269506E+00  0.34203626803E+02  0.21971650447E+02  0.50528852044E+02  0.29999976272E+02 0.  0.
         12    1    1    2    0    0  0.72443269506E+00 -0.34203626803E+02 -0.21971650447E+02  0.40659147956E+02  0.00000000000E+00 0. -1.
         11    1    3    3    0    0 -0.85434344054E+01  0.10932214224E+02 -0.16978184777E+01  0.13978060206E+02  0.51100000000E-03 0. -1.
        -11    1    3    3    0    0 -0.14531668012E+01  0.89634275558E+01  0.14718860832E+02  0.17294495996E+02  0.51100000000E-03 0.  1.
         12    1    3    3    0    0  0.92721685115E+01  0.14307985023E+02  0.89506080928E+01  0.19256295842E+02  0.00000000000E+00 0. -1.
</event>
<event>
 7    1  0.5946946E-013  0.5052886E+02  0.7816164E-02  0.1300439E+00
        -11   -1    0    0    0    0  0.00000000000E+00  0.00000000000E+00  0.45593999997E+02  0.45594000000E+02  0.51100000000E-03 0.  1.
         11   -1    0    0    0    0 -0.00000000000E+00 -0.00000000000E+00 -0.45593999997E+02  0.45594000000E+02  0.51100000000E-03 0. -1.
    9900012    2    1    2    0    0  0.21659080581E+02 -0.25809215042E+02  0.22758167497E+02  0.50528861537E+02  0.30000005129E+02 0.  0.
         12    1    1    2    0    0 -0.21659080581E+02  0.25809215042E+02 -0.22758167497E+02  0.40659138463E+02  0.00000000000E+00 0. -1.
         11    1    3    3    0    0  0.13475018217E+02 -0.11159765545E+02  0.62744562361E+00  0.17507431886E+02  0.51100000000E-03 0. -1.
        -11    1    3    3    0    0  0.10713232740E+02 -0.93961839391E+01  0.23069696338E+02  0.27115908942E+02  0.51100000000E-03 0.  1.
        -12    1    3    3    0    0 -0.25291703760E+01 -0.52532655571E+01 -0.93897446446E+00  0.59055207094E+01  0.00000000000E+00 0.  1.
</event>
<event>
 7    1  0.5946946E-013  0.5052886E+02  0.7816164E-02  0.1300439E+00
        -11   -1    0    0    0    0  0.00000000000E+00  0.00000000000E+00  0.45593999997E+02  0.45594000000E+02  0.51100000000E-03 0. -1.
         11   -1    0    0    0    0 -0.00000000000E+00 -0.00000000000E+00 -0.45593999997E+02  0.45594000000E+02  0.51100000000E-03 0.  1.
    9900012    2    1    2    0    0  0.49456301229E+01  0.32545793620E+02 -0.23863733931E+02  0.50528859124E+02  0.29999997792E+02 0.  0.
         12    1    1    2    0    0 -0.49456301229E+01 -0.32545793620E+02  0.23863733931E+02  0.40659140876E+02  0.00000000000E+00 0. -1.
         11    1    3    3    0    0  0.86474017224E+01  0.19912050380E+01 -0.99989404468E+01  0.13368667262E+02  0.51100000000E-03 0. -1.
        -11    1    3    3    0    0 -0.36709993184E+01  0.11699568354E+02  0.21167546455E+01  0.12443343045E+02  0.51100000000E-03 0.  1.
        -12    1    3    3    0    0 -0.30772281051E-01  0.18855020229E+02 -0.15981548130E+02  0.24716848816E+02  0.00000000000E+00 0.  1.
</event>
<event>
 7    1  0.5946946E-013  0.5052884E+02  0.7816164E-02  0.1300439E+00
        -11   -1    0    0    0    0  0.00000000000E+00  0.00000000000E+00  0.45593999997E+02  0.45594000000E+02  0.51100000000E-03 0.  1.
         11   -1    0    0    0    0 -0.00000000000E+00 -0.00000000000E+00 -0.45593999997E+02  0.45594000000E+02  0.51100000000E-03 0. -1.
    9900012    2    1    2    0    0 -0.48668132940E+01 -0.17241844333E+02  0.36499323251E+02  0.50528835407E+02  0.29999925703E+02 0.  0.
         12    1    1    2    0    0  0.48668132940E+01  0.17241844333E+02 -0.36499323251E+02  0.40659164593E+02  0.00000000000E+00 0. -1.
         11    1    3    3    0    0  0.71568556355E+01 -0.59793242496E+01  0.33700052390E+01  0.99161402089E+01  0.51100000000E-03 0. -1.
        -11    1    3    3    0    0 -0.13113452553E+02 -0.12404759338E+02  0.34223251930E+02  0.38692010352E+02  0.51100000000E-03 0.  1.
        -12    1    3    3    0    0  0.10897836235E+01  0.11422392546E+01 -0.10939339188E+01  0.19206848465E+01  0.00000000000E+00 0.  1.
</event>
<event>
 7    1  0.5946946E-013  0.5052884E+02  0.7816164E-02  0.1300439E+00
        -11   -1    0    0    0    0  0.00000000000E+00  0.00000000000E+00  0.45593999997E+02  0.45594000000E+02  0.51100000000E-03 0. -1.
         11   -1    0    0    0    0 -0.00000000000E+00 -0.00000000000E+00 -0.45593999997E+02  0.45594000000E+02  0.51100000000E-03 0.  1.
    9900012    2    1    2    0    0  0.18362780036E+02  0.45176879177E+01 -0.35993974165E+02  0.50528839028E+02  0.29999936709E+02 0.  0.
         12    1    1    2    0    0 -0.18362780036E+02 -0.45176879177E+01  0.35993974165E+02  0.40659160972E+02  0.00000000000E+00 0. -1.
         11    1    3    3    0    0  0.79378596848E+01  0.76576553664E+01 -0.34756211816E+01  0.11564136152E+02  0.51100000000E-03 0. -1.
        -11    1    3    3    0    0  0.12754923944E+02 -0.85391846651E+01 -0.20764543609E+02  0.25821929268E+02  0.51100000000E-03 0.  1.
        -12    1    3    3    0    0 -0.23300035928E+01  0.53992172164E+01 -0.11753809375E+02  0.13142773608E+02  0.00000000000E+00 0.  1.
</event>
<event>
 7    1  0.5946946E-013  0.5052886E+02  0.7816164E-02  0.1300439E+00
        -11   -1    0    0    0    0  0.00000000000E+00  0.00000000000E+00  0.45593999997E+02  0.45594000000E+02  0.51100000000E-03 0.  1.
         11   -1    0    0    0    0 -0.00000000000E+00 -0.00000000000E+00 -0.45593999997E+02  0.45594000000E+02  0.51100000000E-03 0. -1.
    9900012    2    1    2    0    0 -0.76143578354E+01 -0.50810255964E+01  0.39615276934E+02  0.50528862860E+02  0.30000009151E+02 0.  0.
         12    1    1    2    0    0  0.76143578354E+01  0.50810255964E+01 -0.39615276934E+02  0.40659137140E+02  0.00000000000E+00 0. -1.
         11    1    3    3    0    0 -0.82475813062E+00  0.34953516468E+01  0.50750223010E+01  0.62171987845E+01  0.51100000000E-03 0. -1.
        -11    1    3    3    0    0 -0.87112663988E+01 -0.68206040158E+01  0.14953030921E+01  0.11164350989E+02  0.51100000000E-03 0.  1.
        -12    1    3    3    0    0  0.19216666940E+01 -0.17557732273E+01  0.33044951541E+02  0.33147313087E+02  0.00000000000E+00 0.  1.
</event>
<event>
 7    1  0.5946946E-013  0.5052885E+02  0.7816164E-02  0.1300439E+00
        -11   -1    0    0    0    0  0.00000000000E+00  0.00000000000E+00  0.45593999997E+02  0.45594000000E+02  0.51100000000E-03 0.  1.
         11   -1    0    0    0    0 -0.00000000000E+00 -0.00000000000E+00 -0.45593999997E+02  0.45594000000E+02  0.51100000000E-03 0. -1.
    9900012    2    1    2    0    0  0.20677924594E+02  0.35000546308E+02  0.74292383090E+00  0.50528846748E+02  0.29999960175E+02 0.  0.
         12    1    1    2    0    0 -0.20677924594E+02 -0.35000546308E+02 -0.74292383090E+00  0.40659153252E+02  0.00000000000E+00 0. -1.
         11    1    3    3    0    0  0.86463725502E+01  0.42860415078E+01 -0.11279163477E+02  0.14844171890E+02  0.51100000000E-03 0. -1.
        -11    1    3    3    0    0  0.82958506374E+01  0.13202548558E+02  0.69709566002E+01  0.17079890585E+02  0.51100000000E-03 0.  1.
         12    1    3    3    0    0  0.37357014062E+01  0.17511956242E+02  0.50511307080E+01  0.18604784273E+02  0.00000000000E+00 0. -1.
</event>
<event>
 7    1  0.5946946E-013  0.5052896E+02  0.7816164E-02  0.1300438E+00
        -11   -1    0    0    0    0  0.00000000000E+00  0.00000000000E+00  0.45593999997E+02  0.45594000000E+02  0.51100000000E-03 0.  1.
         11   -1    0    0    0    0 -0.00000000000E+00 -0.00000000000E+00 -0.45593999997E+02  0.45594000000E+02  0.51100000000E-03 0. -1.
    9900012    2    1    2    0    0  0.16826963805E+02  0.35451399316E+02  0.10639995289E+02  0.50528955199E+02  0.30000289823E+02 0.  0.
         12    1    1    2    0    0 -0.16826963805E+02 -0.35451399316E+02 -0.10639995289E+02  0.40659044801E+02  0.00000000000E+00 0. -1.
         11    1    3    3    0    0  0.17428777424E+02  0.97275674371E+01  0.92377789979E+01  0.21993735740E+02  0.51100000000E-03 0. -1.
        -11    1    3    3    0    0  0.50670880718E+00  0.16401180488E+02 -0.50208487161E+01  0.17159964957E+02  0.51100000000E-03 0.  1.
        -12    1    3    3    0    0 -0.11085224260E+01  0.93226513906E+01  0.64230650069E+01  0.11375254503E+02  0.00000000000E+00 0.  1.
</event>
<event>
 7    1  0.5946946E-013  0.5052886E+02  0.7816164E-02  0.1300439E+00
        -11   -1    0    0    0    0  0.00000000000E+00  0.00000000000E+00  0.45593999997E+02  0.45594000000E+02  0.51100000000E-03 0.  1.
         11   -1    0    0    0    0 -0.00000000000E+00 -0.00000000000E+00 -0.45593999997E+02  0.45594000000E+02  0.51100000000E-03 0. -1.
    9900012    2    1    2    0    0  0.25349292791E+02 -0.39303657664E+01  0.31545699979E+02  0.50528860717E+02  0.30000002635E+02 0.  0.
         12    1    1    2    0    0 -0.25349292791E+02  0.39303657664E+01 -0.31545699979E+02  0.40659139283E+02  0.00000000000E+00 0. -1.
         11    1    3    3    0    0 -0.22239211162E+01  0.76755209643E+01  0.36878646715E+01  0.88011245475E+01  0.51100000000E-03 0.  1.
        -11    1    3    3    0    0  0.19780401578E+02 -0.71574929774E+01  0.14177609000E+02  0.25367273987E+02  0.51100000000E-03 0. -1.
        -12    1    3    3    0    0  0.77928123290E+01 -0.44483937532E+01  0.13680226308E+02  0.16360462182E+02  0.00000000000E+00 0.  1.
</event>
<event>
 7    1  0.5946946E-013  0.5052886E+02  0.7816164E-02  0.1300439E+00
        -11   -1    0    0    0    0  0.00000000000E+00  0.00000000000E+00  0.45593999997E+02  0.45594000000E+02  0.51100000000E-03 0. -1.
         11   -1    0    0    0    0 -0.00000000000E+00 -0.00000000000E+00 -0.45593999997E+02  0.45594000000E+02  0.51100000000E-03 0.  1.
    9900012    2    1    2    0    0 -0.29751946013E+02  0.26874392208E+02 -0.67642208394E+01  0.50528856727E+02  0.29999990509E+02 0.  0.
         12    1    1    2    0    0  0.29751946013E+02 -0.26874392208E+02  0.67642208394E+01  0.40659143273E+02  0.00000000000E+00 0. -1.
         11    1    3    3    0    0 -0.21409114103E+01 -0.18650380075E+01 -0.27777321142E+01  0.39721108237E+01  0.51100000000E-03 0. -1.
        -11    1    3    3    0    0 -0.89829560722E+01  0.21229384566E+02  0.64295272921E+01  0.23931550102E+02  0.51100000000E-03 0.  1.
        -12    1    3    3    0    0 -0.18628078530E+02  0.75100456502E+01 -0.10416016017E+02  0.22625195802E+02  0.00000000000E+00 0.  1.
</event>
<event>
 7    1  0.5946946E-013  0.5052885E+02  0.7816164E-02  0.1300439E+00
        -11   -1    0    0    0    0  0.00000000000E+00  0.00000000000E+00  0.45593999997E+02  0.45594000000E+02  0.51100000000E-03 0.  1.
         11   -1    0    0    0    0 -0.00000000000E+00 -0.00000000000E+00 -0.45593999997E+02  0.45594000000E+02  0.51100000000E-03 0. -1.
    9900012    2    1    2    0    0  0.24796475532E+02  0.21549122785E+02  0.23956970202E+02  0.50528852040E+02  0.29999976261E+02 0.  0.
         12    1    1    2    0    0 -0.24796475532E+02 -0.21549122785E+02 -0.23956970202E+02  0.40659147960E+02  0.00000000000E+00 0. -1.
         11    1    3    3    0    0  0.10535769311E+02  0.42082349417E+01  0.21943803056E+02  0.24703080154E+02  0.51100000000E-03 0. -1.
        -11    1    3    3    0    0  0.15100136375E+01  0.10029293549E+02  0.41775353439E+01  0.10968986831E+02  0.51100000000E-03 0.  1.
         12    1    3    3    0    0  0.12750692583E+02  0.73115942939E+01 -0.21643681981E+01  0.14856785055E+02  0.00000000000E+00 0. -1.
</event>
<event>
 7    1  0.5946946E-013  0.5052886E+02  0.7816164E-02  0.1300439E+00
        -11   -1    0    0    0    0  0.00000000000E+00  0.00000000000E+00  0.45593999997E+02  0.45594000000E+02  0.51100000000E-03 0. -1.
         11   -1    0    0    0    0 -0.00000000000E+00 -0.00000000000E+00 -0.45593999997E+02  0.45594000000E+02  0.51100000000E-03 0.  1.
    9900012    2    1    2    0    0 -0.22165211439E+02 -0.11063970712E+01 -0.34068236032E+02  0.50528863033E+02  0.30000009674E+02 0.  0.
         12    1    1    2    0    0  0.22165211439E+02  0.11063970712E+01  0.34068236032E+02  0.40659136967E+02  0.00000000000E+00 0. -1.
         11    1    3    3    0    0  0.20642359673E+01  0.39360915717E+01  0.16362769603E+01  0.47361682341E+01  0.51100000000E-03 0. -1.
        -11    1    3    3    0    0 -0.22588081359E+02 -0.52293775088E+01 -0.37019814347E+02  0.43681053824E+02  0.51100000000E-03 0.  1.
        -12    1    3    3    0    0 -0.16413660470E+01  0.18688886587E+00  0.13153013552E+01  0.21116409741E+01  0.00000000000E+00 0.  1.
</event>
<event>
 7    1  0.5946946E-013  0.5052886E+02  0.7816164E-02  0.1300439E+00
        -11   -1    0    0    0    0  0.00000000000E+00  0.00000000000E+00  0.45593999997E+02  0.45594000000E+02  0.51100000000E-03 0.  1.
         11   -1    0    0    0    0 -0.00000000000E+00 -0.00000000000E+00 -0.45593999997E+02  0.45594000000E+02  0.51100000000E-03 0. -1.
    9900012    2    1    2    0    0  0.11328214087E+01  0.14236439323E+02  0.38068438911E+02  0.50528861666E+02  0.30000005519E+02 0.  0.
         12    1    1    2    0    0 -0.11328214087E+01 -0.14236439323E+02 -0.38068438911E+02  0.40659138334E+02  0.00000000000E+00 0. -1.
         11    1    3    3    0    0  0.27757303247E+01  0.44408431502E+01 -0.23783719792E+01  0.57517319350E+01  0.51100000000E-03 0. -1.
        -11    1    3    3    0    0 -0.74057298908E+01  0.11053778198E+02  0.27471225605E+02  0.30523746234E+02  0.51100000000E-03 0.  1.
        -12    1    3    3    0    0  0.57628209748E+01 -0.12581820249E+01  0.12975585286E+02  0.14253383496E+02  0.00000000000E+00 0.  1.
</event>
<event>
 7    1  0.5946946E-013  0.5052886E+02  0.7816164E-02  0.1300439E+00
        -11   -1    0    0    0    0  0.00000000000E+00  0.00000000000E+00  0.45593999997E+02  0.45594000000E+02  0.51100000000E-03 0.  1.
         11   -1    0    0    0    0 -0.00000000000E+00 -0.00000000000E+00 -0.45593999997E+02  0.45594000000E+02  0.51100000000E-03 0. -1.
    9900012    2    1    2    0    0  0.96195083390E+01  0.27917330783E+02  0.27950912526E+02  0.50528858226E+02  0.29999995063E+02 0.  0.
         12    1    1    2    0    0 -0.96195083390E+01 -0.27917330783E+02 -0.27950912526E+02  0.40659141774E+02  0.00000000000E+00 0. -1.
         11    1    3    3    0    0 -0.16791147239E+01 -0.24140585615E+01 -0.34808258311E+00  0.29611259244E+01  0.51100000000E-03 0. -1.
        -11    1    3    3    0    0  0.12225401863E+01  0.27410409306E+02  0.17680550379E+02  0.32640879351E+02  0.51100000000E-03 0.  1.
        -12    1    3    3    0    0  0.10076082877E+02  0.29209800391E+01  0.10618444730E+02  0.14926852951E+02  0.00000000000E+00 0.  1.
</event>
<event>
 7    1  0.5946946E-013  0.5052889E+02  0.7816164E-02  0.1300439E+00
        -11   -1    0    0    0    0  0.00000000000E+00  0.00000000000E+00  0.45593999997E+02  0.45594000000E+02  0.51100000000E-03 0.  1.
         11   -1    0    0    0    0 -0.00000000000E+00 -0.00000000000E+00 -0.45593999997E+02  0.45594000000E+02  0.51100000000E-03 0. -1.
    9900012    2    1    2    0    0  0.70405762254E+01 -0.32812887505E+02  0.22954483557E+02  0.50528885212E+02  0.30000077090E+02 0.  0.
         12    1    1    2    0    0 -0.70405762254E+01  0.32812887505E+02 -0.22954483557E+02  0.40659114788E+02  0.00000000000E+00 0. -1.
         11    1    3    3    0    0  0.60177103917E+01 -0.24502917334E+02  0.26119450030E+01  0.25365883647E+02  0.51100000000E-03 0. -1.
        -11    1    3    3    0    0 -0.48574595356E+01 -0.46663357273E+01  0.51807133990E+01  0.84976110669E+01  0.51100000000E-03 0.  1.
         12    1    3    3    0    0  0.58803253693E+01 -0.36436344432E+01  0.15161825155E+02  0.16665390498E+02  0.00000000000E+00 0. -1.
</event>
<event>
 7    1  0.5946946E-013  0.5052886E+02  0.7816164E-02  0.1300439E+00
        -11   -1    0    0    0    0  0.00000000000E+00  0.00000000000E+00  0.45593999997E+02  0.45594000000E+02  0.51100000000E-03 0. -1.
         11   -1    0    0    0    0 -0.00000000000E+00 -0.00000000000E+00 -0.45593999997E+02  0.45594000000E+02  0.51100000000E-03 0.  1.
    9900012    2    1    2    0    0 -0.18780258421E+02  0.37641198699E+01 -0.35865009024E+02  0.50528861088E+02  0.30000003763E+02 0.  0.
         12    1    1    2    0    0  0.18780258421E+02 -0.37641198699E+01  0.35865009024E+02  0.40659138912E+02  0.00000000000E+00 0. -1.
         11    1    3    3    0    0  0.25537917364E+01  0.38631355516E+01  0.46645079538E-01  0.46311817657E+01  0.51100000000E-03 0. -1.
        -11    1    3    3    0    0 -0.73132477937E+01  0.17404002544E+01 -0.29370212466E+02  0.30317024374E+02  0.51100000000E-03 0.  1.
        -12    1    3    3    0    0 -0.14020802364E+02 -0.18394159361E+01 -0.65414416376E+01  0.15580654948E+02  0.00000000000E+00 0.  1.
</event>
<event>
 7    1  0.5946946E-013  0.5052887E+02  0.7816164E-02  0.1300439E+00
        -11   -1    0    0    0    0  0.00000000000E+00  0.00000000000E+00  0.45593999997E+02  0.45594000000E+02  0.51100000000E-03 0. -1.
         11   -1    0    0    0    0 -0.00000000000E+00 -0.00000000000E+00 -0.45593999997E+02  0.45594000000E+02  0.51100000000E-03 0.  1.
    9900012    2    1    2    0    0  0.76519399154E+01 -0.38884306854E+02  0.90897353963E+01  0.50528870723E+02  0.30000033050E+02 0.  0.
         12    1    1    2    0    0 -0.76519399154E+01  0.38884306854E+02 -0.90897353963E+01  0.40659129277E+02  0.00000000000E+00 0. -1.
         11    1    3    3    0    0  0.70785054636E+00 -0.13384988061E+02  0.16176704985E+02  0.21008206544E+02  0.51100000000E-03 0. -1.
        -11    1    3    3    0    0  0.35440804078E+01 -0.64952225337E+01  0.26991751091E+01  0.78761645634E+01  0.51100000000E-03 0.  1.
         12    1    3    3    0    0  0.34000089612E+01 -0.19004096259E+02 -0.97861446974E+01  0.21644499615E+02  0.00000000000E+00 0. -1.
</event>
<event>
 7    1  0.5946946E-013  0.5052886E+02  0.7816164E-02  0.1300439E+00
        -11   -1    0    0    0    0  0.00000000000E+00  0.00000000000E+00  0.45593999997E+02  0.45594000000E+02  0.51100000000E-03 0. -1.
         11   -1    0    0    0    0 -0.00000000000E+00 -0.00000000000E+00 -0.45593999997E+02  0.45594000000E+02  0.51100000000E-03 0.  1.
    9900012    2    1    2    0    0 -0.29375846664E+02  0.79065023150E+01 -0.26976148813E+02  0.50528858951E+02  0.29999997267E+02 0.  0.
         12    1    1    2    0    0  0.29375846664E+02 -0.79065023150E+01  0.26976148813E+02  0.40659141049E+02  0.00000000000E+00 0. -1.
         11    1    3    3    0    0 -0.16607790606E+01 -0.53862319703E+01  0.35033182880E+01  0.66364841004E+01  0.51100000000E-03 0. -1.
        -11    1    3    3    0    0 -0.22864771630E+02  0.85841370396E+01 -0.20764538308E+02  0.32056999888E+02  0.51100000000E-03 0.  1.
         12    1    3    3    0    0 -0.48502959737E+01  0.47085972457E+01 -0.97149287929E+01  0.11835374963E+02  0.00000000000E+00 0. -1.
</event>
<event>
 7    1  0.5946946E-013  0.5052889E+02  0.7816164E-02  0.1300439E+00
        -11   -1    0    0    0    0  0.00000000000E+00  0.00000000000E+00  0.45593999997E+02  0.45594000000E+02  0.51100000000E-03 0.  1.
         11   -1    0    0    0    0 -0.00000000000E+00 -0.00000000000E+00 -0.45593999997E+02  0.45594000000E+02  0.51100000000E-03 0. -1.
    9900012    2    1    2    0    0 -0.39451104105E+02  0.30432231216E+01  0.93548118167E+01  0.50528888767E+02  0.30000087897E+02 0.  0.
         12    1    1    2    0    0  0.39451104105E+02 -0.30432231216E+01 -0.93548118167E+01  0.40659111233E+02  0.00000000000E+00 0. -1.
         11    1    3    3    0    0 -0.26143158803E+01  0.52587822250E+01  0.10041098019E+02  0.11632415386E+02  0.51100000000E-03 0.  1.
        -11    1    3    3    0    0 -0.24833014508E+02 -0.60715799603E+01  0.30520222871E+01  0.25746019752E+02  0.51100000000E-03 0. -1.
         12    1    3    3    0    0 -0.12003773717E+02  0.38560208570E+01 -0.37383084896E+01  0.13150453630E+02  0.00000000000E+00 0. -1.
</event>
<event>
 7    1  0.5946946E-013  0.5052886E+02  0.7816164E-02  0.1300439E+00
        -11   -1    0    0    0    0  0.00000000000E+00  0.00000000000E+00  0.45593999997E+02  0.45594000000E+02  0.51100000000E-03 0.  1.
         11   -1    0    0    0    0 -0.00000000000E+00 -0.00000000000E+00 -0.45593999997E+02  0.45594000000E+02  0.51100000000E-03 0. -1.
    9900012    2    1    2    0    0 -0.13045554371E+02  0.11029709375E+02  0.36896131913E+02  0.50528861693E+02  0.30000005601E+02 0.  0.
         12    1    1    2    0    0  0.13045554371E+02 -0.11029709375E+02 -0.36896131913E+02  0.40659138307E+02  0.00000000000E+00 0. -1.
         11    1    3    3    0    0  0.40722541031E+01  0.69119461044E+01  0.23607557555E+02  0.24933411849E+02  0.51100000000E-03 0. -1.
        -11    1    3    3    0    0 -0.18901275114E+02  0.37587129053E+01  0.13803290749E+02  0.23704787689E+02  0.51100000000E-03 0.  1.
         12    1    3    3    0    0  0.17834666398E+01  0.35905036482E+00 -0.51471639105E+00  0.18906621546E+01  0.00000000000E+00 0. -1.
</event>
<event>
 7    1  0.5946946E-013  0.5052886E+02  0.7816164E-02  0.1300439E+00
        -11   -1    0    0    0    0  0.00000000000E+00  0.00000000000E+00  0.45593999997E+02  0.45594000000E+02  0.51100000000E-03 0. -1.
         11   -1    0    0    0    0 -0.00000000000E+00 -0.00000000000E+00 -0.45593999997E+02  0.45594000000E+02  0.51100000000E-03 0.  1.
    9900012    2    1    2    0    0 -0.21239227029E+02 -0.31932789635E+02 -0.13503988518E+02  0.50528861733E+02  0.30000005724E+02 0.  0.
         12    1    1    2    0    0  0.21239227029E+02  0.31932789635E+02  0.13503988518E+02  0.40659138267E+02  0.00000000000E+00 0. -1.
         11    1    3    3    0    0 -0.18855773739E+02 -0.13304835951E+02  0.37121537467E+01  0.23373894598E+02  0.51100000000E-03 0. -1.
        -11    1    3    3    0    0  0.19711071630E+01 -0.29291457928E+00 -0.74879201785E+00  0.21287912406E+01  0.51100000000E-03 0.  1.
         12    1    3    3    0    0 -0.43545604529E+01 -0.18335039105E+02 -0.16467350247E+02  0.25026175894E+02  0.00000000000E+00 0. -1.
</event>
<event>
 7    1  0.5946946E-013  0.5052882E+02  0.7816164E-02  0.1300439E+00
        -11   -1    0    0    0    0  0.00000000000E+00  0.00000000000E+00  0.45593999997E+02  0.45594000000E+02  0.51100000000E-03 0. -1.
         11   -1    0    0    0    0 -0.00000000000E+00 -0.00000000000E+00 -0.45593999997E+02  0.45594000000E+02  0.51100000000E-03 0.  1.
    9900012    2    1    2    0    0 -0.27720983417E+02 -0.27479440564E+02 -0.11384037133E+02  0.50528820511E+02  0.29999880425E+02 0.  0.
         12    1    1    2    0    0  0.27720983417E+02  0.27479440564E+02  0.11384037133E+02  0.40659179489E+02  0.00000000000E+00 0. -1.
         11    1    3    3    0    0 -0.18853990563E+02 -0.55375141210E+01 -0.50003185297E+01  0.20276592625E+02  0.51100000000E-03 0. -1.
        -11    1    3    3    0    0 -0.87158570440E+01 -0.22195585986E+02 -0.10550257263E+02  0.26075239785E+02  0.51100000000E-03 0.  1.
        -12    1    3    3    0    0 -0.15113580910E+00  0.25365954352E+00  0.41665386594E+01  0.41769881011E+01  0.00000000000E+00 0.  1.
</event>
<event>
 7    1  0.5946946E-013  0.5052886E+02  0.7816164E-02  0.1300439E+00
        -11   -1    0    0    0    0  0.00000000000E+00  0.00000000000E+00  0.45593999997E+02  0.45594000000E+02  0.51100000000E-03 0.  1.
         11   -1    0    0    0    0 -0.00000000000E+00 -0.00000000000E+00 -0.45593999997E+02  0.45594000000E+02  0.51100000000E-03 0. -1.
    9900012    2    1    2    0    0 -0.58301508280E+01  0.30241282962E+02  0.26545047019E+02  0.50528863572E+02  0.30000011312E+02 0.  0.
         12    1    1    2    0    0  0.58301508280E+01 -0.30241282962E+02 -0.26545047019E+02  0.40659136428E+02  0.00000000000E+00 0. -1.
         11    1    3    3    0    0 -0.11232904974E+01  0.14635596577E+00  0.60755320978E+00  0.12854270784E+01  0.51100000000E-03 0. -1.
        -11    1    3    3    0    0  0.64254700415E+01  0.23499039355E+02  0.26870698543E+02  0.36270179988E+02  0.51100000000E-03 0.  1.
        -12    1    3    3    0    0 -0.11132330372E+02  0.65958876410E+01 -0.93320473404E+00  0.12973256506E+02  0.00000000000E+00 0.  1.
</event>
<event>
 7    1  0.5946946E-013  0.5052886E+02  0.7816164E-02  0.1300439E+00
        -11   -1    0    0    0    0  0.00000000000E+00  0.00000000000E+00  0.45593999997E+02  0.45594000000E+02  0.51100000000E-03 0. -1.
         11   -1    0    0    0    0 -0.00000000000E+00 -0.00000000000E+00 -0.45593999997E+02  0.45594000000E+02  0.51100000000E-03 0.  1.
    9900012    2    1    2    0    0  0.11535977854E+02 -0.37215167925E+02 -0.11624044150E+02  0.50528856980E+02  0.29999991276E+02 0.  0.
         12    1    1    2    0    0 -0.11535977854E+02  0.37215167925E+02  0.11624044150E+02  0.40659143020E+02  0.00000000000E+00 0. -1.
         11    1    3    3    0    0 -0.27458191364E+01 -0.13834389587E+01 -0.92028193890E+00  0.32094150854E+01  0.51100000000E-03 0. -1.
        -11    1    3    3    0    0  0.10973328800E+02 -0.21333476587E+02 -0.18716098951E+02  0.30427348364E+02  0.51100000000E-03 0.  1.
        -12    1    3    3    0    0  0.33084681905E+01 -0.14498252379E+02  0.80123367397E+01  0.16892093531E+02  0.00000000000E+00 0.  1.
</event>
<event>
 7    1  0.5946946E-013  0.5052885E+02  0.7816164E-02  0.1300439E+00
        -11   -1    0    0    0    0  0.00000000000E+00  0.00000000000E+00  0.45593999997E+02  0.45594000000E+02  0.51100000000E-03 0.  1.
         11   -1    0    0    0    0 -0.00000000000E+00 -0.00000000000E+00 -0.45593999997E+02  0.45594000000E+02  0.51100000000E-03 0. -1.
    9900012    2    1    2    0    0  0.24308089585E+01 -0.32350904472E+02  0.24508697814E+02  0.50528854401E+02  0.29999983436E+02 0.  0.
         12    1    1    2    0    0 -0.24308089585E+01  0.32350904472E+02 -0.24508697814E+02  0.40659145599E+02  0.00000000000E+00 0. -1.
         11    1    3    3    0    0  0.10528457726E+02 -0.21385045781E+02  0.19509419866E+02  0.30802371158E+02  0.51100000000E-03 0. -1.
        -11    1    3    3    0    0 -0.95853282025E+01 -0.12864212442E+02  0.24701306848E+01  0.16231698136E+02  0.51100000000E-03 0.  1.
         12    1    3    3    0    0  0.14876794347E+01  0.18983537518E+01  0.25291472631E+01  0.34947851072E+01  0.00000000000E+00 0. -1.
</event>
<event>
 7    1  0.5946946E-013  0.5052886E+02  0.7816164E-02  0.1300439E+00
        -11   -1    0    0    0    0  0.00000000000E+00  0.00000000000E+00  0.45593999997E+02  0.45594000000E+02  0.51100000000E-03 0.  1.
         11   -1    0    0    0    0 -0.00000000000E+00 -0.00000000000E+00 -0.45593999997E+02  0.45594000000E+02  0.51100000000E-03 0. -1.
    9900012    2    1    2    0    0 -0.26044315824E+02  0.25095337363E+02  0.18576421994E+02  0.50528858369E+02  0.29999995498E+02 0.  0.
         12    1    1    2    0    0  0.26044315824E+02 -0.25095337363E+02 -0.18576421994E+02  0.40659141631E+02  0.00000000000E+00 0. -1.
         11    1    3    3    0    0 -0.15970100392E+02  0.21964601440E+02  0.13130469207E+01  0.27188451876E+02  0.51100000000E-03 0. -1.
        -11    1    3    3    0    0  0.90462645818E+00 -0.20251077358E+00  0.93654151681E+01  0.94111827724E+01  0.51100000000E-03 0.  1.
         12    1    3    3    0    0 -0.10978841890E+02  0.33332466960E+01  0.78979599056E+01  0.13929223720E+02  0.00000000000E+00 0. -1.
</event>
<event>
 7    1  0.5946946E-013  0.5052876E+02  0.7816164E-02  0.1300439E+00
        -11   -1    0    0    0    0  0.00000000000E+00  0.00000000000E+00  0.45593999997E+02  0.45594000000E+02  0.51100000000E-03 0.  1.
         11   -1    0    0    0    0 -0.00000000000E+00 -0.00000000000E+00 -0.45593999997E+02  0.45594000000E+02  0.51100000000E-03 0. -1.
    9900012    2    1    2    0    0 -0.30911886617E+02  0.15209006060E+02  0.21594323615E+02  0.50528764740E+02  0.29999710903E+02 0.  0.
         12    1    1    2    0    0  0.30911886617E+02 -0.15209006060E+02 -0.21594323615E+02  0.40659235260E+02  0.00000000000E+00 0. -1.
         11    1    3    3    0    0 -0.57465702432E+01  0.17276197887E+02  0.73906534239E+01  0.19649728784E+02  0.51100000000E-03 0. -1.
        -11    1    3    3    0    0 -0.19950301394E+02  0.25298761973E+01  0.12642711147E+02  0.23754009024E+02  0.51100000000E-03 0.  1.
        -12    1    3    3    0    0 -0.52150149792E+01 -0.45970680240E+01  0.15609590441E+01  0.71250269324E+01  0.00000000000E+00 0.  1.
</event>
<event>
 7    1  0.5946946E-013  0.5052886E+02  0.7816164E-02  0.1300439E+00
        -11   -1    0    0    0    0  0.00000000000E+00  0.00000000000E+00  0.45593999997E+02  0.45594000000E+02  0.51100000000E-03 0. -1.
         11   -1    0    0    0    0 -0.00000000000E+00 -0.00000000000E+00 -0.45593999997E+02  0.45594000000E+02  0.51100000000E-03 0.  1.
    9900012    2    1    2    0    0 -0.33572327765E+02  0.15244119921E+02  0.17137132129E+02  0.50528859806E+02  0.29999999866E+02 0.  0.
         12    1    1    2    0    0  0.33572327765E+02 -0.15244119921E+02 -0.17137132129E+02  0.40659140194E+02  0.00000000000E+00 0. -1.
         11    1    3    3    0    0 -0.81111652713E+01  0.32850522639E+01  0.15068560661E+02  0.17425386398E+02  0.51100000000E-03 0. -1.
        -11    1    3    3    0    0 -0.56804564726E+01  0.11491634539E+02 -0.17936588133E+01  0.12943819464E+02  0.51100000000E-03 0.  1.
        -12    1    3    3    0    0 -0.19780706021E+02  0.46743311827E+00  0.38622302813E+01  0.20159653944E+02  0.00000000000E+00 0.  1.
</event>
<event>
 7    1  0.5946946E-013  0.5052892E+02  0.7816164E-02  0.1300439E+00
        -11   -1    0    0    0    0  0.00000000000E+00  0.00000000000E+00  0.45593999997E+02  0.45594000000E+02  0.51100000000E-03 0.  1.
         11   -1    0    0    0    0 -0.00000000000E+00 -0.00000000000E+00 -0.45593999997E+02  0.45594000000E+02  0.51100000000E-03 0. -1.
    9900012    2    1    2    0    0  0.21904955988E+01 -0.21589937450E+02  0.34383679262E+02  0.50528916517E+02  0.30000172246E+02 0.  0.
         12    1    1    2    0    0 -0.21904955988E+01  0.21589937450E+02 -0.34383679262E+02  0.40659083483E+02  0.00000000000E+00 0. -1.
         11    1    3    3    0    0 -0.85616328431E+00  0.21840992088E+01  0.85155257988E+01  0.88327506936E+01  0.51100000000E-03 0. -1.
        -11    1    3    3    0    0  0.70283856468E+01 -0.14120091139E+02  0.23277762032E+01  0.15943453857E+02  0.51100000000E-03 0.  1.
        -12    1    3    3    0    0 -0.39817267637E+01 -0.96539455198E+01  0.23540377260E+02  0.25752711967E+02  0.00000000000E+00 0.  1.
</event>
<event>
 7    1  0.5946946E-013  0.5052882E+02  0.7816164E-02  0.1300439E+00
        -11   -1    0    0    0    0  0.00000000000E+00  0.00000000000E+00  0.45593999997E+02  0.45594000000E+02  0.51100000000E-03 0. -1.
         11   -1    0    0    0    0 -0.00000000000E+00 -0.00000000000E+00 -0.45593999997E+02  0.45594000000E+02  0.51100000000E-03 0.  1.
    9900012    2    1    2    0    0 -0.26452881294E+02  0.30842112011E+02 -0.14759307006E+01  0.50528816862E+02  0.29999869333E+02 0.  0.
         12    1    1    2    0    0  0.26452881294E+02 -0.30842112011E+02  0.14759307006E+01  0.40659183138E+02  0.00000000000E+00 0. -1.
         11    1    3    3    0    0  0.19588366746E+01  0.90209606792E+01  0.12451112406E+01  0.93147772359E+01  0.51100000000E-03 0. -1.
        -11    1    3    3    0    0 -0.17853792012E+02  0.59458973851E+01 -0.93710127722E+01  0.21022070915E+02  0.51100000000E-03 0.  1.
         12    1    3    3    0    0 -0.10557925956E+02  0.15875253946E+02  0.66499708310E+01  0.20191968711E+02  0.00000000000E+00 0. -1.
</event>
<event>
 7    1  0.5946946E-013  0.5052887E+02  0.7816164E-02  0.1300439E+00
        -11   -1    0    0    0    0  0.00000000000E+00  0.00000000000E+00  0.45593999997E+02  0.45594000000E+02  0.51100000000E-03 0.  1.
         11   -1    0    0    0    0 -0.00000000000E+00 -0.00000000000E+00 -0.45593999997E+02  0.45594000000E+02  0.51100000000E-03 0. -1.
    9900012    2    1    2    0    0  0.35537782650E+02  0.19435927209E+02  0.35321347017E+01  0.50528865261E+02  0.30000016447E+02 0.  0.
         12    1    1    2    0    0 -0.35537782650E+02 -0.19435927209E+02 -0.35321347017E+01  0.40659134739E+02  0.00000000000E+00 0. -1.
         11    1    3    3    0    0  0.12131650959E+02  0.10737889807E+02 -0.81501946276E+01  0.18135735586E+02  0.51100000000E-03 0. -1.
        -11    1    3    3    0    0  0.13675387543E+02  0.12888972915E+02  0.11003422822E+02  0.21776527761E+02  0.51100000000E-03 0.  1.
         12    1    3    3    0    0  0.97307441482E+01 -0.41909355134E+01  0.67890650753E+00  0.10616601914E+02  0.00000000000E+00 0. -1.
</event>
<event>
 7    1  0.5946946E-013  0.5052886E+02  0.7816164E-02  0.1300439E+00
        -11   -1    0    0    0    0  0.00000000000E+00  0.00000000000E+00  0.45593999997E+02  0.45594000000E+02  0.51100000000E-03 0.  1.
         11   -1    0    0    0    0 -0.00000000000E+00 -0.00000000000E+00 -0.45593999997E+02  0.45594000000E+02  0.51100000000E-03 0. -1.
    9900012    2    1    2    0    0 -0.39185125936E+02  0.25919874220E+01  0.10534371400E+02  0.50528862353E+02  0.30000007607E+02 0.  0.
         12    1    1    2    0    0  0.39185125936E+02 -0.25919874220E+01 -0.10534371400E+02  0.40659137647E+02  0.00000000000E+00 0. -1.
         11    1    3    3    0    0 -0.22951921285E+01 -0.67687108236E+01 -0.36760662767E+01  0.80372144834E+01  0.51100000000E-03 0. -1.
        -11    1    3    3    0    0 -0.16880244545E+02  0.43665156138E+01  0.13153847723E+02  0.21841081125E+02  0.51100000000E-03 0.  1.
         12    1    3    3    0    0 -0.20009689263E+02  0.49941826318E+01  0.10565899537E+01  0.20650566745E+02  0.00000000000E+00 0. -1.
</event>
<event>
 7    1  0.5946946E-013  0.5052882E+02  0.7816164E-02  0.1300439E+00
        -11   -1    0    0    0    0  0.00000000000E+00  0.00000000000E+00  0.45593999997E+02  0.45594000000E+02  0.51100000000E-03 0. -1.
         11   -1    0    0    0    0 -0.00000000000E+00 -0.00000000000E+00 -0.45593999997E+02  0.45594000000E+02  0.51100000000E-03 0.  1.
    9900012    2    1    2    0    0 -0.10116394073E+02 -0.32846019038E+02 -0.21724787186E+02  0.50528821775E+02  0.29999884267E+02 0.  0.
         12    1    1    2    0    0  0.10116394073E+02  0.32846019038E+02  0.21724787186E+02  0.40659178225E+02  0.00000000000E+00 0. -1.
         11    1    3    3    0    0 -0.87671798637E+01 -0.15895239204E+02 -0.11217828373E+02  0.21339206775E+02  0.51100000000E-03 0. -1.
        -11    1    3    3    0    0  0.82276482219E+01 -0.11263885816E+02 -0.10440386403E+00  0.13949201388E+02  0.51100000000E-03 0.  1.
        -12    1    3    3    0    0 -0.95768624307E+01 -0.56868940173E+01 -0.10402554949E+02  0.15240413612E+02  0.00000000000E+00 0.  1.
</event>
<event>
 7    1  0.5946946E-013  0.5052887E+02  0.7816164E-02  0.1300439E+00
        -11   -1    0    0    0    0  0.00000000000E+00  0.00000000000E+00  0.45593999997E+02  0.45594000000E+02  0.51100000000E-03 0.  1.
         11   -1    0    0    0    0 -0.00000000000E+00 -0.00000000000E+00 -0.45593999997E+02  0.45594000000E+02  0.51100000000E-03 0. -1.
    9900012    2    1    2    0    0 -0.49013381076E+01 -0.47448346230E+01  0.40082764844E+02  0.50528873001E+02  0.30000039973E+02 0.  0.
         12    1    1    2    0    0  0.49013381076E+01  0.47448346230E+01 -0.40082764844E+02  0.40659126999E+02  0.00000000000E+00 0. -1.
         11    1    3    3    0    0 -0.35521057108E+01 -0.42026558599E-02  0.36213430360E+02  0.36387223188E+02  0.51100000000E-03 0. -1.
        -11    1    3    3    0    0  0.71622549308E+00  0.42756174188E+01  0.15661322930E+01  0.46094092776E+01  0.51100000000E-03 0.  1.
         12    1    3    3    0    0 -0.20654578899E+01 -0.90162493859E+01  0.23032021907E+01  0.95322405348E+01  0.00000000000E+00 0. -1.
</event>
<event>
 7    1  0.5946946E-013  0.5052886E+02  0.7816164E-02  0.1300439E+00
        -11   -1    0    0    0    0  0.00000000000E+00  0.00000000000E+00  0.45593999997E+02  0.45594000000E+02  0.51100000000E-03 0.  1.
         11   -1    0    0    0    0 -0.00000000000E+00 -0.00000000000E+00 -0.45593999997E+02  0.45594000000E+02  0.51100000000E-03 0. -1.
    9900012    2    1    2    0    0 -0.61045010524E+00 -0.36988002232E+02  0.16872492792E+02  0.50528856238E+02  0.29999989022E+02 0.  0.
         12    1    1    2    0    0  0.61045010524E+00  0.36988002232E+02 -0.16872492792E+02  0.40659143762E+02  0.00000000000E+00 0. -1.
         11    1    3    3    0    0  0.28937586358E+01 -0.18866430975E+02 -0.17726940853E+01  0.19169207114E+02  0.51100000000E-03 0. -1.
        -11    1    3    3    0    0 -0.52867300527E+01 -0.14309474674E+01  0.12211278991E+02  0.13383290334E+02  0.51100000000E-03 0.  1.
        -12    1    3    3    0    0  0.17825213116E+01 -0.16690623789E+02  0.64339078866E+01  0.17976358791E+02  0.00000000000E+00 0.  1.
</event>
<event>
 7    1  0.5946946E-013  0.5052886E+02  0.7816164E-02  0.1300439E+00
        -11   -1    0    0    0    0  0.00000000000E+00  0.00000000000E+00  0.45593999997E+02  0.45594000000E+02  0.51100000000E-03 0.  1.
         11   -1    0    0    0    0 -0.00000000000E+00 -0.00000000000E+00 -0.45593999997E+02  0.45594000000E+02  0.51100000000E-03 0. -1.
    9900012    2    1    2    0    0 -0.10369903961E+02  0.23193247658E+02 -0.31744351888E+02  0.50528861767E+02  0.30000005826E+02 0.  0.
         12    1    1    2    0    0  0.10369903961E+02 -0.23193247658E+02  0.31744351888E+02  0.40659138233E+02  0.00000000000E+00 0. -1.
         11    1    3    3    0    0  0.53791350054E+01  0.19391835084E+02 -0.25868317793E+02  0.32774200632E+02  0.51100000000E-03 0. -1.
        -11    1    3    3    0    0 -0.15469760020E+02  0.44035920114E+01 -0.57341502719E+01  0.17075877058E+02  0.51100000000E-03 0.  1.
         12    1    3    3    0    0 -0.27927894614E+00 -0.60217943712E+00 -0.14188382272E+00  0.67878407715E+00  0.00000000000E+00 0. -1.
</event>
<event>
 7    1  0.5946946E-013  0.5052886E+02  0.7816164E-02  0.1300439E+00
        -11   -1    0    0    0    0  0.00000000000E+00  0.00000000000E+00  0.45593999997E+02  0.45594000000E+02  0.51100000000E-03 0.  1.
         11   -1    0    0    0    0 -0.00000000000E+00 -0.00000000000E+00 -0.45593999997E+02  0.45594000000E+02  0.51100000000E-03 0. -1.
    9900012    2    1    2    0    0  0.86073937787E+01 -0.22085753260E+02  0.33034800789E+02  0.50528858496E+02  0.29999995883E+02 0.  0.
         12    1    1    2    0    0 -0.86073937787E+01  0.22085753260E+02 -0.33034800789E+02  0.40659141504E+02  0.00000000000E+00 0. -1.
         11    1    3    3    0    0 -0.71372276295E+01 -0.27762500979E+01  0.54514914984E+01  0.94003373695E+01  0.51100000000E-03 0. -1.
        -11    1    3    3    0    0  0.14567400189E+02 -0.22562805474E+02  0.25777249796E+02  0.37225743061E+02  0.51100000000E-03 0.  1.
        -12    1    3    3    0    0  0.11772212195E+01  0.32533023118E+01  0.18060594946E+01  0.39027780656E+01  0.00000000000E+00 0.  1.
</event>
<event>
 7    1  0.5946946E-013  0.5052886E+02  0.7816164E-02  0.1300439E+00
        -11   -1    0    0    0    0  0.00000000000E+00  0.00000000000E+00  0.45593999997E+02  0.45594000000E+02  0.51100000000E-03 0. -1.
         11   -1    0    0    0    0 -0.00000000000E+00 -0.00000000000E+00 -0.45593999997E+02  0.45594000000E+02  0.51100000000E-03 0.  1.
    9900012    2    1    2    0    0 -0.15794290021E+02  0.34173363502E+01 -0.37309890558E+02  0.50528859350E+02  0.29999998480E+02 0.  0.
         12    1    1    2    0    0  0.15794290021E+02 -0.34173363502E+01  0.37309890558E+02  0.40659140650E+02  0.00000000000E+00 0. -1.
         11    1    3    3    0    0 -0.13145371996E+02  0.10117780036E+02 -0.71169374454E+01  0.18050514581E+02  0.51100000000E-03 0. -1.
        -11    1    3    3    0    0 -0.10920086718E+01 -0.70569033344E+01 -0.10368211354E+02  0.12589367520E+02  0.51100000000E-03 0.  1.
         12    1    3    3    0    0 -0.15569093526E+01  0.35645964815E+00 -0.19824741759E+02  0.19888977249E+02  0.00000000000E+00 0. -1.
</event>
<event>
 7    1  0.5946946E-013  0.5052886E+02  0.7816164E-02  0.1300439E+00
        -11   -1    0    0    0    0  0.00000000000E+00  0.00000000000E+00  0.45593999997E+02  0.45594000000E+02  0.51100000000E-03 0. -1.
         11   -1    0    0    0    0 -0.00000000000E+00 -0.00000000000E+00 -0.45593999997E+02  0.45594000000E+02  0.51100000000E-03 0.  1.
    9900012    2    1    2    0    0 -0.46823762057E+01 -0.24832140472E+02 -0.31852874934E+02  0.50528862172E+02  0.30000007058E+02 0.  0.
         12    1    1    2    0    0  0.46823762057E+01  0.24832140472E+02  0.31852874934E+02  0.40659137828E+02  0.00000000000E+00 0. -1.
         11    1    3    3    0    0 -0.73295910369E+01 -0.16052137791E+02 -0.29950986711E+02  0.34762848526E+02  0.51100000000E-03 0. -1.
        -11    1    3    3    0    0 -0.48476782142E+01 -0.58354432128E+01 -0.12309054885E+01  0.76855390273E+01  0.51100000000E-03 0.  1.
         12    1    3    3    0    0  0.74948930455E+01 -0.29445594689E+01 -0.67098273406E+00  0.80804746184E+01  0.00000000000E+00 0. -1.
</event>
<event>
 7    1  0.5946946E-013  0.5052886E+02  0.7816164E-02  0.1300439E+00
        -11   -1    0    0    0    0  0.00000000000E+00  0.00000000000E+00  0.45593999997E+02  0.45594000000E+02  0.51100000000E-03 0.  1.
         11   -1    0    0    0    0 -0.00000000000E+00 -0.00000000000E+00 -0.45593999997E+02  0.45594000000E+02  0.51100000000E-03 0. -1.
    9900012    2    1    2    0    0 -0.35997132167E+02  0.16551557396E+02 -0.91333491073E+01  0.50528860284E+02  0.30000001320E+02 0.  0.
         12    1    1    2    0    0  0.35997132167E+02 -0.16551557396E+02  0.91333491073E+01  0.40659139716E+02  0.00000000000E+00 0. -1.
         11    1    3    3    0    0 -0.10263686137E+02  0.23763594954E+01  0.10608913766E+02  0.14951233699E+02  0.51100000000E-03 0. -1.
        -11    1    3    3    0    0 -0.20787068936E+02  0.10894413453E+02 -0.17314795796E+02  0.29164921278E+02  0.51100000000E-03 0.  1.
         12    1    3    3    0    0 -0.49463770949E+01  0.32807844469E+01 -0.24274670768E+01  0.64127053075E+01  0.00000000000E+00 0. -1.
</event>
<event>
 7    1  0.5946946E-013  0.5052885E+02  0.7816164E-02  0.1300439E+00
        -11   -1    0    0    0    0  0.00000000000E+00  0.00000000000E+00  0.45593999997E+02  0.45594000000E+02  0.51100000000E-03 0.  1.
         11   -1    0    0    0    0 -0.00000000000E+00 -0.00000000000E+00 -0.45593999997E+02  0.45594000000E+02  0.51100000000E-03 0. -1.
    9900012    2    1    2    0    0  0.17054464143E+02 -0.63870802033E+00  0.36903981596E+02  0.50528849089E+02  0.29999967291E+02 0.  0.
         12    1    1    2    0    0 -0.17054464143E+02  0.63870802033E+00 -0.36903981596E+02  0.40659150911E+02  0.00000000000E+00 0. -1.
         11    1    3    3    0    0  0.10543624032E+02  0.11893751559E+02  0.98625434418E+01  0.18705590001E+02  0.51100000000E-03 0. -1.
        -11    1    3    3    0    0  0.52568724242E+01 -0.40378817501E+01  0.54310210380E+01  0.85694332653E+01  0.51100000000E-03 0.  1.
         12    1    3    3    0    0  0.12539676868E+01 -0.84945778291E+01  0.21610417117E+02  0.23253825823E+02  0.00000000000E+00 0. -1.
</event>
<event>
 7    1  0.5946946E-013  0.5052886E+02  0.7816164E-02  0.1300439E+00
        -11   -1    0    0    0    0  0.00000000000E+00  0.00000000000E+00  0.45593999997E+02  0.45594000000E+02  0.51100000000E-03 0.  1.
         11   -1    0    0    0    0 -0.00000000000E+00 -0.00000000000E+00 -0.45593999997E+02  0.45594000000E+02  0.51100000000E-03 0. -1.
    9900012    2    1    2    0    0  0.45480007998E+01 -0.42914809085E+01  0.40175426721E+02  0.50528855495E+02  0.29999986762E+02 0.  0.
         12    1    1    2    0    0 -0.45480007998E+01  0.42914809085E+01 -0.40175426721E+02  0.40659144505E+02  0.00000000000E+00 0. -1.
         11    1    3    3    0    0  0.39239062818E+01 -0.34628839150E+01  0.16719555629E+01  0.54940004717E+01  0.51100000000E-03 0. -1.
        -11    1    3    3    0    0  0.36143020061E+01  0.10722447955E+02  0.20942807701E+02  0.23804101827E+02  0.51100000000E-03 0.  1.
        -12    1    3    3    0    0 -0.29902074880E+01 -0.11551044948E+02  0.17560663457E+02  0.21230753196E+02  0.00000000000E+00 0.  1.
</event>
<event>
 7    1  0.5946946E-013  0.5052887E+02  0.7816164E-02  0.1300439E+00
        -11   -1    0    0    0    0  0.00000000000E+00  0.00000000000E+00  0.45593999997E+02  0.45594000000E+02  0.51100000000E-03 0.  1.
         11   -1    0    0    0    0 -0.00000000000E+00 -0.00000000000E+00 -0.45593999997E+02  0.45594000000E+02  0.51100000000E-03 0. -1.
    9900012    2    1    2    0    0 -0.58115570277E+01  0.36776474535E+02  0.16336517469E+02  0.50528867234E+02  0.30000022444E+02 0.  0.
         12    1    1    2    0    0  0.58115570277E+01 -0.36776474535E+02 -0.16336517469E+02  0.40659132766E+02  0.00000000000E+00 0. -1.
         11    1    3    3    0    0 -0.30210174718E+01  0.65003412659E+00 -0.72511506895E+00  0.31740956279E+01  0.51100000000E-03 0. -1.
        -11    1    3    3    0    0  0.28317424134E+00  0.35235136691E+02  0.21948645898E+02  0.41513107596E+02  0.51100000000E-03 0.  1.
        -12    1    3    3    0    0 -0.30737137972E+01  0.89130371712E+00 -0.48870133598E+01  0.58416640097E+01  0.00000000000E+00 0.  1.
</event>
<event>
 7    1  0.5946946E-013  0.5052884E+02  0.7816164E-02  0.1300439E+00
        -11   -1    0    0    0    0  0.00000000000E+00  0.00000000000E+00  0.45593999997E+02  0.45594000000E+02  0.51100000000E-03 0. -1.
         11   -1    0    0    0    0 -0.00000000000E+00 -0.00000000000E+00 -0.45593999997E+02  0.45594000000E+02  0.51100000000E-03 0.  1.
    9900012    2    1    2    0    0 -0.37455913606E+02 -0.15814671797E+02 -0.34301062828E+00  0.50528844027E+02  0.29999951905E+02 0.  0.
         12    1    1    2    0    0  0.37455913606E+02  0.15814671797E+02  0.34301062828E+00  0.40659155973E+02  0.00000000000E+00 0. -1.
         11    1    3    3    0    0 -0.16458274548E+02  0.34716426956E+01 -0.68409586523E+01  0.18158353990E+02  0.51100000000E-03 0. -1.
        -11    1    3    3    0    0 -0.17158714198E+01 -0.10158462479E+02  0.10711392987E+01  0.10357891403E+02  0.51100000000E-03 0.  1.
         12    1    3    3    0    0 -0.19281767639E+02 -0.91278520136E+01  0.54268087253E+01  0.22012598634E+02  0.00000000000E+00 0. -1.
</event>
<event>
 7    1  0.5946946E-013  0.5052887E+02  0.7816164E-02  0.1300439E+00
        -11   -1    0    0    0    0  0.00000000000E+00  0.00000000000E+00  0.45593999997E+02  0.45594000000E+02  0.51100000000E-03 0.  1.
         11   -1    0    0    0    0 -0.00000000000E+00 -0.00000000000E+00 -0.45593999997E+02  0.45594000000E+02  0.51100000000E-03 0. -1.
    9900012    2    1    2    0    0 -0.23064702876E+02  0.51719296001E+01  0.33082256636E+02  0.50528867217E+02  0.30000022392E+02 0.  0.
         12    1    1    2    0    0  0.23064702876E+02 -0.51719296001E+01 -0.33082256636E+02  0.40659132783E+02  0.00000000000E+00 0. -1.
         11    1    3    3    0    0 -0.14561629498E+02  0.15323256837E+02  0.13634428037E+02  0.25154341214E+02  0.51100000000E-03 0. -1.
        -11    1    3    3    0    0 -0.34068421771E+01 -0.10645376553E+02  0.13184677888E+02  0.17284858890E+02  0.51100000000E-03 0.  1.
        -12    1    3    3    0    0 -0.50962312008E+01  0.49404931650E+00  0.62631507102E+01  0.80896671130E+01  0.00000000000E+00 0.  1.
</event>
<event>
 7    1  0.5946946E-013  0.5052887E+02  0.7816164E-02  0.1300439E+00
        -11   -1    0    0    0    0  0.00000000000E+00  0.00000000000E+00  0.45593999997E+02  0.45594000000E+02  0.51100000000E-03 0.  1.
         11   -1    0    0    0    0 -0.00000000000E+00 -0.00000000000E+00 -0.45593999997E+02  0.45594000000E+02  0.51100000000E-03 0. -1.
    9900012    2    1    2    0    0  0.20623274651E+02 -0.19965258026E+02  0.28796421082E+02  0.50528869997E+02  0.30000030844E+02 0.  0.
         12    1    1    2    0    0 -0.20623274651E+02  0.19965258026E+02 -0.28796421082E+02  0.40659130003E+02  0.00000000000E+00 0. -1.
         11    1    3    3    0    0 -0.10614139711E+01 -0.10300738043E+02 -0.17769087324E+01  0.10506626897E+02  0.51100000000E-03 0.  1.
        -11    1    3    3    0    0  0.49780984345E+01 -0.27154795153E+01  0.15390665128E+02  0.16402068966E+02  0.51100000000E-03 0. -1.
        -12    1    3    3    0    0  0.16706590188E+02 -0.69490404677E+01  0.15182664687E+02  0.23620174134E+02  0.00000000000E+00 0.  1.
</event>
<event>
 7    1  0.5946946E-013  0.5052885E+02  0.7816164E-02  0.1300439E+00
        -11   -1    0    0    0    0  0.00000000000E+00  0.00000000000E+00  0.45593999997E+02  0.45594000000E+02  0.51100000000E-03 0.  1.
         11   -1    0    0    0    0 -0.00000000000E+00 -0.00000000000E+00 -0.45593999997E+02  0.45594000000E+02  0.51100000000E-03 0. -1.
    9900012    2    1    2    0    0 -0.85739974990E+01  0.39553670491E+02 -0.38936073980E+01  0.50528850218E+02  0.29999970724E+02 0.  0.
         12    1    1    2    0    0  0.85739974990E+01 -0.39553670491E+02  0.38936073980E+01  0.40659149782E+02  0.00000000000E+00 0. -1.
         11    1    3    3    0    0  0.48894823575E+01  0.27152217659E+02 -0.39142238043E+01  0.27865231199E+02  0.51100000000E-03 0. -1.
        -11    1    3    3    0    0 -0.12465304399E+02  0.42808237301E+01 -0.36798486997E+01  0.13683952363E+02  0.51100000000E-03 0.  1.
        -12    1    3    3    0    0 -0.99817545728E+00  0.81206291012E+01  0.37004651059E+01  0.89796666554E+01  0.00000000000E+00 0.  1.
</event>
<event>
 7    1  0.5946946E-013  0.5052885E+02  0.7816164E-02  0.1300439E+00
        -11   -1    0    0    0    0  0.00000000000E+00  0.00000000000E+00  0.45593999997E+02  0.45594000000E+02  0.51100000000E-03 0.  1.
         11   -1    0    0    0    0 -0.00000000000E+00 -0.00000000000E+00 -0.45593999997E+02  0.45594000000E+02  0.51100000000E-03 0. -1.
    9900012    2    1    2    0    0  0.23104082756E+02 -0.29137709290E+02  0.16442675293E+02  0.50528852032E+02  0.29999976236E+02 0.  0.
         12    1    1    2    0    0 -0.23104082756E+02  0.29137709290E+02 -0.16442675293E+02  0.40659147968E+02  0.00000000000E+00 0. -1.
         11    1    3    3    0    0  0.14681984902E+02 -0.87991949151E+01 -0.41233299489E+01  0.17606486360E+02  0.51100000000E-03 0. -1.
        -11    1    3    3    0    0  0.78706768650E+01 -0.18403744462E+02  0.10395207053E+02  0.22554504970E+02  0.51100000000E-03 0.  1.
         12    1    3    3    0    0  0.55142098945E+00 -0.19347699135E+01  0.10170798189E+02  0.10367860702E+02  0.00000000000E+00 0. -1.
</event>
<event>
 7    1  0.5946946E-013  0.5052886E+02  0.7816164E-02  0.1300439E+00
        -11   -1    0    0    0    0  0.00000000000E+00  0.00000000000E+00  0.45593999997E+02  0.45594000000E+02  0.51100000000E-03 0.  1.
         11   -1    0    0    0    0 -0.00000000000E+00 -0.00000000000E+00 -0.45593999997E+02  0.45594000000E+02  0.51100000000E-03 0. -1.
    9900012    2    1    2    0    0  0.16300532947E+02 -0.36158332917E+02  0.89461408383E+01  0.50528857737E+02  0.29999993577E+02 0.  0.
         12    1    1    2    0    0 -0.16300532947E+02  0.36158332917E+02 -0.89461408383E+01  0.40659142263E+02  0.00000000000E+00 0. -1.
         11    1    3    3    0    0  0.15315854149E+02 -0.13112540084E+02 -0.14058124006E+01  0.20211145552E+02  0.51100000000E-03 0. -1.
        -11    1    3    3    0    0 -0.82872849109E+00  0.75643352710E+00  0.59364647629E+01  0.60415723727E+01  0.51100000000E-03 0.  1.
         12    1    3    3    0    0  0.18134072893E+01 -0.23802226360E+02  0.44154884760E+01  0.24276139812E+02  0.00000000000E+00 0. -1.
</event>
<event>
 7    1  0.5946946E-013  0.5052887E+02  0.7816164E-02  0.1300439E+00
        -11   -1    0    0    0    0  0.00000000000E+00  0.00000000000E+00  0.45593999997E+02  0.45594000000E+02  0.51100000000E-03 0.  1.
         11   -1    0    0    0    0 -0.00000000000E+00 -0.00000000000E+00 -0.45593999997E+02  0.45594000000E+02  0.51100000000E-03 0. -1.
    9900012    2    1    2    0    0  0.12006807284E+02  0.79115978313E+01  0.38031676225E+02  0.50528865751E+02  0.30000017936E+02 0.  0.
         12    1    1    2    0    0 -0.12006807284E+02 -0.79115978313E+01 -0.38031676225E+02  0.40659134249E+02  0.00000000000E+00 0. -1.
         11    1    3    3    0    0 -0.27142051753E+01  0.15152254578E+02  0.20648356908E+02  0.25754851422E+02  0.51100000000E-03 0. -1.
        -11    1    3    3    0    0  0.73656378603E+01 -0.14722841345E+00  0.62385684776E+01  0.96537057240E+01  0.51100000000E-03 0.  1.
         12    1    3    3    0    0  0.73553745990E+01 -0.70934283333E+01  0.11144750840E+02  0.15120308604E+02  0.00000000000E+00 0. -1.
</event>
<event>
 7    1  0.5946946E-013  0.5052885E+02  0.7816164E-02  0.1300439E+00
        -11   -1    0    0    0    0  0.00000000000E+00  0.00000000000E+00  0.45593999997E+02  0.45594000000E+02  0.51100000000E-03 0. -1.
         11   -1    0    0    0    0 -0.00000000000E+00 -0.00000000000E+00 -0.45593999997E+02  0.45594000000E+02  0.51100000000E-03 0.  1.
    9900012    2    1    2    0    0  0.21409895204E+02  0.30013270472E+02 -0.17146038035E+02  0.50528848049E+02  0.29999964130E+02 0.  0.
         12    1    1    2    0    0 -0.21409895204E+02 -0.30013270472E+02  0.17146038035E+02  0.40659151951E+02  0.00000000000E+00 0. -1.
         11    1    3    3    0    0  0.44475613698E+00  0.71277474596E+01 -0.23379066449E+00  0.71454356204E+01  0.51100000000E-03 0. -1.
        -11    1    3    3    0    0  0.12537334478E+02 -0.13088743626E+01  0.14166430851E+00  0.12606267368E+02  0.51100000000E-03 0.  1.
        -12    1    3    3    0    0  0.84278045887E+01  0.24194397375E+02 -0.17053911679E+02  0.30777145061E+02  0.00000000000E+00 0.  1.
</event>
<event>
 7    1  0.5946946E-013  0.5052887E+02  0.7816164E-02  0.1300439E+00
        -11   -1    0    0    0    0  0.00000000000E+00  0.00000000000E+00  0.45593999997E+02  0.45594000000E+02  0.51100000000E-03 0.  1.
         11   -1    0    0    0    0 -0.00000000000E+00 -0.00000000000E+00 -0.45593999997E+02  0.45594000000E+02  0.51100000000E-03 0. -1.
    9900012    2    1    2    0    0 -0.61870084259E+01  0.32765716342E+02  0.23265725470E+02  0.50528865450E+02  0.30000017023E+02 0.  0.
         12    1    1    2    0    0  0.61870084259E+01 -0.32765716342E+02 -0.23265725470E+02  0.40659134550E+02  0.00000000000E+00 0. -1.
         11    1    3    3    0    0  0.11494880593E+02  0.16384584731E+02  0.99088072406E+01  0.22333189603E+02  0.51100000000E-03 0. -1.
        -11    1    3    3    0    0 -0.75767996915E+01  0.32828196215E+01  0.37935059435E+01  0.90871054708E+01  0.51100000000E-03 0.  1.
         12    1    3    3    0    0 -0.10105089327E+02  0.13098311989E+02  0.95634122857E+01  0.19108570376E+02  0.00000000000E+00 0. -1.
</event>
<event>
 7    1  0.5946946E-013  0.5052871E+02  0.7816164E-02  0.1300439E+00
        -11   -1    0    0    0    0  0.00000000000E+00  0.00000000000E+00  0.45593999997E+02  0.45594000000E+02  0.51100000000E-03 0.  1.
         11   -1    0    0    0    0 -0.00000000000E+00 -0.00000000000E+00 -0.45593999997E+02  0.45594000000E+02  0.51100000000E-03 0. -1.
    9900012    2    1    2    0    0 -0.17782078629E+02  0.15452333684E+02  0.33139109170E+02  0.50528714551E+02  0.29999558347E+02 0.  0.
         12    1    1    2    0    0  0.17782078629E+02 -0.15452333684E+02 -0.33139109170E+02  0.40659285449E+02  0.00000000000E+00 0. -1.
         11    1    3    3    0    0 -0.35575837560E+01 -0.46696023407E+01 -0.83389550343E+00  0.59293313428E+01  0.51100000000E-03 0. -1.
        -11    1    3    3    0    0 -0.14772191246E+02  0.17013573870E+02  0.19536997037E+02  0.29822367168E+02  0.51100000000E-03 0.  1.
        -12    1    3    3    0    0  0.54769637267E+00  0.31083621550E+01  0.14436007636E+02  0.14777016040E+02  0.00000000000E+00 0.  1.
</event>
<event>
 7    1  0.5946946E-013  0.5052886E+02  0.7816164E-02  0.1300439E+00
        -11   -1    0    0    0    0  0.00000000000E+00  0.00000000000E+00  0.45593999997E+02  0.45594000000E+02  0.51100000000E-03 0. -1.
         11   -1    0    0    0    0 -0.00000000000E+00 -0.00000000000E+00 -0.45593999997E+02  0.45594000000E+02  0.51100000000E-03 0.  1.
    9900012    2    1    2    0    0  0.24307572767E+02  0.26256991031E+02 -0.19310043752E+02  0.50528862508E+02  0.30000008081E+02 0.  0.
         12    1    1    2    0    0 -0.24307572767E+02 -0.26256991031E+02  0.19310043752E+02  0.40659137492E+02  0.00000000000E+00 0. -1.
         11    1    3    3    0    0  0.19299654014E+01 -0.99529353784E+00  0.15965970362E+01  0.26952732764E+01  0.51100000000E-03 0. -1.
        -11    1    3    3    0    0  0.21009317215E+02  0.12033893689E+02 -0.21728059564E+02  0.32531747261E+02  0.51100000000E-03 0.  1.
        -12    1    3    3    0    0  0.13682901508E+01  0.15218390880E+02  0.82141877543E+00  0.15301841971E+02  0.00000000000E+00 0.  1.
</event>
<event>
 7    1  0.5946946E-013  0.5052887E+02  0.7816164E-02  0.1300439E+00
        -11   -1    0    0    0    0  0.00000000000E+00  0.00000000000E+00  0.45593999997E+02  0.45594000000E+02  0.51100000000E-03 0.  1.
         11   -1    0    0    0    0 -0.00000000000E+00 -0.00000000000E+00 -0.45593999997E+02  0.45594000000E+02  0.51100000000E-03 0. -1.
    9900012    2    1    2    0    0  0.14186728368E+02  0.35640237090E+02  0.13478681532E+02  0.50528872888E+02  0.30000039632E+02 0.  0.
         12    1    1    2    0    0 -0.14186728368E+02 -0.35640237090E+02 -0.13478681532E+02  0.40659127112E+02  0.00000000000E+00 0. -1.
         11    1    3    3    0    0 -0.16224024426E+01  0.59203821834E+01  0.13696499656E+02  0.15009237754E+02  0.51100000000E-03 0.  1.
        -11    1    3    3    0    0  0.16064937799E+02  0.23536771115E+02  0.28013240760E+01  0.28634057307E+02  0.51100000000E-03 0. -1.
         12    1    3    3    0    0 -0.25580698869E+00  0.61830837923E+01 -0.30191422000E+01  0.68855778277E+01  0.00000000000E+00 0. -1.
</event>
<event>
 7    1  0.5946946E-013  0.5052886E+02  0.7816164E-02  0.1300439E+00
        -11   -1    0    0    0    0  0.00000000000E+00  0.00000000000E+00  0.45593999997E+02  0.45594000000E+02  0.51100000000E-03 0.  1.
         11   -1    0    0    0    0 -0.00000000000E+00 -0.00000000000E+00 -0.45593999997E+02  0.45594000000E+02  0.51100000000E-03 0. -1.
    9900012    2    1    2    0    0  0.22886009968E+02  0.30427051959E+02  0.14268515707E+02  0.50528862236E+02  0.30000007253E+02 0.  0.
         12    1    1    2    0    0 -0.22886009968E+02 -0.30427051959E+02 -0.14268515707E+02  0.40659137764E+02  0.00000000000E+00 0. -1.
         11    1    3    3    0    0  0.33594632321E+01 -0.23843452192E+00 -0.63769428717E+01  0.72116742078E+01  0.51100000000E-03 0. -1.
        -11    1    3    3    0    0  0.10613646275E+02  0.25695407816E+02  0.13881244193E+02  0.31073982859E+02  0.51100000000E-03 0.  1.
         12    1    3    3    0    0  0.89129004614E+01  0.49700786650E+01  0.67642143858E+01  0.12243205170E+02  0.00000000000E+00 0. -1.
</event>
<event>
 7    1  0.5946946E-013  0.5052886E+02  0.7816164E-02  0.1300439E+00
        -11   -1    0    0    0    0  0.00000000000E+00  0.00000000000E+00  0.45593999997E+02  0.45594000000E+02  0.51100000000E-03 0.  1.
         11   -1    0    0    0    0 -0.00000000000E+00 -0.00000000000E+00 -0.45593999997E+02  0.45594000000E+02  0.51100000000E-03 0. -1.
    9900012    2    1    2    0    0 -0.40639357380E+02  0.63525926940E+00  0.10975090640E+01  0.50528862666E+02  0.30000008559E+02 0.  0.
         12    1    1    2    0    0  0.40639357380E+02 -0.63525926940E+00 -0.10975090640E+01  0.40659137334E+02  0.00000000000E+00 0. -1.
         11    1    3    3    0    0 -0.86845459517E+01 -0.85409408056E+01  0.25102704181E+01  0.12436658155E+02  0.51100000000E-03 0. -1.
        -11    1    3    3    0    0 -0.27207016023E+02  0.14582277987E+02 -0.97310027625E+00  0.30883838436E+02  0.51100000000E-03 0.  1.
        -12    1    3    3    0    0 -0.47477954056E+01 -0.54060779116E+01 -0.43966107780E+00  0.72083660744E+01  0.00000000000E+00 0.  1.
</event>
<event>
 7    1  0.5946946E-013  0.5052887E+02  0.7816164E-02  0.1300439E+00
        -11   -1    0    0    0    0  0.00000000000E+00  0.00000000000E+00  0.45593999997E+02  0.45594000000E+02  0.51100000000E-03 0. -1.
         11   -1    0    0    0    0 -0.00000000000E+00 -0.00000000000E+00 -0.45593999997E+02  0.45594000000E+02  0.51100000000E-03 0.  1.
    9900012    2    1    2    0    0 -0.21541583484E+02 -0.30543445308E+02 -0.16006965052E+02  0.50528870639E+02  0.30000032793E+02 0.  0.
         12    1    1    2    0    0  0.21541583484E+02  0.30543445308E+02  0.16006965052E+02  0.40659129361E+02  0.00000000000E+00 0. -1.
         11    1    3    3    0    0 -0.11959701612E+02 -0.20857697560E+02 -0.18543781812E+02  0.30363627160E+02  0.51100000000E-03 0. -1.
        -11    1    3    3    0    0 -0.24529737906E+01 -0.12197007216E+02  0.18076964978E+01  0.12571866700E+02  0.51100000000E-03 0.  1.
         12    1    3    3    0    0 -0.71289080813E+01  0.25112594681E+01  0.72912026222E+00  0.75933767788E+01  0.00000000000E+00 0. -1.
</event>
<event>
 7    1  0.5946946E-013  0.5052886E+02  0.7816164E-02  0.1300439E+00
        -11   -1    0    0    0    0  0.00000000000E+00  0.00000000000E+00  0.45593999997E+02  0.45594000000E+02  0.51100000000E-03 0.  1.
         11   -1    0    0    0    0 -0.00000000000E+00 -0.00000000000E+00 -0.45593999997E+02  0.45594000000E+02  0.51100000000E-03 0. -1.
    9900012    2    1    2    0    0 -0.89397903710E+01 -0.10680694697E+02  0.38199064333E+02  0.50528860720E+02  0.30000002645E+02 0.  0.
         12    1    1    2    0    0  0.89397903710E+01  0.10680694697E+02 -0.38199064333E+02  0.40659139280E+02  0.00000000000E+00 0. -1.
         11    1    3    3    0    0 -0.79467776650E+00 -0.61696057450E+01 -0.21021488739E+01  0.65661691990E+01  0.51100000000E-03 0.  1.
        -11    1    3    3    0    0 -0.69562081586E+01  0.36928012369E+01  0.28310208820E+02  0.29385260533E+02  0.51100000000E-03 0. -1.
         12    1    3    3    0    0 -0.11889044459E+01 -0.82038901888E+01  0.11991004386E+02  0.14577430988E+02  0.00000000000E+00 0. -1.
</event>
<event>
 7    1  0.5946946E-013  0.5052886E+02  0.7816164E-02  0.1300439E+00
        -11   -1    0    0    0    0  0.00000000000E+00  0.00000000000E+00  0.45593999997E+02  0.45594000000E+02  0.51100000000E-03 0. -1.
         11   -1    0    0    0    0 -0.00000000000E+00 -0.00000000000E+00 -0.45593999997E+02  0.45594000000E+02  0.51100000000E-03 0.  1.
    9900012    2    1    2    0    0  0.15977664621E+02 -0.21364919690E+02 -0.30682576185E+02  0.50528855377E+02  0.29999986405E+02 0.  0.
         12    1    1    2    0    0 -0.15977664621E+02  0.21364919690E+02  0.30682576185E+02  0.40659144623E+02  0.00000000000E+00 0. -1.
         11    1    3    3    0    0  0.11056638807E+02 -0.20113590608E+02 -0.19297170994E+02  0.29986440227E+02  0.51100000000E-03 0.  1.
        -11    1    3    3    0    0  0.84215288791E+01  0.45568887567E+00  0.79363047580E-01  0.84342219420E+01  0.51100000000E-03 0. -1.
         12    1    3    3    0    0 -0.35005030645E+01 -0.17070179575E+01 -0.11464768239E+02  0.12108193209E+02  0.00000000000E+00 0. -1.
</event>
<event>
 7    1  0.5946946E-013  0.5052885E+02  0.7816164E-02  0.1300439E+00
        -11   -1    0    0    0    0  0.00000000000E+00  0.00000000000E+00  0.45593999997E+02  0.45594000000E+02  0.51100000000E-03 0.  1.
         11   -1    0    0    0    0 -0.00000000000E+00 -0.00000000000E+00 -0.45593999997E+02  0.45594000000E+02  0.51100000000E-03 0. -1.
    9900012    2    1    2    0    0 -0.29781566838E+02  0.25762064539E+02  0.10126239066E+02  0.50528850842E+02  0.29999972619E+02 0.  0.
         12    1    1    2    0    0  0.29781566838E+02 -0.25762064539E+02 -0.10126239066E+02  0.40659149158E+02  0.00000000000E+00 0. -1.
         11    1    3    3    0    0 -0.20757189433E+02  0.25499038294E+02 -0.14893875279E+01  0.32913221394E+02  0.51100000000E-03 0. -1.
        -11    1    3    3    0    0 -0.95358161861E+01  0.32120984448E+01  0.10114571018E+02  0.14267232174E+02  0.51100000000E-03 0.  1.
         12    1    3    3    0    0  0.51143878077E+00 -0.29490721998E+01  0.15010555752E+01  0.33483972742E+01  0.00000000000E+00 0. -1.
</event>
<event>
 7    1  0.5946946E-013  0.5052883E+02  0.7816164E-02  0.1300439E+00
        -11   -1    0    0    0    0  0.00000000000E+00  0.00000000000E+00  0.45593999997E+02  0.45594000000E+02  0.51100000000E-03 0. -1.
         11   -1    0    0    0    0 -0.00000000000E+00 -0.00000000000E+00 -0.45593999997E+02  0.45594000000E+02  0.51100000000E-03 0.  1.
    9900012    2    1    2    0    0 -0.14901118723E+02 -0.28694969215E+02 -0.24652055060E+02  0.50528826175E+02  0.29999897642E+02 0.  0.
         12    1    1    2    0    0  0.14901118723E+02  0.28694969215E+02  0.24652055060E+02  0.40659173825E+02  0.00000000000E+00 0. -1.
         11    1    3    3    0    0 -0.77526041381E+00  0.56494212634E+01 -0.30295574561E+01  0.64571826645E+01  0.51100000000E-03 0. -1.
        -11    1    3    3    0    0 -0.22198345396E+01 -0.15454453845E+02 -0.55923470224E+01  0.16584394910E+02  0.51100000000E-03 0.  1.
         12    1    3    3    0    0 -0.11906023770E+02 -0.18889936633E+02 -0.16030150581E+02  0.27487248601E+02  0.00000000000E+00 0. -1.
</event>
<event>
 7    1  0.5946946E-013  0.5052894E+02  0.7816164E-02  0.1300439E+00
        -11   -1    0    0    0    0  0.00000000000E+00  0.00000000000E+00  0.45593999997E+02  0.45594000000E+02  0.51100000000E-03 0. -1.
         11   -1    0    0    0    0 -0.00000000000E+00 -0.00000000000E+00 -0.45593999997E+02  0.45594000000E+02  0.51100000000E-03 0.  1.
    9900012    2    1    2    0    0 -0.69291075754E+01 -0.38199683284E+02 -0.12080186673E+02  0.50528938958E+02  0.30000240455E+02 0.  0.
         12    1    1    2    0    0  0.69291075754E+01  0.38199683284E+02  0.12080186673E+02  0.40659061042E+02  0.00000000000E+00 0. -1.
         11    1    3    3    0    0  0.28728639107E+01  0.25034837124E+01 -0.26739525363E+01  0.46551906701E+01  0.51100000000E-03 0. -1.
        -11    1    3    3    0    0 -0.27842985030E+01 -0.33621268157E+02 -0.11581987117E+02  0.35669096099E+02  0.51100000000E-03 0.  1.
        -12    1    3    3    0    0 -0.70176729831E+01 -0.70818988390E+01  0.21757529802E+01  0.10204652189E+02  0.00000000000E+00 0.  1.
</event>
<event>
 7    1  0.5946946E-013  0.5052886E+02  0.7816164E-02  0.1300439E+00
        -11   -1    0    0    0    0  0.00000000000E+00  0.00000000000E+00  0.45593999997E+02  0.45594000000E+02  0.51100000000E-03 0.  1.
         11   -1    0    0    0    0 -0.00000000000E+00 -0.00000000000E+00 -0.45593999997E+02  0.45594000000E+02  0.51100000000E-03 0. -1.
    9900012    2    1    2    0    0 -0.26442586061E+02  0.13495842090E+02  0.27781599826E+02  0.50528863263E+02  0.30000010375E+02 0.  0.
         12    1    1    2    0    0  0.26442586061E+02 -0.13495842090E+02 -0.27781599826E+02  0.40659136737E+02  0.00000000000E+00 0. -1.
         11    1    3    3    0    0 -0.36323790153E+01  0.92965966896E+01 -0.13340749361E+01  0.10069788653E+02  0.51100000000E-03 0. -1.
        -11    1    3    3    0    0 -0.84727824409E+01  0.46037995965E+01  0.22861098776E+02  0.24811546717E+02  0.51100000000E-03 0.  1.
         12    1    3    3    0    0 -0.14337424605E+02 -0.40455419587E+00  0.62545759864E+01  0.15647527893E+02  0.00000000000E+00 0. -1.
</event>
<event>
 7    1  0.5946946E-013  0.5052887E+02  0.7816164E-02  0.1300439E+00
        -11   -1    0    0    0    0  0.00000000000E+00  0.00000000000E+00  0.45593999997E+02  0.45594000000E+02  0.51100000000E-03 0.  1.
         11   -1    0    0    0    0 -0.00000000000E+00 -0.00000000000E+00 -0.45593999997E+02  0.45594000000E+02  0.51100000000E-03 0. -1.
    9900012    2    1    2    0    0  0.16039683433E+02  0.20638742390E+02  0.31143787578E+02  0.50528872651E+02  0.30000038911E+02 0.  0.
         12    1    1    2    0    0 -0.16039683433E+02 -0.20638742390E+02 -0.31143787578E+02  0.40659127349E+02  0.00000000000E+00 0. -1.
         11    1    3    3    0    0 -0.84833659895E+00 -0.53410711675E+01  0.13706401776E+02  0.14734726537E+02  0.51100000000E-03 0. -1.
        -11    1    3    3    0    0  0.88758972469E+01  0.11510803777E+02  0.10102405094E+02  0.17701376909E+02  0.51100000000E-03 0.  1.
         12    1    3    3    0    0  0.80121227847E+01  0.14469009780E+02  0.73349807087E+01  0.18092769206E+02  0.00000000000E+00 0. -1.
</event>
<event>
 7    1  0.5946946E-013  0.5052883E+02  0.7816164E-02  0.1300439E+00
        -11   -1    0    0    0    0  0.00000000000E+00  0.00000000000E+00  0.45593999997E+02  0.45594000000E+02  0.51100000000E-03 0.  1.
         11   -1    0    0    0    0 -0.00000000000E+00 -0.00000000000E+00 -0.45593999997E+02  0.45594000000E+02  0.51100000000E-03 0. -1.
    9900012    2    1    2    0    0  0.16024031724E+02  0.37362666790E+02 -0.65572703102E+00  0.50528825878E+02  0.29999896739E+02 0.  0.
         12    1    1    2    0    0 -0.16024031724E+02 -0.37362666790E+02  0.65572703102E+00  0.40659174122E+02  0.00000000000E+00 0. -1.
         11    1    3    3    0    0  0.53450371317E+00  0.53046449865E+01  0.10235610480E+02  0.11540913084E+02  0.51100000000E-03 0. -1.
        -11    1    3    3    0    0  0.26610797211E+01  0.16240252474E+02 -0.13922081093E+01  0.16515610475E+02  0.51100000000E-03 0.  1.
         12    1    3    3    0    0  0.12828448290E+02  0.15817769329E+02 -0.94991294022E+01  0.22472302318E+02  0.00000000000E+00 0. -1.
</event>
<event>
 7    1  0.5946946E-013  0.5052882E+02  0.7816164E-02  0.1300439E+00
        -11   -1    0    0    0    0  0.00000000000E+00  0.00000000000E+00  0.45593999997E+02  0.45594000000E+02  0.51100000000E-03 0. -1.
         11   -1    0    0    0    0 -0.00000000000E+00 -0.00000000000E+00 -0.45593999997E+02  0.45594000000E+02  0.51100000000E-03 0.  1.
    9900012    2    1    2    0    0  0.30769135371E+02  0.75920205907E+01  0.25471361450E+02  0.50528822411E+02  0.29999886199E+02 0.  0.
         12    1    1    2    0    0 -0.30769135371E+02 -0.75920205907E+01 -0.25471361450E+02  0.40659177589E+02  0.00000000000E+00 0. -1.
         11    1    3    3    0    0  0.20357457878E+00  0.65178955428E+00  0.11735843715E+02  0.11755692247E+02  0.51100000000E-03 0. -1.
        -11    1    3    3    0    0  0.29629803156E+02  0.53199419514E+01  0.58475522664E+01  0.30666282546E+02  0.51100000000E-03 0.  1.
        -12    1    3    3    0    0  0.93575763686E+00  0.16202890850E+01  0.78879654683E+01  0.81068476181E+01  0.00000000000E+00 0.  1.
</event>
<event>
 7    1  0.5946946E-013  0.5052886E+02  0.7816164E-02  0.1300439E+00
        -11   -1    0    0    0    0  0.00000000000E+00  0.00000000000E+00  0.45593999997E+02  0.45594000000E+02  0.51100000000E-03 0. -1.
         11   -1    0    0    0    0 -0.00000000000E+00 -0.00000000000E+00 -0.45593999997E+02  0.45594000000E+02  0.51100000000E-03 0.  1.
    9900012    2    1    2    0    0  0.43650535286E+01 -0.10885761485E+02 -0.38930867407E+02  0.50528856718E+02  0.29999990479E+02 0.  0.
         12    1    1    2    0    0 -0.43650535286E+01  0.10885761485E+02  0.38930867407E+02  0.40659143282E+02  0.00000000000E+00 0. -1.
         11    1    3    3    0    0  0.41287455480E+01 -0.90208968635E+01  0.13180552497E+01  0.10008016283E+02  0.51100000000E-03 0. -1.
        -11    1    3    3    0    0 -0.84048021965E+00  0.80606273671E+00 -0.23293667237E+02  0.23322758794E+02  0.51100000000E-03 0.  1.
         12    1    3    3    0    0  0.10767882002E+01 -0.26709273580E+01 -0.16955255419E+02  0.17198081641E+02  0.00000000000E+00 0. -1.
</event>
<event>
 7    1  0.5946946E-013  0.5052886E+02  0.7816164E-02  0.1300439E+00
        -11   -1    0    0    0    0  0.00000000000E+00  0.00000000000E+00  0.45593999997E+02  0.45594000000E+02  0.51100000000E-03 0.  1.
         11   -1    0    0    0    0 -0.00000000000E+00 -0.00000000000E+00 -0.45593999997E+02  0.45594000000E+02  0.51100000000E-03 0. -1.
    9900012    2    1    2    0    0  0.29669442181E+02  0.55387479942E+01  0.27243572184E+02  0.50528858912E+02  0.29999997149E+02 0.  0.
         12    1    1    2    0    0 -0.29669442181E+02 -0.55387479942E+01 -0.27243572184E+02  0.40659141088E+02  0.00000000000E+00 0. -1.
         11    1    3    3    0    0  0.83717971825E+01 -0.26071007494E+01  0.37826464543E+01  0.95494699770E+01  0.51100000000E-03 0. -1.
        -11    1    3    3    0    0 -0.50256987942E+01 -0.17148964673E+01  0.22607798794E+01  0.57714507871E+01  0.51100000000E-03 0.  1.
        -12    1    3    3    0    0  0.26323343793E+02  0.98607452110E+01  0.21200145850E+02  0.35207938148E+02  0.00000000000E+00 0.  1.
</event>
<event>
 7    1  0.5946946E-013  0.5052886E+02  0.7816164E-02  0.1300439E+00
        -11   -1    0    0    0    0  0.00000000000E+00  0.00000000000E+00  0.45593999997E+02  0.45594000000E+02  0.51100000000E-03 0.  1.
         11   -1    0    0    0    0 -0.00000000000E+00 -0.00000000000E+00 -0.45593999997E+02  0.45594000000E+02  0.51100000000E-03 0. -1.
    9900012    2    1    2    0    0  0.33291158508E+01  0.19868399488E+02  0.35317551539E+02  0.50528858872E+02  0.29999997027E+02 0.  0.
         12    1    1    2    0    0 -0.33291158508E+01 -0.19868399488E+02 -0.35317551539E+02  0.40659141128E+02  0.00000000000E+00 0. -1.
         11    1    3    3    0    0  0.82704037574E+01  0.76019692065E+01  0.78711505260E+01  0.13716578472E+02  0.51100000000E-03 0. -1.
        -11    1    3    3    0    0 -0.81299981159E+01  0.93400946236E+01  0.29520930092E+02  0.32012802919E+02  0.51100000000E-03 0.  1.
        -12    1    3    3    0    0  0.31887102094E+01  0.29263356583E+01 -0.20745290796E+01  0.47994774805E+01  0.00000000000E+00 0.  1.
</event>
<event>
 7    1  0.5946946E-013  0.5052886E+02  0.7816164E-02  0.1300439E+00
        -11   -1    0    0    0    0  0.00000000000E+00  0.00000000000E+00  0.45593999997E+02  0.45594000000E+02  0.51100000000E-03 0.  1.
         11   -1    0    0    0    0 -0.00000000000E+00 -0.00000000000E+00 -0.45593999997E+02  0.45594000000E+02  0.51100000000E-03 0. -1.
    9900012    2    1    2    0    0 -0.31958559490E+02 -0.59181220213E+00 -0.25128993133E+02  0.50528855121E+02  0.29999985627E+02 0.  0.
         12    1    1    2    0    0  0.31958559490E+02  0.59181220213E+00  0.25128993133E+02  0.40659144879E+02  0.00000000000E+00 0. -1.
         11    1    3    3    0    0 -0.73024178797E+01  0.66450662655E+01 -0.15912624231E+02  0.18726820946E+02  0.51100000000E-03 0. -1.
        -11    1    3    3    0    0 -0.16843196083E+02 -0.11748295728E+02 -0.27878462186E+01  0.20724087281E+02  0.51100000000E-03 0.  1.
        -12    1    3    3    0    0 -0.78129455268E+01  0.45114172607E+01 -0.64285226840E+01  0.11077946895E+02  0.00000000000E+00 0.  1.
</event>
<event>
 7    1  0.5946946E-013  0.5052886E+02  0.7816164E-02  0.1300439E+00
        -11   -1    0    0    0    0  0.00000000000E+00  0.00000000000E+00  0.45593999997E+02  0.45594000000E+02  0.51100000000E-03 0. -1.
         11   -1    0    0    0    0 -0.00000000000E+00 -0.00000000000E+00 -0.45593999997E+02  0.45594000000E+02  0.51100000000E-03 0.  1.
    9900012    2    1    2    0    0 -0.10853450423E+02  0.36842530026E+02  0.13341513592E+02  0.50528863392E+02  0.30000010766E+02 0.  0.
         12    1    1    2    0    0  0.10853450423E+02 -0.36842530026E+02 -0.13341513592E+02  0.40659136608E+02  0.00000000000E+00 0. -1.
         11    1    3    3    0    0 -0.97229381545E+01  0.53680009669E+01  0.15221794570E+02  0.18842876398E+02  0.51100000000E-03 0. -1.
        -11    1    3    3    0    0 -0.16432459332E+01  0.22075314704E+02 -0.23519731201E+01  0.22260987271E+02  0.51100000000E-03 0.  1.
         12    1    3    3    0    0  0.51273366471E+00  0.93992143553E+01  0.47169214139E+00  0.94249997233E+01  0.00000000000E+00 0. -1.
</event>
<event>
 7    1  0.5946946E-013  0.5052886E+02  0.7816164E-02  0.1300439E+00
        -11   -1    0    0    0    0  0.00000000000E+00  0.00000000000E+00  0.45593999997E+02  0.45594000000E+02  0.51100000000E-03 0.  1.
         11   -1    0    0    0    0 -0.00000000000E+00 -0.00000000000E+00 -0.45593999997E+02  0.45594000000E+02  0.51100000000E-03 0. -1.
    9900012    2    1    2    0    0 -0.64821694438E+01  0.20327850863E+02  0.34611061114E+02  0.50528860894E+02  0.30000003173E+02 0.  0.
         12    1    1    2    0    0  0.64821694438E+01 -0.20327850863E+02 -0.34611061114E+02  0.40659139106E+02  0.00000000000E+00 0. -1.
         11    1    3    3    0    0 -0.31715821646E+01 -0.34299926599E+01  0.21978866985E+01  0.51627985894E+01  0.51100000000E-03 0. -1.
        -11    1    3    3    0    0 -0.86689681506E+01  0.19586757432E+02  0.32072197089E+02  0.38567057210E+02  0.51100000000E-03 0.  1.
        -12    1    3    3    0    0  0.53583808714E+01  0.41710860902E+01  0.34097732711E+00  0.67990050943E+01  0.00000000000E+00 0.  1.
</event>
<event>
 7    1  0.5946946E-013  0.5052885E+02  0.7816164E-02  0.1300439E+00
        -11   -1    0    0    0    0  0.00000000000E+00  0.00000000000E+00  0.45593999997E+02  0.45594000000E+02  0.51100000000E-03 0.  1.
         11   -1    0    0    0    0 -0.00000000000E+00 -0.00000000000E+00 -0.45593999997E+02  0.45594000000E+02  0.51100000000E-03 0. -1.
    9900012    2    1    2    0    0  0.12834341403E+02 -0.12516800748E+02  0.36493499879E+02  0.50528853998E+02  0.29999982212E+02 0.  0.
         12    1    1    2    0    0 -0.12834341403E+02  0.12516800748E+02 -0.36493499879E+02  0.40659146002E+02  0.00000000000E+00 0. -1.
         11    1    3    3    0    0  0.15705028766E+02 -0.14631183411E+01  0.15406075574E+02  0.22048487673E+02  0.51100000000E-03 0. -1.
        -11    1    3    3    0    0 -0.88908407297E+01 -0.51367332923E+01  0.85267350094E+01  0.13346845619E+02  0.51100000000E-03 0.  1.
         12    1    3    3    0    0  0.60201533668E+01 -0.59169491148E+01  0.12560689295E+02  0.15133520706E+02  0.00000000000E+00 0. -1.
</event>
<event>
 7    1  0.5946946E-013  0.5052886E+02  0.7816164E-02  0.1300439E+00
        -11   -1    0    0    0    0  0.00000000000E+00  0.00000000000E+00  0.45593999997E+02  0.45594000000E+02  0.51100000000E-03 0.  1.
         11   -1    0    0    0    0 -0.00000000000E+00 -0.00000000000E+00 -0.45593999997E+02  0.45594000000E+02  0.51100000000E-03 0. -1.
    9900012    2    1    2    0    0 -0.10104915859E+02 -0.92846110473E+01  0.38273386756E+02  0.50528862520E+02  0.30000008116E+02 0.  0.
         12    1    1    2    0    0  0.10104915859E+02  0.92846110473E+01 -0.38273386756E+02  0.40659137480E+02  0.00000000000E+00 0. -1.
         11    1    3    3    0    0  0.58147364552E+00 -0.99027965732E+01  0.33087427337E-01  0.99199085988E+01  0.51100000000E-03 0. -1.
        -11    1    3    3    0    0 -0.86507861233E+00  0.39944412746E+00  0.18831783761E+02  0.18855874324E+02  0.51100000000E-03 0.  1.
         12    1    3    3    0    0 -0.98213108921E+01  0.21874139844E+00  0.19408515568E+02  0.21753079598E+02  0.00000000000E+00 0. -1.
</event>
<event>
 7    1  0.5946946E-013  0.5052886E+02  0.7816164E-02  0.1300439E+00
        -11   -1    0    0    0    0  0.00000000000E+00  0.00000000000E+00  0.45593999997E+02  0.45594000000E+02  0.51100000000E-03 0.  1.
         11   -1    0    0    0    0 -0.00000000000E+00 -0.00000000000E+00 -0.45593999997E+02  0.45594000000E+02  0.51100000000E-03 0. -1.
    9900012    2    1    2    0    0 -0.34911143777E+02  0.92696546609E+01 -0.18666843140E+02  0.50528862157E+02  0.30000007012E+02 0.  0.
         12    1    1    2    0    0  0.34911143777E+02 -0.92696546609E+01  0.18666843140E+02  0.40659137843E+02  0.00000000000E+00 0. -1.
         11    1    3    3    0    0 -0.28416090729E+01 -0.38885062784E+01 -0.14542797144E+02  0.15319535640E+02  0.51100000000E-03 0. -1.
        -11    1    3    3    0    0 -0.25475405909E+02  0.12380906686E+02 -0.31727020968E+01  0.28501740218E+02  0.51100000000E-03 0.  1.
         12    1    3    3    0    0 -0.65941287951E+01  0.77725425303E+00 -0.95134389898E+00  0.67075862987E+01  0.00000000000E+00 0. -1.
</event>
<event>
 7    1  0.5946946E-013  0.5052887E+02  0.7816164E-02  0.1300439E+00
        -11   -1    0    0    0    0  0.00000000000E+00  0.00000000000E+00  0.45593999997E+02  0.45594000000E+02  0.51100000000E-03 0.  1.
         11   -1    0    0    0    0 -0.00000000000E+00 -0.00000000000E+00 -0.45593999997E+02  0.45594000000E+02  0.51100000000E-03 0. -1.
    9900012    2    1    2    0    0 -0.27846653531E+02 -0.29543703036E+02 -0.22132876743E+01  0.50528866410E+02  0.30000019940E+02 0.  0.
         12    1    1    2    0    0  0.27846653531E+02  0.29543703036E+02  0.22132876743E+01  0.40659133590E+02  0.00000000000E+00 0. -1.
         11    1    3    3    0    0 -0.39411055089E+01 -0.14914785901E+02  0.12234080438E+01  0.15475137434E+02  0.51100000000E-03 0. -1.
        -11    1    3    3    0    0 -0.16220863643E+02  0.21802448145E+01 -0.82367119894E+00  0.16387443952E+02  0.51100000000E-03 0.  1.
        -12    1    3    3    0    0 -0.76846843796E+01 -0.16809161950E+02 -0.26130245192E+01  0.18666285024E+02  0.00000000000E+00 0.  1.
</event>
<event>
 7    1  0.5946946E-013  0.5052886E+02  0.7816164E-02  0.1300439E+00
        -11   -1    0    0    0    0  0.00000000000E+00  0.00000000000E+00  0.45593999997E+02  0.45594000000E+02  0.51100000000E-03 0.  1.
         11   -1    0    0    0    0 -0.00000000000E+00 -0.00000000000E+00 -0.45593999997E+02  0.45594000000E+02  0.51100000000E-03 0. -1.
    9900012    2    1    2    0    0  0.93346045641E+01 -0.22608227490E+02  0.32479210877E+02  0.50528856726E+02  0.29999990505E+02 0.  0.
         12    1    1    2    0    0 -0.93346045641E+01  0.22608227490E+02 -0.32479210877E+02  0.40659143274E+02  0.00000000000E+00 0. -1.
         11    1    3    3    0    0  0.71999057743E+01  0.40238119283E+01  0.77830622876E+01  0.11340448158E+02  0.51100000000E-03 0. -1.
        -11    1    3    3    0    0 -0.60234273290E+01 -0.12719203457E+02  0.13897617158E+02  0.19778866912E+02  0.51100000000E-03 0.  1.
         12    1    3    3    0    0  0.81581261188E+01 -0.13912835961E+02  0.10798531431E+02  0.19409541656E+02  0.00000000000E+00 0. -1.
</event>
<event>
 7    1  0.5946946E-013  0.5052886E+02  0.7816164E-02  0.1300439E+00
        -11   -1    0    0    0    0  0.00000000000E+00  0.00000000000E+00  0.45593999997E+02  0.45594000000E+02  0.51100000000E-03 0.  1.
         11   -1    0    0    0    0 -0.00000000000E+00 -0.00000000000E+00 -0.45593999997E+02  0.45594000000E+02  0.51100000000E-03 0. -1.
    9900012    2    1    2    0    0  0.12167512150E+01 -0.37224862429E+02  0.16309349481E+02  0.50528858999E+02  0.29999997415E+02 0.  0.
         12    1    1    2    0    0 -0.12167512150E+01  0.37224862429E+02 -0.16309349481E+02  0.40659141001E+02  0.00000000000E+00 0. -1.
         11    1    3    3    0    0  0.35992206372E+01  0.31640906368E+01 -0.27080084823E+01  0.55044680901E+01  0.51100000000E-03 0. -1.
        -11    1    3    3    0    0 -0.12055594919E+01 -0.38598354758E+02  0.17491366418E+02  0.42393799820E+02  0.51100000000E-03 0.  1.
         12    1    3    3    0    0 -0.11769099303E+01 -0.17905983082E+01  0.15259915453E+01  0.26305910898E+01  0.00000000000E+00 0. -1.
</event>
<event>
 7    1  0.5946946E-013  0.5052885E+02  0.7816164E-02  0.1300439E+00
        -11   -1    0    0    0    0  0.00000000000E+00  0.00000000000E+00  0.45593999997E+02  0.45594000000E+02  0.51100000000E-03 0.  1.
         11   -1    0    0    0    0 -0.00000000000E+00 -0.00000000000E+00 -0.45593999997E+02  0.45594000000E+02  0.51100000000E-03 0. -1.
    9900012    2    1    2    0    0 -0.36308879795E+02 -0.18229602967E+02 -0.15852480046E+01  0.50528853580E+02  0.29999980943E+02 0.  0.
         12    1    1    2    0    0  0.36308879795E+02  0.18229602967E+02  0.15852480046E+01  0.40659146420E+02  0.00000000000E+00 0. -1.
         11    1    3    3    0    0 -0.32819867755E+01  0.43285088747E+01 -0.81047827253E+01  0.97567888959E+01  0.51100000000E-03 0. -1.
        -11    1    3    3    0    0 -0.11887279834E+02 -0.10398459274E+02  0.37103371778E+01  0.16223500835E+02  0.51100000000E-03 0.  1.
         12    1    3    3    0    0 -0.21139613186E+02 -0.12159652568E+02  0.28091975430E+01  0.24548563849E+02  0.00000000000E+00 0. -1.
</event>
<event>
 7    1  0.5946946E-013  0.5052886E+02  0.7816164E-02  0.1300439E+00
        -11   -1    0    0    0    0  0.00000000000E+00  0.00000000000E+00  0.45593999997E+02  0.45594000000E+02  0.51100000000E-03 0. -1.
         11   -1    0    0    0    0 -0.00000000000E+00 -0.00000000000E+00 -0.45593999997E+02  0.45594000000E+02  0.51100000000E-03 0.  1.
    9900012    2    1    2    0    0  0.36354163304E+02  0.16360070816E+02 -0.79930238481E+01  0.50528861582E+02  0.30000005264E+02 0.  0.
         12    1    1    2    0    0 -0.36354163304E+02 -0.16360070816E+02  0.79930238481E+01  0.40659138418E+02  0.00000000000E+00 0. -1.
         11    1    3    3    0    0  0.67625475451E+01 -0.44373816074E+01 -0.22029003084E+01  0.83830289787E+01  0.51100000000E-03 0. -1.
        -11    1    3    3    0    0  0.11517541412E+02  0.13816142685E+02 -0.12203735919E+02  0.21736391824E+02  0.51100000000E-03 0.  1.
        -12    1    3    3    0    0  0.18074074347E+02  0.69813097390E+01  0.64136123795E+01  0.20409440779E+02  0.00000000000E+00 0.  1.
</event>
<event>
 7    1  0.5946946E-013  0.5052885E+02  0.7816164E-02  0.1300439E+00
        -11   -1    0    0    0    0  0.00000000000E+00  0.00000000000E+00  0.45593999997E+02  0.45594000000E+02  0.51100000000E-03 0.  1.
         11   -1    0    0    0    0 -0.00000000000E+00 -0.00000000000E+00 -0.45593999997E+02  0.45594000000E+02  0.51100000000E-03 0. -1.
    9900012    2    1    2    0    0  0.28300993453E+02  0.16594319499E+02 -0.24017680988E+02  0.50528847646E+02  0.29999962906E+02 0.  0.
         12    1    1    2    0    0 -0.28300993453E+02 -0.16594319499E+02  0.24017680988E+02  0.40659152354E+02  0.00000000000E+00 0. -1.
         11    1    3    3    0    0 -0.11248805388E+01  0.33087948216E+01 -0.64435326911E+01  0.73302519193E+01  0.51100000000E-03 0. -1.
        -11    1    3    3    0    0  0.32016333751E+02  0.15903055434E+02 -0.15421721537E+02  0.38933048871E+02  0.51100000000E-03 0.  1.
        -12    1    3    3    0    0 -0.25904597588E+01 -0.26175307568E+01 -0.21524267597E+01  0.42655468560E+01  0.00000000000E+00 0.  1.
</event>
<event>
 7    1  0.5946946E-013  0.5052887E+02  0.7816164E-02  0.1300439E+00
        -11   -1    0    0    0    0  0.00000000000E+00  0.00000000000E+00  0.45593999997E+02  0.45594000000E+02  0.51100000000E-03 0.  1.
         11   -1    0    0    0    0 -0.00000000000E+00 -0.00000000000E+00 -0.45593999997E+02  0.45594000000E+02  0.51100000000E-03 0. -1.
    9900012    2    1    2    0    0  0.35534302625E+01 -0.96359988602E+01  0.39340634990E+02  0.50528869388E+02  0.30000028993E+02 0.  0.
         12    1    1    2    0    0 -0.35534302625E+01  0.96359988602E+01 -0.39340634990E+02  0.40659130612E+02  0.00000000000E+00 0. -1.
         11    1    3    3    0    0  0.12273055754E+02 -0.13782341072E+01  0.68197578886E+01  0.14108030504E+02  0.51100000000E-03 0. -1.
        -11    1    3    3    0    0 -0.32385523545E+01 -0.10208121902E+01  0.23060748249E+02  0.23309405590E+02  0.51100000000E-03 0.  1.
         12    1    3    3    0    0 -0.54810731365E+01 -0.72369525628E+01  0.94601288526E+01  0.13111433294E+02  0.00000000000E+00 0. -1.
</event>
<event>
 7    1  0.6987917E-013  0.5052886E+02  0.7816164E-02  0.1300439E+00
        -11   -1    0    0    0    0  0.00000000000E+00  0.00000000000E+00  0.45593999997E+02  0.45594000000E+02  0.51100000000E-03 0. -1.
         11   -1    0    0    0    0 -0.00000000000E+00 -0.00000000000E+00 -0.45593999997E+02  0.45594000000E+02  0.51100000000E-03 0.  1.
    9900012    2    1    2    0    0  0.26872045267E+02  0.14851515231E+02 -0.26655039026E+02  0.50528862934E+02  0.30000009373E+02 0.  0.
         12    1    1    2    0    0 -0.26872045267E+02 -0.14851515231E+02  0.26655039026E+02  0.40659137066E+02  0.00000000000E+00 0. -1.
         11    1    3    3    0    0 -0.34389919360E+00  0.46020228341E+01  0.29671276536E+01  0.54864129989E+01  0.51100000000E-03 0. -1.
        -11    1    3    3    0    0  0.13084952081E+02  0.11161785896E+02 -0.24603717099E+02  0.30019066120E+02  0.51100000000E-03 0.  1.
        -12    1    3    3    0    0  0.14130992380E+02 -0.91229349891E+00 -0.50184495808E+01  0.15023383815E+02  0.00000000000E+00 0.  1.
</event>
<event>
 7    1  0.5946946E-013  0.5052886E+02  0.7816164E-02  0.1300439E+00
        -11   -1    0    0    0    0  0.00000000000E+00  0.00000000000E+00  0.45593999997E+02  0.45594000000E+02  0.51100000000E-03 0.  1.
         11   -1    0    0    0    0 -0.00000000000E+00 -0.00000000000E+00 -0.45593999997E+02  0.45594000000E+02  0.51100000000E-03 0. -1.
    9900012    2    1    2    0    0  0.12128977031E+01 -0.55029706924E+01  0.40266760040E+02  0.50528858698E+02  0.29999996499E+02 0.  0.
         12    1    1    2    0    0 -0.12128977031E+01  0.55029706924E+01 -0.40266760040E+02  0.40659141302E+02  0.00000000000E+00 0. -1.
         11    1    3    3    0    0  0.14734366869E+01 -0.45869355852E+01 -0.10534921576E+01  0.49316163395E+01  0.51100000000E-03 0. -1.
        -11    1    3    3    0    0 -0.79659056538E+01 -0.30227956354E+01  0.32922086700E+02  0.34006716091E+02  0.51100000000E-03 0.  1.
        -12    1    3    3    0    0  0.77053666700E+01  0.21067605282E+01  0.83981654973E+01  0.11590526268E+02  0.00000000000E+00 0.  1.
</event>
<event>
 7    1  0.5946946E-013  0.5052886E+02  0.7816164E-02  0.1300439E+00
        -11   -1    0    0    0    0  0.00000000000E+00  0.00000000000E+00  0.45593999997E+02  0.45594000000E+02  0.51100000000E-03 0. -1.
         11   -1    0    0    0    0 -0.00000000000E+00 -0.00000000000E+00 -0.45593999997E+02  0.45594000000E+02  0.51100000000E-03 0.  1.
    9900012    2    1    2    0    0  0.33646305799E+02  0.20466291492E+01 -0.22735497555E+02  0.50528862849E+02  0.30000009117E+02 0.  0.
         12    1    1    2    0    0 -0.33646305799E+02 -0.20466291492E+01  0.22735497555E+02  0.40659137151E+02  0.00000000000E+00 0. -1.
         11    1    3    3    0    0  0.19719429217E+02  0.10749798104E+02 -0.71436624658E+01  0.23567901086E+02  0.51100000000E-03 0. -1.
        -11    1    3    3    0    0  0.73890260730E+01  0.28612124005E+00 -0.13863167026E+02  0.15712000888E+02  0.51100000000E-03 0.  1.
         12    1    3    3    0    0  0.65378505086E+01 -0.89892901951E+01 -0.17286680630E+01  0.11248960874E+02  0.00000000000E+00 0. -1.
</event>
<event>
 7    1  0.5946946E-013  0.5052886E+02  0.7816164E-02  0.1300439E+00
        -11   -1    0    0    0    0  0.00000000000E+00  0.00000000000E+00  0.45593999997E+02  0.45594000000E+02  0.51100000000E-03 0.  1.
         11   -1    0    0    0    0 -0.00000000000E+00 -0.00000000000E+00 -0.45593999997E+02  0.45594000000E+02  0.51100000000E-03 0. -1.
    9900012    2    1    2    0    0  0.78935653201E+01  0.39766782950E+02 -0.30757310513E+01  0.50528861775E+02  0.30000005852E+02 0.  0.
         12    1    1    2    0    0 -0.78935653201E+01 -0.39766782950E+02  0.30757310513E+01  0.40659138225E+02  0.00000000000E+00 0. -1.
         11    1    3    3    0    0 -0.65413372433E+01  0.14341430743E+02  0.69347692294E+01  0.17220823245E+02  0.51100000000E-03 0. -1.
        -11    1    3    3    0    0  0.36357499948E+01  0.10685317304E+02  0.19706635001E+01  0.11457669868E+02  0.51100000000E-03 0.  1.
         12    1    3    3    0    0  0.10799152569E+02  0.14740034903E+02 -0.11981163781E+02  0.21850368662E+02  0.00000000000E+00 0. -1.
</event>
<event>
 7    1  0.5946946E-013  0.5052886E+02  0.7816164E-02  0.1300439E+00
        -11   -1    0    0    0    0  0.00000000000E+00  0.00000000000E+00  0.45593999997E+02  0.45594000000E+02  0.51100000000E-03 0.  1.
         11   -1    0    0    0    0 -0.00000000000E+00 -0.00000000000E+00 -0.45593999997E+02  0.45594000000E+02  0.51100000000E-03 0. -1.
    9900012    2    1    2    0    0 -0.30833254831E+02 -0.16675576993E+02  0.20601002631E+02  0.50528858581E+02  0.29999996143E+02 0.  0.
         12    1    1    2    0    0  0.30833254831E+02  0.16675576993E+02 -0.20601002631E+02  0.40659141419E+02  0.00000000000E+00 0. -1.
         11    1    3    3    0    0 -0.68197182920E+00  0.12873418152E+01  0.53512978959E+01  0.55460548101E+01  0.51100000000E-03 0. -1.
        -11    1    3    3    0    0 -0.30769865972E+02 -0.13135983568E+02  0.19323833841E+02  0.38636113557E+02  0.51100000000E-03 0.  1.
        -12    1    3    3    0    0  0.61858296996E+00 -0.48269352403E+01 -0.40741291058E+01  0.63466902143E+01  0.00000000000E+00 0.  1.
</event>
<event>
 7    1  0.5946946E-013  0.5052886E+02  0.7816164E-02  0.1300439E+00
        -11   -1    0    0    0    0  0.00000000000E+00  0.00000000000E+00  0.45593999997E+02  0.45594000000E+02  0.51100000000E-03 0.  1.
         11   -1    0    0    0    0 -0.00000000000E+00 -0.00000000000E+00 -0.45593999997E+02  0.45594000000E+02  0.51100000000E-03 0. -1.
    9900012    2    1    2    0    0 -0.53147295992E+01 -0.12219901893E+02  0.38413454416E+02  0.50528857939E+02  0.29999994190E+02 0.  0.
         12    1    1    2    0    0  0.53147295992E+01  0.12219901893E+02 -0.38413454416E+02  0.40659142061E+02  0.00000000000E+00 0. -1.
         11    1    3    3    0    0 -0.82314326229E+01  0.38817402557E+01  0.10441780026E+02  0.13851179041E+02  0.51100000000E-03 0. -1.
        -11    1    3    3    0    0 -0.20169426791E+01 -0.16815392004E+02  0.26553861026E+02  0.31494967879E+02  0.51100000000E-03 0.  1.
        -12    1    3    3    0    0  0.49336457028E+01  0.71374985516E+00  0.14178133634E+01  0.51827110193E+01  0.00000000000E+00 0.  1.
</event>
<event>
 7    1  0.5946946E-013  0.5052885E+02  0.7816164E-02  0.1300439E+00
        -11   -1    0    0    0    0  0.00000000000E+00  0.00000000000E+00  0.45593999997E+02  0.45594000000E+02  0.51100000000E-03 0.  1.
         11   -1    0    0    0    0 -0.00000000000E+00 -0.00000000000E+00 -0.45593999997E+02  0.45594000000E+02  0.51100000000E-03 0. -1.
    9900012    2    1    2    0    0 -0.34710817093E+02 -0.16590102479E+02  0.13156512369E+02  0.50528854150E+02  0.29999982675E+02 0.  0.
         12    1    1    2    0    0  0.34710817093E+02  0.16590102479E+02 -0.13156512369E+02  0.40659145850E+02  0.00000000000E+00 0. -1.
         11    1    3    3    0    0 -0.41215260966E+01 -0.12538353737E+02  0.28604826287E+01  0.13504801107E+02  0.51100000000E-03 0. -1.
        -11    1    3    3    0    0 -0.23636414107E+02 -0.65953161443E+01  0.14507057810E+02  0.28506718392E+02  0.51100000000E-03 0.  1.
        -12    1    3    3    0    0 -0.69528768888E+01  0.25435674025E+01 -0.42110280699E+01  0.85173346516E+01  0.00000000000E+00 0.  1.
</event>
<event>
 7    1  0.5946946E-013  0.5052885E+02  0.7816164E-02  0.1300439E+00
        -11   -1    0    0    0    0  0.00000000000E+00  0.00000000000E+00  0.45593999997E+02  0.45594000000E+02  0.51100000000E-03 0. -1.
         11   -1    0    0    0    0 -0.00000000000E+00 -0.00000000000E+00 -0.45593999997E+02  0.45594000000E+02  0.51100000000E-03 0.  1.
    9900012    2    1    2    0    0 -0.38432502241E+02  0.10927564730E+02  0.75297789556E+01  0.50528850101E+02  0.29999970366E+02 0.  0.
         12    1    1    2    0    0  0.38432502241E+02 -0.10927564730E+02 -0.75297789556E+01  0.40659149899E+02  0.00000000000E+00 0. -1.
         11    1    3    3    0    0 -0.19190016213E+02  0.14004283771E+02  0.26288763515E+01  0.23901624994E+02  0.51100000000E-03 0. -1.
        -11    1    3    3    0    0 -0.80888228138E+01 -0.99934375599E+01  0.40321779223E+01  0.13474283203E+02  0.51100000000E-03 0.  1.
        -12    1    3    3    0    0 -0.11153663214E+02  0.69167185183E+01  0.86872468173E+00  0.13152941904E+02  0.00000000000E+00 0.  1.
</event>
<event>
 7    1  0.5946946E-013  0.5052886E+02  0.7816164E-02  0.1300439E+00
        -11   -1    0    0    0    0  0.00000000000E+00  0.00000000000E+00  0.45593999997E+02  0.45594000000E+02  0.51100000000E-03 0. -1.
         11   -1    0    0    0    0 -0.00000000000E+00 -0.00000000000E+00 -0.45593999997E+02  0.45594000000E+02  0.51100000000E-03 0.  1.
    9900012    2    1    2    0    0  0.12678777987E+02 -0.38631208649E+02  0.20879865352E+00  0.50528864620E+02  0.30000014500E+02 0.  0.
         12    1    1    2    0    0 -0.12678777987E+02  0.38631208649E+02 -0.20879865352E+00  0.40659135380E+02  0.00000000000E+00 0. -1.
         11    1    3    3    0    0 -0.49964681017E+01 -0.69139260393E+01  0.60868080508E+01  0.10479327234E+02  0.51100000000E-03 0. -1.
        -11    1    3    3    0    0  0.16287976265E+02 -0.21205577879E+02 -0.10174350759E+02  0.28609301243E+02  0.51100000000E-03 0.  1.
        -12    1    3    3    0    0  0.13872698238E+01 -0.10511704731E+02  0.42963413619E+01  0.11440236143E+02  0.00000000000E+00 0.  1.
</event>
<event>
 7    1  0.5946946E-013  0.5052886E+02  0.7816164E-02  0.1300439E+00
        -11   -1    0    0    0    0  0.00000000000E+00  0.00000000000E+00  0.45593999997E+02  0.45594000000E+02  0.51100000000E-03 0.  1.
         11   -1    0    0    0    0 -0.00000000000E+00 -0.00000000000E+00 -0.45593999997E+02  0.45594000000E+02  0.51100000000E-03 0. -1.
    9900012    2    1    2    0    0 -0.52867245385E+00  0.10591945002E+02  0.39251711082E+02  0.50528860605E+02  0.30000002295E+02 0.  0.
         12    1    1    2    0    0  0.52867245385E+00 -0.10591945002E+02 -0.39251711082E+02  0.40659139395E+02  0.00000000000E+00 0. -1.
         11    1    3    3    0    0 -0.44571761035E+01 -0.82140191457E+01  0.21836106618E+02  0.23751885858E+02  0.51100000000E-03 0. -1.
        -11    1    3    3    0    0 -0.55434403363E+00  0.86493647932E+01  0.10821212764E+02  0.13864250956E+02  0.51100000000E-03 0.  1.
         12    1    3    3    0    0  0.44828476833E+01  0.10156599354E+02  0.65943917002E+01  0.12912723791E+02  0.00000000000E+00 0. -1.
</event>
<event>
 7    1  0.5946946E-013  0.5052886E+02  0.7816164E-02  0.1300439E+00
        -11   -1    0    0    0    0  0.00000000000E+00  0.00000000000E+00  0.45593999997E+02  0.45594000000E+02  0.51100000000E-03 0.  1.
         11   -1    0    0    0    0 -0.00000000000E+00 -0.00000000000E+00 -0.45593999997E+02  0.45594000000E+02  0.51100000000E-03 0. -1.
    9900012    2    1    2    0    0 -0.34018482187E+01 -0.30251977134E+02  0.26952019484E+02  0.50528855320E+02  0.29999986231E+02 0.  0.
         12    1    1    2    0    0  0.34018482187E+01  0.30251977134E+02 -0.26952019484E+02  0.40659144680E+02  0.00000000000E+00 0. -1.
         11    1    3    3    0    0 -0.82518958944E+01 -0.11407987788E+02  0.65135706037E+00  0.14094688272E+02  0.51100000000E-03 0. -1.
        -11    1    3    3    0    0  0.97440509567E+01 -0.17588701128E+02  0.20032437720E+02  0.28383225639E+02  0.51100000000E-03 0.  1.
        -12    1    3    3    0    0 -0.48940032810E+01 -0.12552882182E+01  0.62682247041E+01  0.80509414087E+01  0.00000000000E+00 0.  1.
</event>
<event>
 7    1  0.5946946E-013  0.5052886E+02  0.7816164E-02  0.1300439E+00
        -11   -1    0    0    0    0  0.00000000000E+00  0.00000000000E+00  0.45593999997E+02  0.45594000000E+02  0.51100000000E-03 0.  1.
         11   -1    0    0    0    0 -0.00000000000E+00 -0.00000000000E+00 -0.45593999997E+02  0.45594000000E+02  0.51100000000E-03 0. -1.
    9900012    2    1    2    0    0  0.18568140441E+02 -0.15292602372E+02  0.32779962851E+02  0.50528862143E+02  0.30000006971E+02 0.  0.
         12    1    1    2    0    0 -0.18568140441E+02  0.15292602372E+02 -0.32779962851E+02  0.40659137857E+02  0.00000000000E+00 0. -1.
         11    1    3    3    0    0 -0.40584094009E+01 -0.48051957027E+01 -0.27095196823E+01  0.68485100406E+01  0.51100000000E-03 0. -1.
        -11    1    3    3    0    0  0.22774771897E+02 -0.98945819208E+01  0.34322213671E+02  0.42362806067E+02  0.51100000000E-03 0.  1.
        -12    1    3    3    0    0 -0.14822205474E+00 -0.59282474889E+00  0.11672688618E+01  0.13175460356E+01  0.00000000000E+00 0.  1.
</event>
<event>
 7    1  0.5946946E-013  0.5052887E+02  0.7816164E-02  0.1300439E+00
        -11   -1    0    0    0    0  0.00000000000E+00  0.00000000000E+00  0.45593999997E+02  0.45594000000E+02  0.51100000000E-03 0. -1.
         11   -1    0    0    0    0 -0.00000000000E+00 -0.00000000000E+00 -0.45593999997E+02  0.45594000000E+02  0.51100000000E-03 0.  1.
    9900012    2    1    2    0    0  0.12743521945E+02  0.38483630903E+02 -0.31269031476E+01  0.50528871599E+02  0.30000035712E+02 0.  0.
         12    1    1    2    0    0 -0.12743521945E+02 -0.38483630903E+02  0.31269031476E+01  0.40659128401E+02  0.00000000000E+00 0. -1.
         11    1    3    3    0    0  0.48293497471E+01  0.25875949251E+02  0.10922122257E+02  0.28498774070E+02  0.51100000000E-03 0. -1.
        -11    1    3    3    0    0 -0.12301869622E+01  0.38935726300E+01 -0.51800578895E+01  0.65959281217E+01  0.51100000000E-03 0.  1.
         12    1    3    3    0    0  0.91443591605E+01  0.87141090222E+01 -0.88689675154E+01  0.15434169407E+02  0.00000000000E+00 0. -1.
</event>
<event>
 7    1  0.5946946E-013  0.5052882E+02  0.7816164E-02  0.1300439E+00
        -11   -1    0    0    0    0  0.00000000000E+00  0.00000000000E+00  0.45593999997E+02  0.45594000000E+02  0.51100000000E-03 0.  1.
         11   -1    0    0    0    0 -0.00000000000E+00 -0.00000000000E+00 -0.45593999997E+02  0.45594000000E+02  0.51100000000E-03 0. -1.
    9900012    2    1    2    0    0  0.32023281217E+02 -0.13086583169E+02 -0.21363986333E+02  0.50528817630E+02  0.29999871669E+02 0.  0.
         12    1    1    2    0    0 -0.32023281217E+02  0.13086583169E+02  0.21363986333E+02  0.40659182370E+02  0.00000000000E+00 0. -1.
         11    1    3    3    0    0  0.21963002420E+02 -0.11711359999E+02 -0.30802410504E+01  0.25080217573E+02  0.51100000000E-03 0. -1.
        -11    1    3    3    0    0  0.12852021934E+02 -0.41813124501E+01 -0.15727172593E+02  0.20736484746E+02  0.51100000000E-03 0.  1.
         12    1    3    3    0    0 -0.27917431367E+01  0.28060892804E+01 -0.25565726901E+01  0.47121153116E+01  0.00000000000E+00 0. -1.
</event>
<event>
 7    1  0.5946946E-013  0.5052895E+02  0.7816164E-02  0.1300438E+00
        -11   -1    0    0    0    0  0.00000000000E+00  0.00000000000E+00  0.45593999997E+02  0.45594000000E+02  0.51100000000E-03 0. -1.
         11   -1    0    0    0    0 -0.00000000000E+00 -0.00000000000E+00 -0.45593999997E+02  0.45594000000E+02  0.51100000000E-03 0.  1.
    9900012    2    1    2    0    0  0.32699259194E+02 -0.14409777130E+02  0.19397811086E+02  0.50528950531E+02  0.30000275634E+02 0.  0.
         12    1    1    2    0    0 -0.32699259194E+02  0.14409777130E+02 -0.19397811086E+02  0.40659049469E+02  0.00000000000E+00 0. -1.
         11    1    3    3    0    0  0.11465520229E+02 -0.18124241600E+02 -0.57083845059E-01  0.21446434354E+02  0.51100000000E-03 0. -1.
        -11    1    3    3    0    0  0.16560867411E+02  0.22898031311E+01  0.14619266164E+02  0.22208747629E+02  0.51100000000E-03 0.  1.
         12    1    3    3    0    0  0.46728715541E+01  0.14246613386E+01  0.48356287668E+01  0.68737685487E+01  0.00000000000E+00 0. -1.
</event>
<event>
 7    1  0.5946946E-013  0.5052887E+02  0.7816164E-02  0.1300439E+00
        -11   -1    0    0    0    0  0.00000000000E+00  0.00000000000E+00  0.45593999997E+02  0.45594000000E+02  0.51100000000E-03 0. -1.
         11   -1    0    0    0    0 -0.00000000000E+00 -0.00000000000E+00 -0.45593999997E+02  0.45594000000E+02  0.51100000000E-03 0.  1.
    9900012    2    1    2    0    0  0.26803705629E+01 -0.33147512403E+02 -0.23392787406E+02  0.50528874734E+02  0.30000045240E+02 0.  0.
         12    1    1    2    0    0 -0.26803705629E+01  0.33147512403E+02  0.23392787406E+02  0.40659125266E+02  0.00000000000E+00 0. -1.
         11    1    3    3    0    0 -0.88094143171E+01 -0.11229742705E+02 -0.94243433787E+01  0.17103542037E+02  0.51100000000E-03 0. -1.
        -11    1    3    3    0    0  0.15447010528E+02 -0.16692984402E+02 -0.68580327131E+01  0.23754967385E+02  0.51100000000E-03 0.  1.
        -12    1    3    3    0    0 -0.39572256480E+01 -0.52247852957E+01 -0.71104113137E+01  0.96703653119E+01  0.00000000000E+00 0.  1.
</event>
<event>
 7    1  0.5946946E-013  0.5052886E+02  0.7816164E-02  0.1300439E+00
        -11   -1    0    0    0    0  0.00000000000E+00  0.00000000000E+00  0.45593999997E+02  0.45594000000E+02  0.51100000000E-03 0.  1.
         11   -1    0    0    0    0 -0.00000000000E+00 -0.00000000000E+00 -0.45593999997E+02  0.45594000000E+02  0.51100000000E-03 0. -1.
    9900012    2    1    2    0    0 -0.11426687132E+02 -0.57812379241E+01  0.38589814917E+02  0.50528859501E+02  0.29999998940E+02 0.  0.
         12    1    1    2    0    0  0.11426687132E+02  0.57812379241E+01 -0.38589814917E+02  0.40659140499E+02  0.00000000000E+00 0. -1.
         11    1    3    3    0    0  0.48254211166E+00 -0.11196752041E+02  0.33268371533E+01  0.11690506784E+02  0.51100000000E-03 0. -1.
        -11    1    3    3    0    0 -0.12331564551E+02  0.46951087689E+01  0.22766247730E+02  0.26313752423E+02  0.51100000000E-03 0.  1.
        -12    1    3    3    0    0  0.42233530718E+00  0.72040534830E+00  0.12496730034E+02  0.12524600294E+02  0.00000000000E+00 0.  1.
</event>
<event>
 7    1  0.5946946E-013  0.5052886E+02  0.7816164E-02  0.1300439E+00
        -11   -1    0    0    0    0  0.00000000000E+00  0.00000000000E+00  0.45593999997E+02  0.45594000000E+02  0.51100000000E-03 0.  1.
         11   -1    0    0    0    0 -0.00000000000E+00 -0.00000000000E+00 -0.45593999997E+02  0.45594000000E+02  0.51100000000E-03 0. -1.
    9900012    2    1    2    0    0  0.28474617256E+02 -0.27417976583E+02 -0.95192790725E+01  0.50528856603E+02  0.29999990129E+02 0.  0.
         12    1    1    2    0    0 -0.28474617256E+02  0.27417976583E+02  0.95192790725E+01  0.40659143397E+02  0.00000000000E+00 0. -1.
         11    1    3    3    0    0  0.10552138430E+02 -0.73193130858E+01 -0.49968320825E+01  0.13779996394E+02  0.51100000000E-03 0. -1.
        -11    1    3    3    0    0 -0.58204098284E+01 -0.53434908293E+01  0.17655689650E+01  0.80961286331E+01  0.51100000000E-03 0.  1.
        -12    1    3    3    0    0  0.23742888654E+02 -0.14755172668E+02 -0.62880159550E+01  0.28652731576E+02  0.00000000000E+00 0.  1.
</event>
<event>
 7    1  0.5946946E-013  0.5052886E+02  0.7816164E-02  0.1300439E+00
        -11   -1    0    0    0    0  0.00000000000E+00  0.00000000000E+00  0.45593999997E+02  0.45594000000E+02  0.51100000000E-03 0. -1.
         11   -1    0    0    0    0 -0.00000000000E+00 -0.00000000000E+00 -0.45593999997E+02  0.45594000000E+02  0.51100000000E-03 0.  1.
    9900012    2    1    2    0    0 -0.21661199642E+02 -0.19685103735E+02 -0.28221525779E+02  0.50528863311E+02  0.30000010521E+02 0.  0.
         12    1    1    2    0    0  0.21661199642E+02  0.19685103735E+02  0.28221525779E+02  0.40659136689E+02  0.00000000000E+00 0. -1.
         11    1    3    3    0    0 -0.81156695027E+01  0.49523660927E+01 -0.95443158924E+01  0.13471599293E+02  0.51100000000E-03 0. -1.
        -11    1    3    3    0    0 -0.14771878685E+02 -0.25598130694E+02 -0.19386504724E+02  0.35345569179E+02  0.51100000000E-03 0.  1.
        -12    1    3    3    0    0  0.12263485460E+01  0.96066086674E+00  0.70929483731E+00  0.17116948395E+01  0.00000000000E+00 0.  1.
</event>
<event>
 7    1  0.5946946E-013  0.5052886E+02  0.7816164E-02  0.1300439E+00
        -11   -1    0    0    0    0  0.00000000000E+00  0.00000000000E+00  0.45593999997E+02  0.45594000000E+02  0.51100000000E-03 0. -1.
         11   -1    0    0    0    0 -0.00000000000E+00 -0.00000000000E+00 -0.45593999997E+02  0.45594000000E+02  0.51100000000E-03 0.  1.
    9900012    2    1    2    0    0 -0.15995870912E+02  0.32386904385E+02 -0.18665108158E+02  0.50528859276E+02  0.29999998255E+02 0.  0.
         12    1    1    2    0    0  0.15995870912E+02 -0.32386904385E+02  0.18665108158E+02  0.40659140724E+02  0.00000000000E+00 0. -1.
         11    1    3    3    0    0 -0.17376645370E+02  0.44178882946E+01 -0.57015908718E+01  0.18814188264E+02  0.51100000000E-03 0. -1.
        -11    1    3    3    0    0 -0.14976438613E+01  0.12522038383E+02 -0.25561681993E+01  0.12867726238E+02  0.51100000000E-03 0.  1.
         12    1    3    3    0    0  0.28784183196E+01  0.15446977707E+02 -0.10407349087E+02  0.18846944774E+02  0.00000000000E+00 0. -1.
</event>
<event>
 7    1  0.5946946E-013  0.5052887E+02  0.7816164E-02  0.1300439E+00
        -11   -1    0    0    0    0  0.00000000000E+00  0.00000000000E+00  0.45593999997E+02  0.45594000000E+02  0.51100000000E-03 0.  1.
         11   -1    0    0    0    0 -0.00000000000E+00 -0.00000000000E+00 -0.45593999997E+02  0.45594000000E+02  0.51100000000E-03 0. -1.
    9900012    2    1    2    0    0 -0.28306617259E+01 -0.35955510766E+01  0.40400793357E+02  0.50528871416E+02  0.30000035157E+02 0.  0.
         12    1    1    2    0    0  0.28306617259E+01  0.35955510766E+01 -0.40400793357E+02  0.40659128584E+02  0.00000000000E+00 0. -1.
         11    1    3    3    0    0 -0.84060833392E+01  0.25437845336E+01  0.27978477392E+01  0.92174307207E+01  0.51100000000E-03 0. -1.
        -11    1    3    3    0    0 -0.23151877789E+01 -0.84660828430E+01  0.21672174742E+02  0.23381997593E+02  0.51100000000E-03 0.  1.
         12    1    3    3    0    0  0.78906093922E+01  0.23267472327E+01  0.15930770876E+02  0.17929443102E+02  0.00000000000E+00 0. -1.
</event>
<event>
 7    1  0.5946946E-013  0.5052885E+02  0.7816164E-02  0.1300439E+00
        -11   -1    0    0    0    0  0.00000000000E+00  0.00000000000E+00  0.45593999997E+02  0.45594000000E+02  0.51100000000E-03 0.  1.
         11   -1    0    0    0    0 -0.00000000000E+00 -0.00000000000E+00 -0.45593999997E+02  0.45594000000E+02  0.51100000000E-03 0. -1.
    9900012    2    1    2    0    0  0.33084035334E+02  0.60650255779E+01  0.22843560568E+02  0.50528853567E+02  0.29999980901E+02 0.  0.
         12    1    1    2    0    0 -0.33084035334E+02 -0.60650255779E+01 -0.22843560568E+02  0.40659146433E+02  0.00000000000E+00 0. -1.
         11    1    3    3    0    0  0.11026213952E+02  0.10838611396E+02  0.15131412732E+02  0.21633597543E+02  0.51100000000E-03 0. -1.
        -11    1    3    3    0    0  0.88859773222E+01 -0.91876532011E+01 -0.43779501382E+00  0.12789262256E+02  0.51100000000E-03 0.  1.
        -12    1    3    3    0    0  0.13171844060E+02  0.44140673826E+01  0.81499428507E+01  0.16105993768E+02  0.00000000000E+00 0.  1.
</event>
<event>
 7    1  0.5946946E-013  0.5052886E+02  0.7816164E-02  0.1300439E+00
        -11   -1    0    0    0    0  0.00000000000E+00  0.00000000000E+00  0.45593999997E+02  0.45594000000E+02  0.51100000000E-03 0. -1.
         11   -1    0    0    0    0 -0.00000000000E+00 -0.00000000000E+00 -0.45593999997E+02  0.45594000000E+02  0.51100000000E-03 0.  1.
    9900012    2    1    2    0    0 -0.32578338350E+02  0.94251833660E+01 -0.22427294275E+02  0.50528859090E+02  0.29999997688E+02 0.  0.
         12    1    1    2    0    0  0.32578338350E+02 -0.94251833660E+01  0.22427294275E+02  0.40659140910E+02  0.00000000000E+00 0. -1.
         11    1    3    3    0    0 -0.32953822108E+02  0.10162836329E+02 -0.21469392277E+02  0.40622314542E+02  0.51100000000E-03 0. -1.
        -11    1    3    3    0    0 -0.69200504855E+00 -0.51373835280E+01 -0.13662012969E+01  0.53607916156E+01  0.51100000000E-03 0.  1.
         12    1    3    3    0    0  0.10674888066E+01  0.43997305650E+01  0.40829929982E+00  0.45457529316E+01  0.00000000000E+00 0. -1.
</event>
<event>
 7    1  0.5946946E-013  0.5052886E+02  0.7816164E-02  0.1300439E+00
        -11   -1    0    0    0    0  0.00000000000E+00  0.00000000000E+00  0.45593999997E+02  0.45594000000E+02  0.51100000000E-03 0.  1.
         11   -1    0    0    0    0 -0.00000000000E+00 -0.00000000000E+00 -0.45593999997E+02  0.45594000000E+02  0.51100000000E-03 0. -1.
    9900012    2    1    2    0    0  0.32133093002E+02 -0.21315219036E+02  0.12895404226E+02  0.50528859840E+02  0.29999999968E+02 0.  0.
         12    1    1    2    0    0 -0.32133093002E+02  0.21315219036E+02 -0.12895404226E+02  0.40659140160E+02  0.00000000000E+00 0. -1.
         11    1    3    3    0    0  0.68217259619E+01 -0.42737980665E+01  0.17780601194E+02  0.19517967981E+02  0.51100000000E-03 0. -1.
        -11    1    3    3    0    0  0.18715253292E+02 -0.13556860008E+02 -0.44814643776E+01  0.23540022988E+02  0.51100000000E-03 0.  1.
         12    1    3    3    0    0  0.65961137488E+01 -0.34845609609E+01 -0.40373259034E+00  0.74708688706E+01  0.00000000000E+00 0. -1.
</event>
<event>
 7    1  0.5946946E-013  0.5052886E+02  0.7816164E-02  0.1300439E+00
        -11   -1    0    0    0    0  0.00000000000E+00  0.00000000000E+00  0.45593999997E+02  0.45594000000E+02  0.51100000000E-03 0. -1.
         11   -1    0    0    0    0 -0.00000000000E+00 -0.00000000000E+00 -0.45593999997E+02  0.45594000000E+02  0.51100000000E-03 0.  1.
    9900012    2    1    2    0    0  0.11124080108E+02  0.34098001456E+02 -0.19150639400E+02  0.50528857720E+02  0.29999993525E+02 0.  0.
         12    1    1    2    0    0 -0.11124080108E+02 -0.34098001456E+02  0.19150639400E+02  0.40659142280E+02  0.00000000000E+00 0. -1.
         11    1    3    3    0    0  0.11143350269E+02  0.54390744402E+00 -0.58013874528E+00  0.11171689745E+02  0.51100000000E-03 0. -1.
        -11    1    3    3    0    0 -0.81203800130E+00  0.94134565047E+01 -0.99240733075E+01  0.13702547221E+02  0.51100000000E-03 0.  1.
         12    1    3    3    0    0  0.79276783965E+00  0.24140637508E+02 -0.86464273468E+01  0.25654620753E+02  0.00000000000E+00 0. -1.
</event>
<event>
 7    1  0.5946946E-013  0.5052886E+02  0.7816164E-02  0.1300439E+00
        -11   -1    0    0    0    0  0.00000000000E+00  0.00000000000E+00  0.45593999997E+02  0.45594000000E+02  0.51100000000E-03 0. -1.
         11   -1    0    0    0    0 -0.00000000000E+00 -0.00000000000E+00 -0.45593999997E+02  0.45594000000E+02  0.51100000000E-03 0.  1.
    9900012    2    1    2    0    0  0.31779735655E+02  0.24872071837E+02  0.49592508004E+01  0.50528859278E+02  0.29999998261E+02 0.  0.
         12    1    1    2    0    0 -0.31779735655E+02 -0.24872071837E+02 -0.49592508004E+01  0.40659140722E+02  0.00000000000E+00 0. -1.
         11    1    3    3    0    0  0.61153178508E+01  0.35670173547E+01 -0.90856149867E+01  0.11518208419E+02  0.51100000000E-03 0. -1.
        -11    1    3    3    0    0  0.10803290447E+02  0.16447494631E+02  0.12470136452E+02  0.23296683616E+02  0.51100000000E-03 0.  1.
        -12    1    3    3    0    0  0.14861127357E+02  0.48575598513E+01  0.15747293348E+01  0.15713967243E+02  0.00000000000E+00 0.  1.
</event>
<event>
 7    1  0.5946946E-013  0.5052886E+02  0.7816164E-02  0.1300439E+00
        -11   -1    0    0    0    0  0.00000000000E+00  0.00000000000E+00  0.45593999997E+02  0.45594000000E+02  0.51100000000E-03 0.  1.
         11   -1    0    0    0    0 -0.00000000000E+00 -0.00000000000E+00 -0.45593999997E+02  0.45594000000E+02  0.51100000000E-03 0. -1.
    9900012    2    1    2    0    0 -0.30687697513E+02  0.67017912412E+01  0.25816990577E+02  0.50528858507E+02  0.29999995918E+02 0.  0.
         12    1    1    2    0    0  0.30687697513E+02 -0.67017912412E+01 -0.25816990577E+02  0.40659141493E+02  0.00000000000E+00 0. -1.
         11    1    3    3    0    0 -0.87362177961E+01  0.26671199290E+01 -0.46475713965E+01  0.10248656021E+02  0.51100000000E-03 0. -1.
        -11    1    3    3    0    0 -0.99688523066E+01 -0.20266244027E+01  0.22436568298E+02  0.24635032373E+02  0.51100000000E-03 0.  1.
         12    1    3    3    0    0 -0.11982627410E+02  0.60612957149E+01  0.80279936760E+01  0.15645170113E+02  0.00000000000E+00 0. -1.
</event>
<event>
 7    1  0.5946946E-013  0.5052886E+02  0.7816164E-02  0.1300439E+00
        -11   -1    0    0    0    0  0.00000000000E+00  0.00000000000E+00  0.45593999997E+02  0.45594000000E+02  0.51100000000E-03 0.  1.
         11   -1    0    0    0    0 -0.00000000000E+00 -0.00000000000E+00 -0.45593999997E+02  0.45594000000E+02  0.51100000000E-03 0. -1.
    9900012    2    1    2    0    0 -0.31181102517E+02 -0.90651202164E+01  0.24468917654E+02  0.50528862160E+02  0.30000007022E+02 0.  0.
         12    1    1    2    0    0  0.31181102517E+02  0.90651202164E+01 -0.24468917654E+02  0.40659137840E+02  0.00000000000E+00 0. -1.
         11    1    3    3    0    0 -0.67379377085E+01 -0.10152543199E+02  0.38362001317E+01  0.12774598611E+02  0.51100000000E-03 0. -1.
        -11    1    3    3    0    0  0.21139466956E+00  0.61086608457E+01  0.19503766123E+01  0.64159484276E+01  0.51100000000E-03 0.  1.
        -12    1    3    3    0    0 -0.24654559478E+02 -0.50212378630E+01  0.18682340910E+02  0.31338315121E+02  0.00000000000E+00 0.  1.
</event>
<event>
 7    1  0.5946946E-013  0.5052886E+02  0.7816164E-02  0.1300439E+00
        -11   -1    0    0    0    0  0.00000000000E+00  0.00000000000E+00  0.45593999997E+02  0.45594000000E+02  0.51100000000E-03 0.  1.
         11   -1    0    0    0    0 -0.00000000000E+00 -0.00000000000E+00 -0.45593999997E+02  0.45594000000E+02  0.51100000000E-03 0. -1.
    9900012    2    1    2    0    0 -0.19924100269E+02  0.12085158799E+02  0.33318839429E+02  0.50528857171E+02  0.29999991856E+02 0.  0.
         12    1    1    2    0    0  0.19924100269E+02 -0.12085158799E+02 -0.33318839429E+02  0.40659142829E+02  0.00000000000E+00 0. -1.
         11    1    3    3    0    0 -0.75915303736E+01 -0.13916755757E+01  0.34667269970E+01  0.84608681974E+01  0.51100000000E-03 0. -1.
        -11    1    3    3    0    0  0.20024487032E+01  0.14498442544E+02  0.10732273513E+02  0.18149279104E+02  0.51100000000E-03 0.  1.
        -12    1    3    3    0    0 -0.14335018598E+02 -0.10216081694E+01  0.19119838920E+02  0.23918709869E+02  0.00000000000E+00 0.  1.
</event>
<event>
 7    1  0.5946946E-013  0.5052886E+02  0.7816164E-02  0.1300439E+00
        -11   -1    0    0    0    0  0.00000000000E+00  0.00000000000E+00  0.45593999997E+02  0.45594000000E+02  0.51100000000E-03 0.  1.
         11   -1    0    0    0    0 -0.00000000000E+00 -0.00000000000E+00 -0.45593999997E+02  0.45594000000E+02  0.51100000000E-03 0. -1.
    9900012    2    1    2    0    0  0.28644941344E+02 -0.20382128934E+02  0.20425528221E+02  0.50528855302E+02  0.29999986176E+02 0.  0.
         12    1    1    2    0    0 -0.28644941344E+02  0.20382128934E+02 -0.20425528221E+02  0.40659144698E+02  0.00000000000E+00 0. -1.
         11    1    3    3    0    0  0.42802491241E+01 -0.13119168054E+02  0.18708586862E+01  0.13925990646E+02  0.51100000000E-03 0. -1.
        -11    1    3    3    0    0  0.18126007844E+01  0.49460040651E+00  0.11613152527E+02  0.11764160108E+02  0.51100000000E-03 0.  1.
        -12    1    3    3    0    0  0.22552091436E+02 -0.77575612860E+01  0.69415170076E+01  0.24838704548E+02  0.00000000000E+00 0.  1.
</event>
<event>
 7    1  0.5946946E-013  0.5052886E+02  0.7816164E-02  0.1300439E+00
        -11   -1    0    0    0    0  0.00000000000E+00  0.00000000000E+00  0.45593999997E+02  0.45594000000E+02  0.51100000000E-03 0.  1.
         11   -1    0    0    0    0 -0.00000000000E+00 -0.00000000000E+00 -0.45593999997E+02  0.45594000000E+02  0.51100000000E-03 0. -1.
    9900012    2    1    2    0    0  0.71560122638E+01  0.24497662865E+02  0.31651564376E+02  0.50528861730E+02  0.30000005715E+02 0.  0.
         12    1    1    2    0    0 -0.71560122638E+01 -0.24497662865E+02 -0.31651564376E+02  0.40659138270E+02  0.00000000000E+00 0. -1.
         11    1    3    3    0    0 -0.65500485470E+01  0.17999177761E+01 -0.18728849981E+01  0.70463138197E+01  0.51100000000E-03 0. -1.
        -11    1    3    3    0    0  0.28289544801E+01  0.96289214216E+01  0.81019463441E+01  0.12898086913E+02  0.51100000000E-03 0.  1.
         12    1    3    3    0    0  0.10877106331E+02  0.13068823667E+02  0.25422503031E+02  0.30584460998E+02  0.00000000000E+00 0. -1.
</event>
<event>
 7    1  0.5946946E-013  0.5052886E+02  0.7816164E-02  0.1300439E+00
        -11   -1    0    0    0    0  0.00000000000E+00  0.00000000000E+00  0.45593999997E+02  0.45594000000E+02  0.51100000000E-03 0. -1.
         11   -1    0    0    0    0 -0.00000000000E+00 -0.00000000000E+00 -0.45593999997E+02  0.45594000000E+02  0.51100000000E-03 0.  1.
    9900012    2    1    2    0    0 -0.34533449422E+02  0.11945865016E+02 -0.17829840089E+02  0.50528855671E+02  0.29999987299E+02 0.  0.
         12    1    1    2    0    0  0.34533449422E+02 -0.11945865016E+02  0.17829840089E+02  0.40659144329E+02  0.00000000000E+00 0. -1.
         11    1    3    3    0    0 -0.15311498445E+02  0.10601547136E+02  0.31177362179E+01  0.18882665746E+02  0.51100000000E-03 0. -1.
        -11    1    3    3    0    0 -0.16013311252E+01  0.96821683475E+00 -0.11495776154E+02  0.11647084393E+02  0.51100000000E-03 0.  1.
         12    1    3    3    0    0 -0.17620619852E+02  0.37610104486E+00 -0.94518001524E+01  0.19999105532E+02  0.00000000000E+00 0. -1.
</event>
<event>
 7    1  0.6413608E-013  0.5052886E+02  0.7816164E-02  0.1300439E+00
        -11   -1    0    0    0    0  0.00000000000E+00  0.00000000000E+00  0.45593999997E+02  0.45594000000E+02  0.51100000000E-03 0. -1.
         11   -1    0    0    0    0 -0.00000000000E+00 -0.00000000000E+00 -0.45593999997E+02  0.45594000000E+02  0.51100000000E-03 0.  1.
    9900012    2    1    2    0    0  0.23968505050E+02 -0.10825256571E+02 -0.31007904745E+02  0.50528861164E+02  0.30000003995E+02 0.  0.
         12    1    1    2    0    0 -0.23968505050E+02  0.10825256571E+02  0.31007904745E+02  0.40659138836E+02  0.00000000000E+00 0. -1.
         11    1    3    3    0    0  0.22944150728E+01  0.78620959217E+01 -0.87139576703E+01  0.11958676823E+02  0.51100000000E-03 0. -1.
        -11    1    3    3    0    0  0.19761136234E+02 -0.11674856561E+02 -0.11808603049E+02  0.25811778072E+02  0.51100000000E-03 0.  1.
        -12    1    3    3    0    0  0.19129537431E+01 -0.70124959314E+01 -0.10485344026E+02  0.12758406270E+02  0.00000000000E+00 0.  1.
</event>
<event>
 7    1  0.5946946E-013  0.5052886E+02  0.7816164E-02  0.1300439E+00
        -11   -1    0    0    0    0  0.00000000000E+00  0.00000000000E+00  0.45593999997E+02  0.45594000000E+02  0.51100000000E-03 0.  1.
         11   -1    0    0    0    0 -0.00000000000E+00 -0.00000000000E+00 -0.45593999997E+02  0.45594000000E+02  0.51100000000E-03 0. -1.
    9900012    2    1    2    0    0  0.13606978038E+01 -0.26836580183E+02  0.30514130242E+02  0.50528859836E+02  0.29999999957E+02 0.  0.
         12    1    1    2    0    0 -0.13606978038E+01  0.26836580183E+02 -0.30514130242E+02  0.40659140164E+02  0.00000000000E+00 0. -1.
         11    1    3    3    0    0  0.22760457249E+01  0.34748671315E+01  0.97133819863E+01  0.10564320877E+02  0.51100000000E-03 0. -1.
        -11    1    3    3    0    0 -0.33705225238E+01 -0.30283206456E+02  0.21636650965E+02  0.37370813218E+02  0.51100000000E-03 0.  1.
        -12    1    3    3    0    0  0.24551746027E+01 -0.28240858420E-01 -0.83590270933E+00  0.25937257402E+01  0.00000000000E+00 0.  1.
</event>
<event>
 7    1  0.5946946E-013  0.5052886E+02  0.7816164E-02  0.1300439E+00
        -11   -1    0    0    0    0  0.00000000000E+00  0.00000000000E+00  0.45593999997E+02  0.45594000000E+02  0.51100000000E-03 0. -1.
         11   -1    0    0    0    0 -0.00000000000E+00 -0.00000000000E+00 -0.45593999997E+02  0.45594000000E+02  0.51100000000E-03 0.  1.
    9900012    2    1    2    0    0  0.38149563743E+02  0.13755686763E+02  0.29253784500E+01  0.50528856241E+02  0.29999989031E+02 0.  0.
         12    1    1    2    0    0 -0.38149563743E+02 -0.13755686763E+02 -0.29253784500E+01  0.40659143759E+02  0.00000000000E+00 0. -1.
         11    1    3    3    0    0  0.15839968492E+02 -0.24104524627E+01  0.10593384939E+02  0.19207672624E+02  0.51100000000E-03 0. -1.
        -11    1    3    3    0    0  0.53418771870E+01  0.38869343737E+01 -0.79982837585E+01  0.10373835070E+02  0.51100000000E-03 0.  1.
         12    1    3    3    0    0  0.16967718064E+02  0.12279204852E+02  0.33027726932E+00  0.20947348547E+02  0.00000000000E+00 0. -1.
</event>
<event>
 7    1  0.5946946E-013  0.5052884E+02  0.7816164E-02  0.1300439E+00
        -11   -1    0    0    0    0  0.00000000000E+00  0.00000000000E+00  0.45593999997E+02  0.45594000000E+02  0.51100000000E-03 0. -1.
         11   -1    0    0    0    0 -0.00000000000E+00 -0.00000000000E+00 -0.45593999997E+02  0.45594000000E+02  0.51100000000E-03 0.  1.
    9900012    2    1    2    0    0 -0.30137183686E+02  0.25774021193E+02 -0.89786947082E+01  0.50528843988E+02  0.29999951785E+02 0.  0.
         12    1    1    2    0    0  0.30137183686E+02 -0.25774021193E+02  0.89786947082E+01  0.40659156012E+02  0.00000000000E+00 0. -1.
         11    1    3    3    0    0 -0.25184881185E+02  0.12701292192E+02  0.15032575015E+01  0.28246430696E+02  0.51100000000E-03 0. -1.
        -11    1    3    3    0    0 -0.33460986398E+00  0.12338641652E+02 -0.12148336622E+02  0.17318664051E+02  0.51100000000E-03 0.  1.
        -12    1    3    3    0    0 -0.46176926361E+01  0.73408734989E+00  0.16663844123E+01  0.49637492411E+01  0.00000000000E+00 0.  1.
</event>
<event>
 7    1  0.6700489E-013  0.5052883E+02  0.7816164E-02  0.1300439E+00
        -11   -1    0    0    0    0  0.00000000000E+00  0.00000000000E+00  0.45593999997E+02  0.45594000000E+02  0.51100000000E-03 0. -1.
         11   -1    0    0    0    0 -0.00000000000E+00 -0.00000000000E+00 -0.45593999997E+02  0.45594000000E+02  0.51100000000E-03 0.  1.
    9900012    2    1    2    0    0 -0.32546865460E+02  0.20567242238E+02  0.13071262581E+02  0.50528833628E+02  0.29999920296E+02 0.  0.
         12    1    1    2    0    0  0.32546865460E+02 -0.20567242238E+02 -0.13071262581E+02  0.40659166372E+02  0.00000000000E+00 0. -1.
         11    1    3    3    0    0 -0.32897392140E+00 -0.14017102833E+01 -0.52939080508E+01  0.54862080047E+01  0.51100000000E-03 0. -1.
        -11    1    3    3    0    0 -0.16106971176E+02  0.81079968151E+01  0.15141601581E+02  0.23546597026E+02  0.51100000000E-03 0.  1.
        -12    1    3    3    0    0 -0.16110920363E+02  0.13860955706E+02  0.32235690516E+01  0.21496028597E+02  0.00000000000E+00 0.  1.
</event>
<event>
 7    1  0.5946946E-013  0.5052886E+02  0.7816164E-02  0.1300439E+00
        -11   -1    0    0    0    0  0.00000000000E+00  0.00000000000E+00  0.45593999997E+02  0.45594000000E+02  0.51100000000E-03 0. -1.
         11   -1    0    0    0    0 -0.00000000000E+00 -0.00000000000E+00 -0.45593999997E+02  0.45594000000E+02  0.51100000000E-03 0.  1.
    9900012    2    1    2    0    0 -0.81039242128E+00 -0.34587893886E+01 -0.40503646435E+02  0.50528864071E+02  0.30000012831E+02 0.  0.
         12    1    1    2    0    0  0.81039242128E+00  0.34587893886E+01  0.40503646435E+02  0.40659135929E+02  0.00000000000E+00 0. -1.
         11    1    3    3    0    0 -0.95123647475E+01  0.65492733994E+01 -0.15615325301E+02  0.19422060902E+02  0.51100000000E-03 0.  1.
        -11    1    3    3    0    0  0.33794485077E+01 -0.10026474763E+02 -0.76258653328E+01  0.13042418898E+02  0.51100000000E-03 0. -1.
        -12    1    3    3    0    0  0.53225238186E+01  0.18411974486E-01 -0.17262455801E+02  0.18064384271E+02  0.00000000000E+00 0.  1.
</event>
<event>
 7    1  0.5946946E-013  0.5052884E+02  0.7816164E-02  0.1300439E+00
        -11   -1    0    0    0    0  0.00000000000E+00  0.00000000000E+00  0.45593999997E+02  0.45594000000E+02  0.51100000000E-03 0. -1.
         11   -1    0    0    0    0 -0.00000000000E+00 -0.00000000000E+00 -0.45593999997E+02  0.45594000000E+02  0.51100000000E-03 0.  1.
    9900012    2    1    2    0    0  0.20621588155E+02 -0.31476667383E+02 -0.15399248143E+02  0.50528839520E+02  0.29999938206E+02 0.  0.
         12    1    1    2    0    0 -0.20621588155E+02  0.31476667383E+02  0.15399248143E+02  0.40659160480E+02  0.00000000000E+00 0. -1.
         11    1    3    3    0    0  0.11056335767E+02  0.70214353914E+00 -0.75410260140E+01  0.13401590941E+02  0.51100000000E-03 0. -1.
        -11    1    3    3    0    0  0.10492806813E+02 -0.26041595035E+02 -0.11020158827E+02  0.30161358849E+02  0.51100000000E-03 0.  1.
         12    1    3    3    0    0 -0.92755442537E+00 -0.61372158868E+01  0.31619366981E+01  0.69658897304E+01  0.00000000000E+00 0. -1.
</event>
<event>
 7    1  0.5946946E-013  0.5052886E+02  0.7816164E-02  0.1300439E+00
        -11   -1    0    0    0    0  0.00000000000E+00  0.00000000000E+00  0.45593999997E+02  0.45594000000E+02  0.51100000000E-03 0. -1.
         11   -1    0    0    0    0 -0.00000000000E+00 -0.00000000000E+00 -0.45593999997E+02  0.45594000000E+02  0.51100000000E-03 0.  1.
    9900012    2    1    2    0    0  0.19548601927E+02  0.10387328688E+02 -0.34104564038E+02  0.50528859296E+02  0.29999998316E+02 0.  0.
         12    1    1    2    0    0 -0.19548601927E+02 -0.10387328688E+02  0.34104564038E+02  0.40659140704E+02  0.00000000000E+00 0. -1.
         11    1    3    3    0    0 -0.41558636392E+01  0.26700789091E+01 -0.10814708057E+02  0.11889425326E+02  0.51100000000E-03 0. -1.
        -11    1    3    3    0    0  0.16890670650E+02 -0.39234188073E+01 -0.13367325873E+02  0.21894596854E+02  0.51100000000E-03 0.  1.
         12    1    3    3    0    0  0.68137949167E+01  0.11640668586E+02 -0.99225301079E+01  0.16744837116E+02  0.00000000000E+00 0. -1.
</event>
<event>
 7    1  0.5946946E-013  0.5052888E+02  0.7816164E-02  0.1300439E+00
        -11   -1    0    0    0    0  0.00000000000E+00  0.00000000000E+00  0.45593999997E+02  0.45594000000E+02  0.51100000000E-03 0.  1.
         11   -1    0    0    0    0 -0.00000000000E+00 -0.00000000000E+00 -0.45593999997E+02  0.45594000000E+02  0.51100000000E-03 0. -1.
    9900012    2    1    2    0    0 -0.10599459796E+01  0.40569741812E+02  0.24771622391E+01  0.50528883323E+02  0.30000071349E+02 0.  0.
         12    1    1    2    0    0  0.10599459796E+01 -0.40569741812E+02 -0.24771622391E+01  0.40659116677E+02  0.00000000000E+00 0. -1.
         11    1    3    3    0    0  0.69992681413E+01  0.76349204719E+01 -0.23335600692E+01  0.10617309828E+02  0.51100000000E-03 0. -1.
        -11    1    3    3    0    0 -0.60630516044E+01  0.32805540379E+02 -0.13961605137E+01  0.33390318039E+02  0.51100000000E-03 0.  1.
        -12    1    3    3    0    0 -0.19961625164E+01  0.12928096108E+00  0.62068828219E+01  0.65212554561E+01  0.00000000000E+00 0.  1.
</event>
<event>
 7    1  0.5946946E-013  0.5052886E+02  0.7816164E-02  0.1300439E+00
        -11   -1    0    0    0    0  0.00000000000E+00  0.00000000000E+00  0.45593999997E+02  0.45594000000E+02  0.51100000000E-03 0.  1.
         11   -1    0    0    0    0 -0.00000000000E+00 -0.00000000000E+00 -0.45593999997E+02  0.45594000000E+02  0.51100000000E-03 0. -1.
    9900012    2    1    2    0    0 -0.62393663078E+01 -0.34733968354E+02 -0.20193744191E+02  0.50528861372E+02  0.30000004626E+02 0.  0.
         12    1    1    2    0    0  0.62393663078E+01  0.34733968354E+02  0.20193744191E+02  0.40659138628E+02  0.00000000000E+00 0. -1.
         11    1    3    3    0    0 -0.12391088506E+02 -0.17065009552E+01 -0.45824640216E+01  0.13321043377E+02  0.51100000000E-03 0. -1.
        -11    1    3    3    0    0  0.48019872140E+01 -0.20491411705E+02 -0.82358679462E+01  0.22600587513E+02  0.51100000000E-03 0.  1.
         12    1    3    3    0    0  0.13497349842E+01 -0.12536055694E+02 -0.73754122229E+01  0.14607230482E+02  0.00000000000E+00 0. -1.
</event>
<event>
 7    1  0.5946946E-013  0.5052889E+02  0.7816164E-02  0.1300439E+00
        -11   -1    0    0    0    0  0.00000000000E+00  0.00000000000E+00  0.45593999997E+02  0.45594000000E+02  0.51100000000E-03 0. -1.
         11   -1    0    0    0    0 -0.00000000000E+00 -0.00000000000E+00 -0.45593999997E+02  0.45594000000E+02  0.51100000000E-03 0.  1.
    9900012    2    1    2    0    0 -0.19944540185E+02  0.13114088937E+02 -0.32915033796E+02  0.50528887102E+02  0.30000082836E+02 0.  0.
         12    1    1    2    0    0  0.19944540185E+02 -0.13114088937E+02  0.32915033796E+02  0.40659112898E+02  0.00000000000E+00 0. -1.
         11    1    3    3    0    0  0.30034788227E+01  0.11483029117E+02 -0.11733787038E+02  0.16690194763E+02  0.51100000000E-03 0. -1.
        -11    1    3    3    0    0 -0.16783116792E+02  0.44635318853E+01 -0.82297881454E+01  0.19217844295E+02  0.51100000000E-03 0.  1.
         12    1    3    3    0    0 -0.61649022149E+01 -0.28324720651E+01 -0.12951458613E+02  0.14620848044E+02  0.00000000000E+00 0. -1.
</event>
<event>
 7    1  0.5946946E-013  0.5052885E+02  0.7816164E-02  0.1300439E+00
        -11   -1    0    0    0    0  0.00000000000E+00  0.00000000000E+00  0.45593999997E+02  0.45594000000E+02  0.51100000000E-03 0.  1.
         11   -1    0    0    0    0 -0.00000000000E+00 -0.00000000000E+00 -0.45593999997E+02  0.45594000000E+02  0.51100000000E-03 0. -1.
    9900012    2    1    2    0    0  0.35982765143E+02 -0.15363887359E+02 -0.11061545023E+02  0.50528853422E+02  0.29999980463E+02 0.  0.
         12    1    1    2    0    0 -0.35982765143E+02  0.15363887359E+02  0.11061545023E+02  0.40659146578E+02  0.00000000000E+00 0. -1.
         11    1    3    3    0    0  0.14004901278E+02 -0.82748896156E+00 -0.11347400620E+02  0.18043987888E+02  0.51100000000E-03 0. -1.
        -11    1    3    3    0    0  0.55097140273E+01 -0.15022343627E+02 -0.20632482817E+00  0.16002197565E+02  0.51100000000E-03 0.  1.
        -12    1    3    3    0    0  0.16468149838E+02  0.48594522918E+00  0.49218042518E+00  0.16482667970E+02  0.00000000000E+00 0.  1.
</event>
<event>
 7    1  0.5946946E-013  0.5052884E+02  0.7816164E-02  0.1300439E+00
        -11   -1    0    0    0    0  0.00000000000E+00  0.00000000000E+00  0.45593999997E+02  0.45594000000E+02  0.51100000000E-03 0. -1.
         11   -1    0    0    0    0 -0.00000000000E+00 -0.00000000000E+00 -0.45593999997E+02  0.45594000000E+02  0.51100000000E-03 0.  1.
    9900012    2    1    2    0    0  0.14577558334E+02  0.93782718108E+01 -0.36779202795E+02  0.50528844236E+02  0.29999952541E+02 0.  0.
         12    1    1    2    0    0 -0.14577558334E+02 -0.93782718108E+01  0.36779202795E+02  0.40659155764E+02  0.00000000000E+00 0. -1.
         11    1    3    3    0    0  0.17535660974E+02  0.22956232393E+01 -0.15629866746E+02  0.23602161482E+02  0.51100000000E-03 0. -1.
        -11    1    3    3    0    0 -0.19828788141E+01  0.22336729899E+01 -0.21741125920E+02  0.21945333444E+02  0.51100000000E-03 0.  1.
         12    1    3    3    0    0 -0.97522382607E+00  0.48489755816E+01  0.59178987107E+00  0.49813493105E+01  0.00000000000E+00 0. -1.
</event>
<event>
 7    1  0.5946946E-013  0.5052886E+02  0.7816164E-02  0.1300439E+00
        -11   -1    0    0    0    0  0.00000000000E+00  0.00000000000E+00  0.45593999997E+02  0.45594000000E+02  0.51100000000E-03 0.  1.
         11   -1    0    0    0    0 -0.00000000000E+00 -0.00000000000E+00 -0.45593999997E+02  0.45594000000E+02  0.51100000000E-03 0. -1.
    9900012    2    1    2    0    0 -0.16360574342E+02 -0.34168054504E+02  0.14766223729E+02  0.50528859519E+02  0.29999998995E+02 0.  0.
         12    1    1    2    0    0  0.16360574342E+02  0.34168054504E+02 -0.14766223729E+02  0.40659140481E+02  0.00000000000E+00 0. -1.
         11    1    3    3    0    0 -0.27021173219E+01 -0.72550536100E+00 -0.63043403702E+01  0.68972823499E+01  0.51100000000E-03 0. -1.
        -11    1    3    3    0    0 -0.16011408648E+02 -0.28936836426E+02  0.19019105820E+02  0.38150125763E+02  0.51100000000E-03 0.  1.
        -12    1    3    3    0    0  0.23529516278E+01 -0.45057127174E+01  0.20514582786E+01  0.54814514066E+01  0.00000000000E+00 0.  1.
</event>
<event>
 7    1  0.5946946E-013  0.5052888E+02  0.7816164E-02  0.1300439E+00
        -11   -1    0    0    0    0  0.00000000000E+00  0.00000000000E+00  0.45593999997E+02  0.45594000000E+02  0.51100000000E-03 0. -1.
         11   -1    0    0    0    0 -0.00000000000E+00 -0.00000000000E+00 -0.45593999997E+02  0.45594000000E+02  0.51100000000E-03 0.  1.
    9900012    2    1    2    0    0  0.27682188141E+02 -0.21886349536E+02 -0.20195261388E+02  0.50528875331E+02  0.30000047057E+02 0.  0.
         12    1    1    2    0    0 -0.27682188141E+02  0.21886349536E+02  0.20195261388E+02  0.40659124669E+02  0.00000000000E+00 0. -1.
         11    1    3    3    0    0  0.25950919865E+01 -0.81240659735E+01  0.38476694815E+01  0.93562551836E+01  0.51100000000E-03 0. -1.
        -11    1    3    3    0    0  0.20367585123E+02 -0.16993083589E+01 -0.15584421458E+02  0.25702147092E+02  0.51100000000E-03 0.  1.
        -12    1    3    3    0    0  0.47195110310E+01 -0.12062975203E+02 -0.84585094114E+01  0.15470473056E+02  0.00000000000E+00 0.  1.
</event>
<event>
 7    1  0.5946946E-013  0.5052886E+02  0.7816164E-02  0.1300439E+00
        -11   -1    0    0    0    0  0.00000000000E+00  0.00000000000E+00  0.45593999997E+02  0.45594000000E+02  0.51100000000E-03 0.  1.
         11   -1    0    0    0    0 -0.00000000000E+00 -0.00000000000E+00 -0.45593999997E+02  0.45594000000E+02  0.51100000000E-03 0. -1.
    9900012    2    1    2    0    0  0.23192460459E+02 -0.17656771575E+02  0.28346314535E+02  0.50528863852E+02  0.30000012164E+02 0.  0.
         12    1    1    2    0    0 -0.23192460459E+02  0.17656771575E+02 -0.28346314535E+02  0.40659136148E+02  0.00000000000E+00 0. -1.
         11    1    3    3    0    0 -0.10166508615E+01 -0.88441218179E+01 -0.27903509144E+01  0.93294227148E+01  0.51100000000E-03 0. -1.
        -11    1    3    3    0    0  0.18548612453E+02 -0.45692855010E+01  0.17840275454E+02  0.26138187054E+02  0.51100000000E-03 0.  1.
         12    1    3    3    0    0  0.56604988675E+01 -0.42433642556E+01  0.13296389995E+02  0.15061254083E+02  0.00000000000E+00 0. -1.
</event>
<event>
 7    1  0.5946946E-013  0.5052885E+02  0.7816164E-02  0.1300439E+00
        -11   -1    0    0    0    0  0.00000000000E+00  0.00000000000E+00  0.45593999997E+02  0.45594000000E+02  0.51100000000E-03 0. -1.
         11   -1    0    0    0    0 -0.00000000000E+00 -0.00000000000E+00 -0.45593999997E+02  0.45594000000E+02  0.51100000000E-03 0.  1.
    9900012    2    1    2    0    0  0.22138025212E+02  0.14137495545E+01 -0.34074554400E+02  0.50528854588E+02  0.29999984006E+02 0.  0.
         12    1    1    2    0    0 -0.22138025212E+02 -0.14137495545E+01  0.34074554400E+02  0.40659145412E+02  0.00000000000E+00 0. -1.
         11    1    3    3    0    0 -0.26115290961E+01 -0.75077372073E+01 -0.41247668228E+01  0.89554398997E+01  0.51100000000E-03 0. -1.
        -11    1    3    3    0    0  0.22432614337E+02  0.60989739800E+01 -0.18977481876E+02  0.30009406662E+02  0.51100000000E-03 0.  1.
         12    1    3    3    0    0  0.23169399714E+01  0.28225127818E+01 -0.10972305701E+02  0.11564008026E+02  0.00000000000E+00 0. -1.
</event>
<event>
 7    1  0.5946946E-013  0.5052886E+02  0.7816164E-02  0.1300439E+00
        -11   -1    0    0    0    0  0.00000000000E+00  0.00000000000E+00  0.45593999997E+02  0.45594000000E+02  0.51100000000E-03 0.  1.
         11   -1    0    0    0    0 -0.00000000000E+00 -0.00000000000E+00 -0.45593999997E+02  0.45594000000E+02  0.51100000000E-03 0. -1.
    9900012    2    1    2    0    0  0.58139820758E-01  0.13289384899E+02  0.38425963820E+02  0.50528858018E+02  0.29999994431E+02 0.  0.
         12    1    1    2    0    0 -0.58139820758E-01 -0.13289384899E+02 -0.38425963820E+02  0.40659141982E+02  0.00000000000E+00 0. -1.
         11    1    3    3    0    0  0.25727634969E+01  0.21056629133E+02  0.25205445605E+02  0.32944122858E+02  0.51100000000E-03 0. -1.
        -11    1    3    3    0    0  0.10479930017E+01 -0.75884666064E+01  0.10924036544E+02  0.13342326988E+02  0.51100000000E-03 0.  1.
        -12    1    3    3    0    0 -0.35626166779E+01 -0.17877762774E+00  0.22964816709E+01  0.42424081721E+01  0.00000000000E+00 0.  1.
</event>
<event>
 7    1  0.5946946E-013  0.5052886E+02  0.7816164E-02  0.1300439E+00
        -11   -1    0    0    0    0  0.00000000000E+00  0.00000000000E+00  0.45593999997E+02  0.45594000000E+02  0.51100000000E-03 0. -1.
         11   -1    0    0    0    0 -0.00000000000E+00 -0.00000000000E+00 -0.45593999997E+02  0.45594000000E+02  0.51100000000E-03 0.  1.
    9900012    2    1    2    0    0  0.23171272641E+02  0.26785971013E+02 -0.19969208607E+02  0.50528863127E+02  0.30000009960E+02 0.  0.
         12    1    1    2    0    0 -0.23171272641E+02 -0.26785971013E+02  0.19969208607E+02  0.40659136873E+02  0.00000000000E+00 0. -1.
         11    1    3    3    0    0 -0.17196881814E+01  0.18865838232E+02 -0.72462566805E+01  0.20282638284E+02  0.51100000000E-03 0. -1.
        -11    1    3    3    0    0  0.31907729303E+01  0.36694760326E+01 -0.45857809086E+01  0.66839713531E+01  0.51100000000E-03 0.  1.
         12    1    3    3    0    0  0.21700187892E+02  0.42506567483E+01 -0.81371710179E+01  0.23562253490E+02  0.00000000000E+00 0. -1.
</event>
<event>
 7    1  0.5946946E-013  0.5052886E+02  0.7816164E-02  0.1300439E+00
        -11   -1    0    0    0    0  0.00000000000E+00  0.00000000000E+00  0.45593999997E+02  0.45594000000E+02  0.51100000000E-03 0.  1.
         11   -1    0    0    0    0 -0.00000000000E+00 -0.00000000000E+00 -0.45593999997E+02  0.45594000000E+02  0.51100000000E-03 0. -1.
    9900012    2    1    2    0    0  0.12255096038E+02 -0.36012782850E+02  0.14354712434E+02  0.50528859864E+02  0.30000000044E+02 0.  0.
         12    1    1    2    0    0 -0.12255096038E+02  0.36012782850E+02 -0.14354712434E+02  0.40659140136E+02  0.00000000000E+00 0. -1.
         11    1    3    3    0    0  0.17563297718E+02 -0.16284528160E+02  0.77863363182E+01  0.25184962133E+02  0.51100000000E-03 0. -1.
        -11    1    3    3    0    0 -0.64383045193E+01 -0.11124494740E+02  0.97167288144E+01  0.16112757908E+02  0.51100000000E-03 0.  1.
        -12    1    3    3    0    0  0.11301028393E+01 -0.86037599508E+01 -0.31483526987E+01  0.92311398231E+01  0.00000000000E+00 0.  1.
</event>
<event>
 7    1  0.5946946E-013  0.5052885E+02  0.7816164E-02  0.1300439E+00
        -11   -1    0    0    0    0  0.00000000000E+00  0.00000000000E+00  0.45593999997E+02  0.45594000000E+02  0.51100000000E-03 0.  1.
         11   -1    0    0    0    0 -0.00000000000E+00 -0.00000000000E+00 -0.45593999997E+02  0.45594000000E+02  0.51100000000E-03 0. -1.
    9900012    2    1    2    0    0 -0.31455688526E+02  0.72307138101E+01 -0.24726969752E+02  0.50528848558E+02  0.29999965677E+02 0.  0.
         12    1    1    2    0    0  0.31455688526E+02 -0.72307138101E+01  0.24726969752E+02  0.40659151442E+02  0.00000000000E+00 0. -1.
         11    1    3    3    0    0 -0.14944591934E+02 -0.67259629713E+01 -0.75891744289E+01  0.18060314912E+02  0.51100000000E-03 0. -1.
        -11    1    3    3    0    0 -0.94117019299E+01  0.11177263131E+02 -0.10308867245E+01  0.14648347075E+02  0.51100000000E-03 0.  1.
        -12    1    3    3    0    0 -0.70993946627E+01  0.27794136501E+01 -0.16106908599E+02  0.17820186571E+02  0.00000000000E+00 0.  1.
</event>
<event>
 7    1  0.5946946E-013  0.5052887E+02  0.7816164E-02  0.1300439E+00
        -11   -1    0    0    0    0  0.00000000000E+00  0.00000000000E+00  0.45593999997E+02  0.45594000000E+02  0.51100000000E-03 0. -1.
         11   -1    0    0    0    0 -0.00000000000E+00 -0.00000000000E+00 -0.45593999997E+02  0.45594000000E+02  0.51100000000E-03 0.  1.
    9900012    2    1    2    0    0 -0.18616857089E+02  0.36146250114E+02 -0.16212292632E+00  0.50528867582E+02  0.30000023501E+02 0.  0.
         12    1    1    2    0    0  0.18616857089E+02 -0.36146250114E+02  0.16212292632E+00  0.40659132418E+02  0.00000000000E+00 0. -1.
         11    1    3    3    0    0 -0.11231140435E+02  0.30165093159E+02 -0.84253339587E+01  0.33272475311E+02  0.51100000000E-03 0.  1.
        -11    1    3    3    0    0  0.57602103022E+00 -0.34561791037E-01  0.71976865757E+01  0.72207816092E+01  0.51100000000E-03 0. -1.
         12    1    3    3    0    0 -0.79617376834E+01  0.60157187465E+01  0.10655244567E+01  0.10035610661E+02  0.00000000000E+00 0. -1.
</event>
<event>
 7    1  0.5946946E-013  0.5052899E+02  0.7816164E-02  0.1300438E+00
        -11   -1    0    0    0    0  0.00000000000E+00  0.00000000000E+00  0.45593999997E+02  0.45594000000E+02  0.51100000000E-03 0. -1.
         11   -1    0    0    0    0 -0.00000000000E+00 -0.00000000000E+00 -0.45593999997E+02  0.45594000000E+02  0.51100000000E-03 0.  1.
    9900012    2    1    2    0    0  0.18286334958E+01  0.24669391879E+02 -0.32268134313E+02  0.50528987614E+02  0.30000388350E+02 0.  0.
         12    1    1    2    0    0 -0.18286334958E+01 -0.24669391879E+02  0.32268134313E+02  0.40659012386E+02  0.00000000000E+00 0. -1.
         11    1    3    3    0    0 -0.75071058418E+01 -0.27193098452E+01 -0.14444677203E+02  0.16504544341E+02  0.51100000000E-03 0. -1.
        -11    1    3    3    0    0  0.54279090369E+01  0.18308365801E+02 -0.11875847979E+02  0.22487645948E+02  0.51100000000E-03 0.  1.
         12    1    3    3    0    0  0.39078303007E+01  0.90803359236E+01 -0.59476091309E+01  0.11536797325E+02  0.00000000000E+00 0. -1.
</event>
<event>
 7    1  0.5946946E-013  0.5052885E+02  0.7816164E-02  0.1300439E+00
        -11   -1    0    0    0    0  0.00000000000E+00  0.00000000000E+00  0.45593999997E+02  0.45594000000E+02  0.51100000000E-03 0.  1.
         11   -1    0    0    0    0 -0.00000000000E+00 -0.00000000000E+00 -0.45593999997E+02  0.45594000000E+02  0.51100000000E-03 0. -1.
    9900012    2    1    2    0    0 -0.12087014523E+02  0.34709453393E+02  0.17387486503E+02  0.50528846519E+02  0.29999959478E+02 0.  0.
         12    1    1    2    0    0  0.12087014523E+02 -0.34709453393E+02 -0.17387486503E+02  0.40659153481E+02  0.00000000000E+00 0. -1.
         11    1    3    3    0    0  0.12518769021E+01 -0.40839441756E+01 -0.15707220358E+01  0.45511497210E+01  0.51100000000E-03 0. -1.
        -11    1    3    3    0    0 -0.12128406995E+02  0.23530685663E+02  0.10437840193E+02  0.28455929649E+02  0.51100000000E-03 0.  1.
         12    1    3    3    0    0 -0.12104844303E+01  0.15262711906E+02  0.85203683458E+01  0.17521767149E+02  0.00000000000E+00 0. -1.
</event>
<event>
 7    1  0.5946946E-013  0.5052886E+02  0.7816164E-02  0.1300439E+00
        -11   -1    0    0    0    0  0.00000000000E+00  0.00000000000E+00  0.45593999997E+02  0.45594000000E+02  0.51100000000E-03 0. -1.
         11   -1    0    0    0    0 -0.00000000000E+00 -0.00000000000E+00 -0.45593999997E+02  0.45594000000E+02  0.51100000000E-03 0.  1.
    9900012    2    1    2    0    0 -0.39242732908E+02  0.85483096237E+01 -0.63324239106E+01  0.50528864789E+02  0.30000015013E+02 0.  0.
         12    1    1    2    0    0  0.39242732908E+02 -0.85483096237E+01  0.63324239106E+01  0.40659135211E+02  0.00000000000E+00 0. -1.
         11    1    3    3    0    0  0.77520773931E+00  0.60040823132E+01  0.33489964058E+01  0.69185062442E+01  0.51100000000E-03 0. -1.
        -11    1    3    3    0    0 -0.21826750314E+02  0.80283560599E+01 -0.77445055393E+01  0.24512015352E+02  0.51100000000E-03 0.  1.
         12    1    3    3    0    0 -0.18191190333E+02 -0.54841287495E+01 -0.19369147771E+01  0.19098343193E+02  0.00000000000E+00 0. -1.
</event>
<event>
 7    1  0.5946946E-013  0.5052886E+02  0.7816164E-02  0.1300439E+00
        -11   -1    0    0    0    0  0.00000000000E+00  0.00000000000E+00  0.45593999997E+02  0.45594000000E+02  0.51100000000E-03 0.  1.
         11   -1    0    0    0    0 -0.00000000000E+00 -0.00000000000E+00 -0.45593999997E+02  0.45594000000E+02  0.51100000000E-03 0. -1.
    9900012    2    1    2    0    0 -0.25616301012E+02  0.13018759938E+02  0.28765999844E+02  0.50528859147E+02  0.29999997864E+02 0.  0.
         12    1    1    2    0    0  0.25616301012E+02 -0.13018759938E+02 -0.28765999844E+02  0.40659140853E+02  0.00000000000E+00 0. -1.
         11    1    3    3    0    0  0.98091615846E+00 -0.25963684134E+01  0.82721376178E+01  0.87253416252E+01  0.51100000000E-03 0. -1.
        -11    1    3    3    0    0 -0.26165568822E+02  0.17646137313E+02  0.22622106025E+02  0.38830179437E+02  0.51100000000E-03 0.  1.
         12    1    3    3    0    0 -0.43164834864E+00 -0.20310089620E+01 -0.21282437985E+01  0.29733380848E+01  0.00000000000E+00 0. -1.
</event>
<event>
 7    1  0.5946946E-013  0.5052892E+02  0.7816164E-02  0.1300439E+00
        -11   -1    0    0    0    0  0.00000000000E+00  0.00000000000E+00  0.45593999997E+02  0.45594000000E+02  0.51100000000E-03 0. -1.
         11   -1    0    0    0    0 -0.00000000000E+00 -0.00000000000E+00 -0.45593999997E+02  0.45594000000E+02  0.51100000000E-03 0.  1.
    9900012    2    1    2    0    0  0.20513824356E+02 -0.16992614855E+02 -0.30717989284E+02  0.50528919648E+02  0.30000181763E+02 0.  0.
         12    1    1    2    0    0 -0.20513824356E+02  0.16992614855E+02  0.30717989284E+02  0.40659080352E+02  0.00000000000E+00 0. -1.
         11    1    3    3    0    0 -0.30017419531E+01  0.10634635372E+01  0.12586098502E+01  0.34242529790E+01  0.51100000000E-03 0. -1.
        -11    1    3    3    0    0  0.21338832127E+02 -0.19293997216E+02 -0.20416821046E+02  0.35276772345E+02  0.51100000000E-03 0.  1.
         12    1    3    3    0    0  0.21767341822E+01  0.12379188236E+01 -0.11559778088E+02  0.11827894325E+02  0.00000000000E+00 0. -1.
</event>
<event>
 7    1  0.5946946E-013  0.5052887E+02  0.7816164E-02  0.1300439E+00
        -11   -1    0    0    0    0  0.00000000000E+00  0.00000000000E+00  0.45593999997E+02  0.45594000000E+02  0.51100000000E-03 0.  1.
         11   -1    0    0    0    0 -0.00000000000E+00 -0.00000000000E+00 -0.45593999997E+02  0.45594000000E+02  0.51100000000E-03 0. -1.
    9900012    2    1    2    0    0 -0.24078343142E+02  0.23449029233E+02  0.22881029732E+02  0.50528866930E+02  0.30000021520E+02 0.  0.
         12    1    1    2    0    0  0.24078343142E+02 -0.23449029233E+02 -0.22881029732E+02  0.40659133070E+02  0.00000000000E+00 0. -1.
         11    1    3    3    0    0  0.18155825000E+01  0.48701552983E+00  0.32834748641E+01  0.37834813842E+01  0.51100000000E-03 0. -1.
        -11    1    3    3    0    0 -0.23684372400E+02  0.24610872020E+02  0.83461046064E+01  0.35161086160E+02  0.51100000000E-03 0.  1.
        -12    1    3    3    0    0 -0.22095532417E+01 -0.16488583169E+01  0.11251450261E+02  0.11584299386E+02  0.00000000000E+00 0.  1.
</event>
<event>
 7    1  0.5946946E-013  0.5052886E+02  0.7816164E-02  0.1300439E+00
        -11   -1    0    0    0    0  0.00000000000E+00  0.00000000000E+00  0.45593999997E+02  0.45594000000E+02  0.51100000000E-03 0.  1.
         11   -1    0    0    0    0 -0.00000000000E+00 -0.00000000000E+00 -0.45593999997E+02  0.45594000000E+02  0.51100000000E-03 0. -1.
    9900012    2    1    2    0    0  0.16618718989E+02 -0.16518205643E+02 -0.33228492643E+02  0.50528860045E+02  0.30000000594E+02 0.  0.
         12    1    1    2    0    0 -0.16618718989E+02  0.16518205643E+02  0.33228492643E+02  0.40659139955E+02  0.00000000000E+00 0. -1.
         11    1    3    3    0    0 -0.69764700537E+00  0.50572047113E+01 -0.15480282519E+01  0.53346436213E+01  0.51100000000E-03 0. -1.
        -11    1    3    3    0    0  0.17856069003E+02 -0.11777134588E+02 -0.26632341321E+02  0.34158771990E+02  0.51100000000E-03 0.  1.
         12    1    3    3    0    0 -0.53970300826E+00 -0.97982757663E+01 -0.50481230698E+01  0.11035444434E+02  0.00000000000E+00 0. -1.
</event>
<event>
 7    1  0.5946946E-013  0.5052886E+02  0.7816164E-02  0.1300439E+00
        -11   -1    0    0    0    0  0.00000000000E+00  0.00000000000E+00  0.45593999997E+02  0.45594000000E+02  0.51100000000E-03 0.  1.
         11   -1    0    0    0    0 -0.00000000000E+00 -0.00000000000E+00 -0.45593999997E+02  0.45594000000E+02  0.51100000000E-03 0. -1.
    9900012    2    1    2    0    0  0.91530542168E+01 -0.14221345264E+02  0.36974861150E+02  0.50528863023E+02  0.30000009645E+02 0.  0.
         12    1    1    2    0    0 -0.91530542168E+01  0.14221345264E+02 -0.36974861150E+02  0.40659136977E+02  0.00000000000E+00 0. -1.
         11    1    3    3    0    0  0.16000222377E+01  0.76279039246E+01  0.37696467058E+01  0.86576686233E+01  0.51100000000E-03 0. -1.
        -11    1    3    3    0    0  0.25236463512E+01 -0.24117142835E+01  0.12708720063E+02  0.13179405245E+02  0.51100000000E-03 0.  1.
         12    1    3    3    0    0  0.50293856279E+01 -0.19437534906E+02  0.20496494381E+02  0.28691789155E+02  0.00000000000E+00 0. -1.
</event>
<event>
 7    1  0.5946946E-013  0.5052885E+02  0.7816164E-02  0.1300439E+00
        -11   -1    0    0    0    0  0.00000000000E+00  0.00000000000E+00  0.45593999997E+02  0.45594000000E+02  0.51100000000E-03 0.  1.
         11   -1    0    0    0    0 -0.00000000000E+00 -0.00000000000E+00 -0.45593999997E+02  0.45594000000E+02  0.51100000000E-03 0. -1.
    9900012    2    1    2    0    0  0.31087638061E+02  0.12749947166E+02  0.22894632424E+02  0.50528848671E+02  0.29999966021E+02 0.  0.
         12    1    1    2    0    0 -0.31087638061E+02 -0.12749947166E+02 -0.22894632424E+02  0.40659151329E+02  0.00000000000E+00 0. -1.
         11    1    3    3    0    0 -0.49213849451E+00 -0.38146571178E+01  0.37910118764E+01  0.54005166913E+01  0.51100000000E-03 0. -1.
        -11    1    3    3    0    0  0.32175517698E+02  0.10805356651E+02  0.19803370836E+02  0.39296223333E+02  0.51100000000E-03 0.  1.
        -12    1    3    3    0    0 -0.59574114303E+00  0.57592476325E+01 -0.69975028845E+00  0.58321086468E+01  0.00000000000E+00 0.  1.
</event>
<event>
 7    1  0.5946946E-013  0.5052888E+02  0.7816164E-02  0.1300439E+00
        -11   -1    0    0    0    0  0.00000000000E+00  0.00000000000E+00  0.45593999997E+02  0.45594000000E+02  0.51100000000E-03 0.  1.
         11   -1    0    0    0    0 -0.00000000000E+00 -0.00000000000E+00 -0.45593999997E+02  0.45594000000E+02  0.51100000000E-03 0. -1.
    9900012    2    1    2    0    0 -0.25656935198E+02  0.10853924995E+02  0.29615509217E+02  0.50528875591E+02  0.30000047845E+02 0.  0.
         12    1    1    2    0    0  0.25656935198E+02 -0.10853924995E+02 -0.29615509217E+02  0.40659124409E+02  0.00000000000E+00 0. -1.
         11    1    3    3    0    0 -0.96602660627E+01 -0.65583742311E+01  0.21061200672E+02  0.24081262155E+02  0.51100000000E-03 0. -1.
        -11    1    3    3    0    0 -0.14532407195E+02  0.13095811573E+02  0.95697809827E+01  0.21777783357E+02  0.51100000000E-03 0.  1.
         12    1    3    3    0    0 -0.14642619407E+01  0.43164876533E+01 -0.10154724379E+01  0.46698300787E+01  0.00000000000E+00 0. -1.
</event>
<event>
 7    1  0.5946946E-013  0.5052886E+02  0.7816164E-02  0.1300439E+00
        -11   -1    0    0    0    0  0.00000000000E+00  0.00000000000E+00  0.45593999997E+02  0.45594000000E+02  0.51100000000E-03 0.  1.
         11   -1    0    0    0    0 -0.00000000000E+00 -0.00000000000E+00 -0.45593999997E+02  0.45594000000E+02  0.51100000000E-03 0. -1.
    9900012    2    1    2    0    0 -0.34575832873E+02 -0.16869446599E+02  0.13156726930E+02  0.50528856983E+02  0.29999991284E+02 0.  0.
         12    1    1    2    0    0  0.34575832873E+02  0.16869446599E+02 -0.13156726930E+02  0.40659143017E+02  0.00000000000E+00 0. -1.
         11    1    3    3    0    0 -0.14186543883E+02 -0.17537872536E+02  0.97893320179E+01  0.24589957748E+02  0.51100000000E-03 0. -1.
        -11    1    3    3    0    0 -0.22712697181E+02  0.11192253069E+01  0.12686043446E+01  0.22775614938E+02  0.51100000000E-03 0.  1.
         12    1    3    3    0    0  0.23234081917E+01 -0.45079936989E+00  0.20987905671E+01  0.31632842967E+01  0.00000000000E+00 0. -1.
</event>
<event>
 7    1  0.5946946E-013  0.5052893E+02  0.7816164E-02  0.1300439E+00
        -11   -1    0    0    0    0  0.00000000000E+00  0.00000000000E+00  0.45593999997E+02  0.45594000000E+02  0.51100000000E-03 0. -1.
         11   -1    0    0    0    0 -0.00000000000E+00 -0.00000000000E+00 -0.45593999997E+02  0.45594000000E+02  0.51100000000E-03 0.  1.
    9900012    2    1    2    0    0 -0.32300725801E+02  0.13704115077E+02  0.20543133910E+02  0.50528929572E+02  0.30000211925E+02 0.  0.
         12    1    1    2    0    0  0.32300725801E+02 -0.13704115077E+02 -0.20543133910E+02  0.40659070428E+02  0.00000000000E+00 0. -1.
         11    1    3    3    0    0 -0.25378138092E+02 -0.12916278832E+01  0.20451124044E+02  0.32618501967E+02  0.51100000000E-03 0. -1.
        -11    1    3    3    0    0 -0.51640167012E+01  0.35482576822E+01 -0.68344977609E+00  0.63027220252E+01  0.51100000000E-03 0.  1.
         12    1    3    3    0    0 -0.17585710071E+01  0.11447485278E+02  0.77545964155E+00  0.11607705580E+02  0.00000000000E+00 0. -1.
</event>
<event>
 7    1  0.5946946E-013  0.5052886E+02  0.7816164E-02  0.1300439E+00
        -11   -1    0    0    0    0  0.00000000000E+00  0.00000000000E+00  0.45593999997E+02  0.45594000000E+02  0.51100000000E-03 0.  1.
         11   -1    0    0    0    0 -0.00000000000E+00 -0.00000000000E+00 -0.45593999997E+02  0.45594000000E+02  0.51100000000E-03 0. -1.
    9900012    2    1    2    0    0  0.30556227610E+01 -0.28829708174E+01  0.40441525453E+02  0.50528864099E+02  0.30000012917E+02 0.  0.
         12    1    1    2    0    0 -0.30556227610E+01  0.28829708174E+01 -0.40441525453E+02  0.40659135901E+02  0.00000000000E+00 0. -1.
         11    1    3    3    0    0 -0.58405558095E+01  0.38052215299E+00  0.34346174418E-01  0.58530393125E+01  0.51100000000E-03 0. -1.
        -11    1    3    3    0    0  0.28681333043E+01 -0.68276144922E+01  0.35143552479E+02  0.35915341978E+02  0.51100000000E-03 0.  1.
         12    1    3    3    0    0  0.60280452663E+01  0.35641215218E+01  0.52636267999E+01  0.87604828088E+01  0.00000000000E+00 0. -1.
</event>
<event>
 7    1  0.5946946E-013  0.5052886E+02  0.7816164E-02  0.1300439E+00
        -11   -1    0    0    0    0  0.00000000000E+00  0.00000000000E+00  0.45593999997E+02  0.45594000000E+02  0.51100000000E-03 0.  1.
         11   -1    0    0    0    0 -0.00000000000E+00 -0.00000000000E+00 -0.45593999997E+02  0.45594000000E+02  0.51100000000E-03 0. -1.
    9900012    2    1    2    0    0  0.25220528526E+02  0.96312111769E+01  0.30402795509E+02  0.50528864955E+02  0.30000015516E+02 0.  0.
         12    1    1    2    0    0 -0.25220528526E+02 -0.96312111769E+01 -0.30402795509E+02  0.40659135045E+02  0.00000000000E+00 0. -1.
         11    1    3    3    0    0 -0.35154916586E+01 -0.57525527944E+01  0.50462158090E+01  0.84210949114E+01  0.51100000000E-03 0. -1.
        -11    1    3    3    0    0  0.13350443181E+02  0.32782326453E+01  0.77670409110E+01  0.15789492303E+02  0.51100000000E-03 0.  1.
         12    1    3    3    0    0  0.15385577004E+02  0.12105531326E+02  0.17589538789E+02  0.26318277741E+02  0.00000000000E+00 0. -1.
</event>
<event>
 7    1  0.5946946E-013  0.5052886E+02  0.7816164E-02  0.1300439E+00
        -11   -1    0    0    0    0  0.00000000000E+00  0.00000000000E+00  0.45593999997E+02  0.45594000000E+02  0.51100000000E-03 0.  1.
         11   -1    0    0    0    0 -0.00000000000E+00 -0.00000000000E+00 -0.45593999997E+02  0.45594000000E+02  0.51100000000E-03 0. -1.
    9900012    2    1    2    0    0  0.27091616643E+02 -0.23497237178E+02  0.19159581740E+02  0.50528863022E+02  0.30000009642E+02 0.  0.
         12    1    1    2    0    0 -0.27091616643E+02  0.23497237178E+02 -0.19159581740E+02  0.40659136978E+02  0.00000000000E+00 0. -1.
         11    1    3    3    0    0 -0.89418908508E+00 -0.15748135070E+02  0.59832022099E+01  0.16870152378E+02  0.51100000000E-03 0. -1.
        -11    1    3    3    0    0  0.11753202635E+02  0.72090291549E+00  0.13279984552E+01  0.11849938960E+02  0.51100000000E-03 0.  1.
         12    1    3    3    0    0  0.16232603093E+02 -0.84700050237E+01  0.11848381075E+02  0.21808771684E+02  0.00000000000E+00 0. -1.
</event>
<event>
 7    1  0.5946946E-013  0.5052886E+02  0.7816164E-02  0.1300439E+00
        -11   -1    0    0    0    0  0.00000000000E+00  0.00000000000E+00  0.45593999997E+02  0.45594000000E+02  0.51100000000E-03 0.  1.
         11   -1    0    0    0    0 -0.00000000000E+00 -0.00000000000E+00 -0.45593999997E+02  0.45594000000E+02  0.51100000000E-03 0. -1.
    9900012    2    1    2    0    0 -0.94872944221E+01 -0.41616509249E+01  0.39317144221E+02  0.50528856827E+02  0.29999990811E+02 0.  0.
         12    1    1    2    0    0  0.94872944221E+01  0.41616509249E+01 -0.39317144221E+02  0.40659143173E+02  0.00000000000E+00 0. -1.
         11    1    3    3    0    0  0.26035346714E+01 -0.54356198059E+01  0.10029449528E+01  0.61098489587E+01  0.51100000000E-03 0. -1.
        -11    1    3    3    0    0 -0.12506818060E+02  0.53336225510E+01  0.13113404985E+02  0.18889929012E+02  0.51100000000E-03 0.  1.
        -12    1    3    3    0    0  0.41598896668E+00 -0.40596536700E+01  0.25200794284E+02  0.25529078857E+02  0.00000000000E+00 0.  1.
</event>
<event>
 7    1  0.5946946E-013  0.5052885E+02  0.7816164E-02  0.1300439E+00
        -11   -1    0    0    0    0  0.00000000000E+00  0.00000000000E+00  0.45593999997E+02  0.45594000000E+02  0.51100000000E-03 0. -1.
         11   -1    0    0    0    0 -0.00000000000E+00 -0.00000000000E+00 -0.45593999997E+02  0.45594000000E+02  0.51100000000E-03 0.  1.
    9900012    2    1    2    0    0  0.23479535576E+02  0.25687793070E+02 -0.21024155177E+02  0.50528850912E+02  0.29999972833E+02 0.  0.
         12    1    1    2    0    0 -0.23479535576E+02 -0.25687793070E+02  0.21024155177E+02  0.40659149088E+02  0.00000000000E+00 0. -1.
         11    1    3    3    0    0  0.10906011202E+02  0.12811826472E+02  0.24377579572E+01  0.17000783570E+02  0.51100000000E-03 0. -1.
        -11    1    3    3    0    0  0.12123641072E+02  0.55640933806E+01 -0.22475865888E+02  0.26136303405E+02  0.51100000000E-03 0.  1.
        -12    1    3    3    0    0  0.44988330173E+00  0.73118732176E+01 -0.98604724595E+00  0.73917639374E+01  0.00000000000E+00 0.  1.
</event>
<event>
 7    1  0.5946946E-013  0.5052886E+02  0.7816164E-02  0.1300439E+00
        -11   -1    0    0    0    0  0.00000000000E+00  0.00000000000E+00  0.45593999997E+02  0.45594000000E+02  0.51100000000E-03 0. -1.
         11   -1    0    0    0    0 -0.00000000000E+00 -0.00000000000E+00 -0.45593999997E+02  0.45594000000E+02  0.51100000000E-03 0.  1.
    9900012    2    1    2    0    0  0.52984251245E+01 -0.20331186303E+02 -0.34809985610E+02  0.50528861502E+02  0.30000005020E+02 0.  0.
         12    1    1    2    0    0 -0.52984251245E+01  0.20331186303E+02  0.34809985610E+02  0.40659138498E+02  0.00000000000E+00 0. -1.
         11    1    3    3    0    0 -0.49814818485E+01 -0.12570594766E+02 -0.23423015035E+02  0.27045751011E+02  0.51100000000E-03 0. -1.
        -11    1    3    3    0    0  0.13505616262E+02 -0.19617655318E+01 -0.93456266545E+01  0.16540584405E+02  0.51100000000E-03 0.  1.
         12    1    3    3    0    0 -0.32257092893E+01 -0.57988260043E+01 -0.20413439208E+01  0.69425260857E+01  0.00000000000E+00 0. -1.
</event>
<event>
 7    1  0.5946946E-013  0.5052887E+02  0.7816164E-02  0.1300439E+00
        -11   -1    0    0    0    0  0.00000000000E+00  0.00000000000E+00  0.45593999997E+02  0.45594000000E+02  0.51100000000E-03 0.  1.
         11   -1    0    0    0    0 -0.00000000000E+00 -0.00000000000E+00 -0.45593999997E+02  0.45594000000E+02  0.51100000000E-03 0. -1.
    9900012    2    1    2    0    0  0.46012802828E+00 -0.39034346614E+02  0.11369841489E+02  0.50528865370E+02  0.30000016779E+02 0.  0.
         12    1    1    2    0    0 -0.46012802828E+00  0.39034346614E+02 -0.11369841489E+02  0.40659134630E+02  0.00000000000E+00 0. -1.
         11    1    3    3    0    0 -0.14065482255E+02 -0.21666637527E+02  0.17208019440E+01  0.25889034984E+02  0.51100000000E-03 0. -1.
        -11    1    3    3    0    0  0.38892656423E+01 -0.53768079104E+01  0.25394319020E+01  0.71052913514E+01  0.51100000000E-03 0.  1.
         12    1    3    3    0    0  0.10636344641E+02 -0.11990901176E+02  0.71096076428E+01  0.17534539035E+02  0.00000000000E+00 0. -1.
</event>
<event>
 7    1  0.5946946E-013  0.5052885E+02  0.7816164E-02  0.1300439E+00
        -11   -1    0    0    0    0  0.00000000000E+00  0.00000000000E+00  0.45593999997E+02  0.45594000000E+02  0.51100000000E-03 0.  1.
         11   -1    0    0    0    0 -0.00000000000E+00 -0.00000000000E+00 -0.45593999997E+02  0.45594000000E+02  0.51100000000E-03 0. -1.
    9900012    2    1    2    0    0 -0.39722536754E+02 -0.56800747972E+01 -0.65591994493E+01  0.50528852527E+02  0.29999977740E+02 0.  0.
         12    1    1    2    0    0  0.39722536754E+02  0.56800747972E+01  0.65591994493E+01  0.40659147473E+02  0.00000000000E+00 0. -1.
         11    1    3    3    0    0 -0.11463329868E+02  0.30708638924E+01 -0.63490540216E+01  0.13459146479E+02  0.51100000000E-03 0. -1.
        -11    1    3    3    0    0 -0.18019271104E+02 -0.14981147316E+02  0.50638768471E+01  0.23974397907E+02  0.51100000000E-03 0.  1.
        -12    1    3    3    0    0 -0.10239935782E+02  0.62302086267E+01 -0.52740222748E+01  0.13095308141E+02  0.00000000000E+00 0.  1.
</event>
<event>
 7    1  0.5946946E-013  0.5052890E+02  0.7816164E-02  0.1300439E+00
        -11   -1    0    0    0    0  0.00000000000E+00  0.00000000000E+00  0.45593999997E+02  0.45594000000E+02  0.51100000000E-03 0. -1.
         11   -1    0    0    0    0 -0.00000000000E+00 -0.00000000000E+00 -0.45593999997E+02  0.45594000000E+02  0.51100000000E-03 0.  1.
    9900012    2    1    2    0    0 -0.20218003828E+02 -0.27504196272E+02  0.22088775747E+02  0.50528898861E+02  0.30000118579E+02 0.  0.
         12    1    1    2    0    0  0.20218003828E+02  0.27504196272E+02 -0.22088775747E+02  0.40659101139E+02  0.00000000000E+00 0. -1.
         11    1    3    3    0    0 -0.72317289919E+00 -0.69099902548E+01 -0.36677740886E+01  0.78564312120E+01  0.51100000000E-03 0. -1.
        -11    1    3    3    0    0 -0.20643616209E+02 -0.23208551392E+02  0.24461946101E+02  0.39537103526E+02  0.51100000000E-03 0.  1.
        -12    1    3    3    0    0  0.11487852800E+01  0.26143453745E+01  0.12946037344E+01  0.31353641233E+01  0.00000000000E+00 0.  1.
</event>
<event>
 7    1  0.5946946E-013  0.5052886E+02  0.7816164E-02  0.1300439E+00
        -11   -1    0    0    0    0  0.00000000000E+00  0.00000000000E+00  0.45593999997E+02  0.45594000000E+02  0.51100000000E-03 0.  1.
         11   -1    0    0    0    0 -0.00000000000E+00 -0.00000000000E+00 -0.45593999997E+02  0.45594000000E+02  0.51100000000E-03 0. -1.
    9900012    2    1    2    0    0  0.11360378219E+02 -0.14272761202E+02  0.36337250267E+02  0.50528860036E+02  0.30000000565E+02 0.  0.
         12    1    1    2    0    0 -0.11360378219E+02  0.14272761202E+02 -0.36337250267E+02  0.40659139964E+02  0.00000000000E+00 0. -1.
         11    1    3    3    0    0  0.18612048353E+02 -0.51151769467E+01  0.10504007765E+02  0.21975157757E+02  0.51100000000E-03 0. -1.
        -11    1    3    3    0    0 -0.66730813243E+00 -0.15014846119E+01  0.69326319418E+01  0.71246854025E+01  0.51100000000E-03 0.  1.
         12    1    3    3    0    0 -0.65843620007E+01 -0.76560996432E+01  0.18900610561E+02  0.21429016876E+02  0.00000000000E+00 0. -1.
</event>
<event>
 7    1  0.5946946E-013  0.5052886E+02  0.7816164E-02  0.1300439E+00
        -11   -1    0    0    0    0  0.00000000000E+00  0.00000000000E+00  0.45593999997E+02  0.45594000000E+02  0.51100000000E-03 0.  1.
         11   -1    0    0    0    0 -0.00000000000E+00 -0.00000000000E+00 -0.45593999997E+02  0.45594000000E+02  0.51100000000E-03 0. -1.
    9900012    2    1    2    0    0 -0.20101210426E+02 -0.43066714885E+01  0.35079335370E+02  0.50528857733E+02  0.29999993565E+02 0.  0.
         12    1    1    2    0    0  0.20101210426E+02  0.43066714885E+01 -0.35079335370E+02  0.40659142267E+02  0.00000000000E+00 0. -1.
         11    1    3    3    0    0  0.57299954498E+01 -0.38326630711E+01  0.18060664593E+01  0.71262914892E+01  0.51100000000E-03 0. -1.
        -11    1    3    3    0    0 -0.15092946427E+02 -0.73788089948E+00  0.27060557330E+02  0.30993793949E+02  0.51100000000E-03 0.  1.
        -12    1    3    3    0    0 -0.10738259449E+02  0.26387248207E+00  0.62127115805E+01  0.12408772295E+02  0.00000000000E+00 0.  1.
</event>
<event>
 7    1  0.5946946E-013  0.5052884E+02  0.7816164E-02  0.1300439E+00
        -11   -1    0    0    0    0  0.00000000000E+00  0.00000000000E+00  0.45593999997E+02  0.45594000000E+02  0.51100000000E-03 0. -1.
         11   -1    0    0    0    0 -0.00000000000E+00 -0.00000000000E+00 -0.45593999997E+02  0.45594000000E+02  0.51100000000E-03 0.  1.
    9900012    2    1    2    0    0 -0.38566837358E+02  0.12010442745E+02  0.46384850609E+01  0.50528840855E+02  0.29999942262E+02 0.  0.
         12    1    1    2    0    0  0.38566837358E+02 -0.12010442745E+02 -0.46384850609E+01  0.40659159145E+02  0.00000000000E+00 0. -1.
         11    1    3    3    0    0 -0.14850796427E+01  0.71798494994E+01 -0.14056597863E+01  0.74653586702E+01  0.51100000000E-03 0. -1.
        -11    1    3    3    0    0 -0.18647890455E+02 -0.12434278934E+01  0.12642489029E+02  0.22563742164E+02  0.51100000000E-03 0.  1.
        -12    1    3    3    0    0 -0.18433867261E+02  0.60740211390E+01 -0.65983441813E+01  0.20499740021E+02  0.00000000000E+00 0.  1.
</event>
<event>
 7    1  0.5946946E-013  0.5052886E+02  0.7816164E-02  0.1300439E+00
        -11   -1    0    0    0    0  0.00000000000E+00  0.00000000000E+00  0.45593999997E+02  0.45594000000E+02  0.51100000000E-03 0.  1.
         11   -1    0    0    0    0 -0.00000000000E+00 -0.00000000000E+00 -0.45593999997E+02  0.45594000000E+02  0.51100000000E-03 0. -1.
    9900012    2    1    2    0    0  0.28347719556E+02  0.36652840613E+01  0.28916047728E+02  0.50528864157E+02  0.30000013092E+02 0.  0.
         12    1    1    2    0    0 -0.28347719556E+02 -0.36652840613E+01 -0.28916047728E+02  0.40659135843E+02  0.00000000000E+00 0. -1.
         11    1    3    3    0    0  0.64494137116E+01 -0.84802491812E+01  0.67644800521E+01  0.12620132885E+02  0.51100000000E-03 0. -1.
        -11    1    3    3    0    0  0.24922021905E+02  0.11849223115E+02  0.20926756445E+02  0.34632938077E+02  0.51100000000E-03 0.  1.
        -12    1    3    3    0    0 -0.30237160608E+01  0.29631012741E+00  0.12248112308E+01  0.32757931954E+01  0.00000000000E+00 0.  1.
</event>
<event>
 7    1  0.5946946E-013  0.5052886E+02  0.7816164E-02  0.1300439E+00
        -11   -1    0    0    0    0  0.00000000000E+00  0.00000000000E+00  0.45593999997E+02  0.45594000000E+02  0.51100000000E-03 0. -1.
         11   -1    0    0    0    0 -0.00000000000E+00 -0.00000000000E+00 -0.45593999997E+02  0.45594000000E+02  0.51100000000E-03 0.  1.
    9900012    2    1    2    0    0  0.25474041927E+02 -0.29539571097E+02 -0.11473994575E+02  0.50528860508E+02  0.30000002000E+02 0.  0.
         12    1    1    2    0    0 -0.25474041927E+02  0.29539571097E+02  0.11473994575E+02  0.40659139492E+02  0.00000000000E+00 0. -1.
         11    1    3    3    0    0  0.50785249260E+01 -0.10551312571E+02  0.59110309014E+01  0.13117236713E+02  0.51100000000E-03 0. -1.
        -11    1    3    3    0    0  0.19261006543E+02 -0.67299397779E+01 -0.79331332842E+01  0.21890935714E+02  0.51100000000E-03 0.  1.
        -12    1    3    3    0    0  0.11345104582E+01 -0.12258318748E+02 -0.94518921917E+01  0.15520688081E+02  0.00000000000E+00 0.  1.
</event>
<event>
 7    1  0.5946946E-013  0.5052886E+02  0.7816164E-02  0.1300439E+00
        -11   -1    0    0    0    0  0.00000000000E+00  0.00000000000E+00  0.45593999997E+02  0.45594000000E+02  0.51100000000E-03 0.  1.
         11   -1    0    0    0    0 -0.00000000000E+00 -0.00000000000E+00 -0.45593999997E+02  0.45594000000E+02  0.51100000000E-03 0. -1.
    9900012    2    1    2    0    0  0.80144540439E+01  0.39652611198E+02  0.40748585175E+01  0.50528861785E+02  0.30000005882E+02 0.  0.
         12    1    1    2    0    0 -0.80144540439E+01 -0.39652611198E+02 -0.40748585175E+01  0.40659138215E+02  0.00000000000E+00 0. -1.
         11    1    3    3    0    0 -0.45893049784E+01  0.29948938202E+01 -0.36629855287E+01  0.65915531117E+01  0.51100000000E-03 0. -1.
        -11    1    3    3    0    0  0.94047090385E+01  0.38449634305E+02  0.70100738920E+01  0.40199055543E+02  0.51100000000E-03 0.  1.
        -12    1    3    3    0    0  0.31990499838E+01 -0.17919169273E+01  0.72777015428E+00  0.37382531309E+01  0.00000000000E+00 0.  1.
</event>
<event>
 7    1  0.5946946E-013  0.5052888E+02  0.7816164E-02  0.1300439E+00
        -11   -1    0    0    0    0  0.00000000000E+00  0.00000000000E+00  0.45593999997E+02  0.45594000000E+02  0.51100000000E-03 0.  1.
         11   -1    0    0    0    0 -0.00000000000E+00 -0.00000000000E+00 -0.45593999997E+02  0.45594000000E+02  0.51100000000E-03 0. -1.
    9900012    2    1    2    0    0  0.27784983344E+02  0.24815172201E+02  0.16290067543E+02  0.50528875916E+02  0.30000048833E+02 0.  0.
         12    1    1    2    0    0 -0.27784983344E+02 -0.24815172201E+02 -0.16290067543E+02  0.40659124084E+02  0.00000000000E+00 0. -1.
         11    1    3    3    0    0  0.18265738997E+02  0.21238512602E+02  0.16674061340E+02  0.32599631294E+02  0.51100000000E-03 0.  1.
        -11    1    3    3    0    0 -0.38613701663E+01  0.15958968276E+01 -0.12892596682E+01  0.43725572608E+01  0.51100000000E-03 0. -1.
        -12    1    3    3    0    0  0.13380614513E+02  0.19807627709E+01  0.90526587077E+00  0.13556687361E+02  0.00000000000E+00 0.  1.
</event>
<event>
 7    1  0.5946946E-013  0.5052891E+02  0.7816164E-02  0.1300439E+00
        -11   -1    0    0    0    0  0.00000000000E+00  0.00000000000E+00  0.45593999997E+02  0.45594000000E+02  0.51100000000E-03 0. -1.
         11   -1    0    0    0    0 -0.00000000000E+00 -0.00000000000E+00 -0.45593999997E+02  0.45594000000E+02  0.51100000000E-03 0.  1.
    9900012    2    1    2    0    0  0.29877965058E+01 -0.40052671990E+02  0.63260172622E+01  0.50528905618E+02  0.30000139118E+02 0.  0.
         12    1    1    2    0    0 -0.29877965058E+01  0.40052671990E+02 -0.63260172622E+01  0.40659094382E+02  0.00000000000E+00 0. -1.
         11    1    3    3    0    0  0.46830736814E+01 -0.12768035240E+02  0.76447538994E+01  0.15601159106E+02  0.51100000000E-03 0. -1.
        -11    1    3    3    0    0  0.32498124291E+01  0.75165164924E+00 -0.52178494417E+01  0.61929164441E+01  0.51100000000E-03 0.  1.
        -12    1    3    3    0    0 -0.49450896047E+01 -0.28036288400E+02  0.38991128045E+01  0.28734830069E+02  0.00000000000E+00 0.  1.
</event>
<event>
 7    1  0.5946946E-013  0.5052886E+02  0.7816164E-02  0.1300439E+00
        -11   -1    0    0    0    0  0.00000000000E+00  0.00000000000E+00  0.45593999997E+02  0.45594000000E+02  0.51100000000E-03 0. -1.
         11   -1    0    0    0    0 -0.00000000000E+00 -0.00000000000E+00 -0.45593999997E+02  0.45594000000E+02  0.51100000000E-03 0.  1.
    9900012    2    1    2    0    0 -0.26240291833E+02  0.25108335586E+02 -0.18280710761E+02  0.50528858134E+02  0.29999994783E+02 0.  0.
         12    1    1    2    0    0  0.26240291833E+02 -0.25108335586E+02  0.18280710761E+02  0.40659141866E+02  0.00000000000E+00 0. -1.
         11    1    3    3    0    0 -0.11126251558E+02  0.61142576515E+01 -0.18135204046E+02  0.22137372166E+02  0.51100000000E-03 0. -1.
        -11    1    3    3    0    0 -0.17125740436E+02  0.17715276053E+02  0.25754119218E+01  0.24774073907E+02  0.51100000000E-03 0.  1.
        -12    1    3    3    0    0  0.20117001612E+01  0.12788018810E+01 -0.27209186364E+01  0.36174120604E+01  0.00000000000E+00 0.  1.
</event>
<event>
 7    1  0.5946946E-013  0.5052885E+02  0.7816164E-02  0.1300439E+00
        -11   -1    0    0    0    0  0.00000000000E+00  0.00000000000E+00  0.45593999997E+02  0.45594000000E+02  0.51100000000E-03 0. -1.
         11   -1    0    0    0    0 -0.00000000000E+00 -0.00000000000E+00 -0.45593999997E+02  0.45594000000E+02  0.51100000000E-03 0.  1.
    9900012    2    1    2    0    0  0.18277969940E+02  0.30717711149E+02 -0.19377935746E+02  0.50528851496E+02  0.29999974606E+02 0.  0.
         12    1    1    2    0    0 -0.18277969940E+02 -0.30717711149E+02  0.19377935746E+02  0.40659148504E+02  0.00000000000E+00 0. -1.
         11    1    3    3    0    0  0.20260926332E+02  0.12829776442E+02 -0.18486519956E+01  0.24052563561E+02  0.51100000000E-03 0. -1.
        -11    1    3    3    0    0  0.20713243354E+01  0.70778792675E+00 -0.20323471812E+01  0.29869354827E+01  0.51100000000E-03 0.  1.
         12    1    3    3    0    0 -0.40542807279E+01  0.17180146780E+02 -0.15496936569E+02  0.23489352452E+02  0.00000000000E+00 0. -1.
</event>
<event>
 7    1  0.5946946E-013  0.5052886E+02  0.7816164E-02  0.1300439E+00
        -11   -1    0    0    0    0  0.00000000000E+00  0.00000000000E+00  0.45593999997E+02  0.45594000000E+02  0.51100000000E-03 0. -1.
         11   -1    0    0    0    0 -0.00000000000E+00 -0.00000000000E+00 -0.45593999997E+02  0.45594000000E+02  0.51100000000E-03 0.  1.
    9900012    2    1    2    0    0  0.20511541251E+02 -0.29044845617E+02 -0.19719006389E+02  0.50528860875E+02  0.30000003116E+02 0.  0.
         12    1    1    2    0    0 -0.20511541251E+02  0.29044845617E+02  0.19719006389E+02  0.40659139125E+02  0.00000000000E+00 0. -1.
         11    1    3    3    0    0  0.62891867930E+01 -0.27463291937E+02 -0.11588501272E+02  0.30464399494E+02  0.51100000000E-03 0. -1.
        -11    1    3    3    0    0  0.14303921219E+02 -0.47727953144E+01 -0.73649586729E+01  0.16781667196E+02  0.51100000000E-03 0.  1.
        -12    1    3    3    0    0 -0.81566761536E-01  0.31912416345E+01 -0.76554644447E+00  0.32827941856E+01  0.00000000000E+00 0.  1.
</event>
<event>
 7    1  0.5946946E-013  0.5052886E+02  0.7816164E-02  0.1300439E+00
        -11   -1    0    0    0    0  0.00000000000E+00  0.00000000000E+00  0.45593999997E+02  0.45594000000E+02  0.51100000000E-03 0. -1.
         11   -1    0    0    0    0 -0.00000000000E+00 -0.00000000000E+00 -0.45593999997E+02  0.45594000000E+02  0.51100000000E-03 0.  1.
    9900012    2    1    2    0    0  0.34187448791E+02  0.97272676105E+01 -0.19742450457E+02  0.50528859084E+02  0.29999997672E+02 0.  0.
         12    1    1    2    0    0 -0.34187448791E+02 -0.97272676105E+01  0.19742450457E+02  0.40659140916E+02  0.00000000000E+00 0. -1.
         11    1    3    3    0    0 -0.38314253056E+01 -0.32990536607E+01 -0.18890807705E+01  0.53974254369E+01  0.51100000000E-03 0. -1.
        -11    1    3    3    0    0  0.17002183137E+01  0.14910859109E+01 -0.39808442077E+01  0.45783403516E+01  0.51100000000E-03 0.  1.
         12    1    3    3    0    0  0.36318655783E+02  0.11535235360E+02 -0.13872525479E+02  0.40553093295E+02  0.00000000000E+00 0. -1.
</event>
<event>
 7    1  0.5946946E-013  0.5052886E+02  0.7816164E-02  0.1300439E+00
        -11   -1    0    0    0    0  0.00000000000E+00  0.00000000000E+00  0.45593999997E+02  0.45594000000E+02  0.51100000000E-03 0.  1.
         11   -1    0    0    0    0 -0.00000000000E+00 -0.00000000000E+00 -0.45593999997E+02  0.45594000000E+02  0.51100000000E-03 0. -1.
    9900012    2    1    2    0    0  0.23119198255E+02 -0.28167724965E+01  0.33327682084E+02  0.50528856768E+02  0.29999990632E+02 0.  0.
         12    1    1    2    0    0 -0.23119198255E+02  0.28167724965E+01 -0.33327682084E+02  0.40659143232E+02  0.00000000000E+00 0. -1.
         11    1    3    3    0    0  0.14470354185E+02  0.81277319528E+01  0.21130451741E+02  0.26869074565E+02  0.51100000000E-03 0. -1.
        -11    1    3    3    0    0 -0.28448660161E+00 -0.10824360697E+02  0.92822866423E+01  0.14262137382E+02  0.51100000000E-03 0.  1.
         12    1    3    3    0    0  0.89333306716E+01 -0.12014375213E+00  0.29149437008E+01  0.93976448213E+01  0.00000000000E+00 0. -1.
</event>
<event>
 7    1  0.5946946E-013  0.5052886E+02  0.7816164E-02  0.1300439E+00
        -11   -1    0    0    0    0  0.00000000000E+00  0.00000000000E+00  0.45593999997E+02  0.45594000000E+02  0.51100000000E-03 0.  1.
         11   -1    0    0    0    0 -0.00000000000E+00 -0.00000000000E+00 -0.45593999997E+02  0.45594000000E+02  0.51100000000E-03 0. -1.
    9900012    2    1    2    0    0 -0.28663112060E+02 -0.25729445662E+02  0.13022564910E+02  0.50528861250E+02  0.30000004256E+02 0.  0.
         12    1    1    2    0    0  0.28663112060E+02  0.25729445662E+02 -0.13022564910E+02  0.40659138750E+02  0.00000000000E+00 0. -1.
         11    1    3    3    0    0 -0.13662026276E+02 -0.14461659207E+02  0.10670730166E+01  0.19923081942E+02  0.51100000000E-03 0. -1.
        -11    1    3    3    0    0 -0.73393466424E+00 -0.11628343642E+02  0.11433884114E+02  0.16324544164E+02  0.51100000000E-03 0.  1.
        -12    1    3    3    0    0 -0.14267151120E+02  0.36055718787E+00  0.52160777919E+00  0.14281235144E+02  0.00000000000E+00 0.  1.
</event>
<event>
 7    1  0.5946946E-013  0.5052885E+02  0.7816164E-02  0.1300439E+00
        -11   -1    0    0    0    0  0.00000000000E+00  0.00000000000E+00  0.45593999997E+02  0.45594000000E+02  0.51100000000E-03 0. -1.
         11   -1    0    0    0    0 -0.00000000000E+00 -0.00000000000E+00 -0.45593999997E+02  0.45594000000E+02  0.51100000000E-03 0.  1.
    9900012    2    1    2    0    0  0.95663655415E+01  0.39202110989E+02 -0.49845506909E+01  0.50528848493E+02  0.29999965479E+02 0.  0.
         12    1    1    2    0    0 -0.95663655415E+01 -0.39202110989E+02  0.49845506909E+01  0.40659151507E+02  0.00000000000E+00 0. -1.
         11    1    3    3    0    0  0.82526995750E-01  0.34738235458E+01  0.31938409807E+01  0.47196272314E+01  0.51100000000E-03 0. -1.
        -11    1    3    3    0    0  0.13871848590E+02  0.37767053600E+02 -0.73793748254E+01  0.40905179305E+02  0.51100000000E-03 0.  1.
        -12    1    3    3    0    0 -0.43880100439E+01 -0.20387661567E+01 -0.79901684621E+00  0.49040419561E+01  0.00000000000E+00 0.  1.
</event>
<event>
 7    1  0.5946946E-013  0.5052885E+02  0.7816164E-02  0.1300439E+00
        -11   -1    0    0    0    0  0.00000000000E+00  0.00000000000E+00  0.45593999997E+02  0.45594000000E+02  0.51100000000E-03 0.  1.
         11   -1    0    0    0    0 -0.00000000000E+00 -0.00000000000E+00 -0.45593999997E+02  0.45594000000E+02  0.51100000000E-03 0. -1.
    9900012    2    1    2    0    0 -0.14661831882E+02 -0.15388344618E+02  0.34661154176E+02  0.50528854989E+02  0.29999985224E+02 0.  0.
         12    1    1    2    0    0  0.14661831882E+02  0.15388344618E+02 -0.34661154176E+02  0.40659145011E+02  0.00000000000E+00 0. -1.
         11    1    3    3    0    0 -0.16321635892E+02 -0.75107258251E+01  0.22983425978E+02  0.29172669925E+02  0.51100000000E-03 0.  1.
        -11    1    3    3    0    0  0.37112189542E+01  0.41144023412E+01  0.50748065910E+01  0.75136618868E+01  0.51100000000E-03 0. -1.
        -12    1    3    3    0    0 -0.20514149444E+01 -0.11992021135E+02  0.66029216068E+01  0.13842523177E+02  0.00000000000E+00 0.  1.
</event>
<event>
 7    1  0.5946946E-013  0.5052882E+02  0.7816164E-02  0.1300439E+00
        -11   -1    0    0    0    0  0.00000000000E+00  0.00000000000E+00  0.45593999997E+02  0.45594000000E+02  0.51100000000E-03 0. -1.
         11   -1    0    0    0    0 -0.00000000000E+00 -0.00000000000E+00 -0.45593999997E+02  0.45594000000E+02  0.51100000000E-03 0.  1.
    9900012    2    1    2    0    0 -0.76675384910E+01  0.37063514686E+02 -0.14855091149E+02  0.50528818990E+02  0.29999875801E+02 0.  0.
         12    1    1    2    0    0  0.76675384910E+01 -0.37063514686E+02  0.14855091149E+02  0.40659181010E+02  0.00000000000E+00 0. -1.
         11    1    3    3    0    0 -0.11408882422E+02  0.33353227950E+01 -0.24870017464E+01  0.12143811354E+02  0.51100000000E-03 0. -1.
        -11    1    3    3    0    0  0.69796252866E+01  0.15113829037E+02 -0.18219064254E+01  0.16747009900E+02  0.51100000000E-03 0.  1.
         12    1    3    3    0    0 -0.32382813555E+01  0.18614362854E+02 -0.10546182978E+02  0.21637997735E+02  0.00000000000E+00 0. -1.
</event>
<event>
 7    1  0.5946946E-013  0.5052885E+02  0.7816164E-02  0.1300439E+00
        -11   -1    0    0    0    0  0.00000000000E+00  0.00000000000E+00  0.45593999997E+02  0.45594000000E+02  0.51100000000E-03 0. -1.
         11   -1    0    0    0    0 -0.00000000000E+00 -0.00000000000E+00 -0.45593999997E+02  0.45594000000E+02  0.51100000000E-03 0.  1.
    9900012    2    1    2    0    0  0.12946892432E+02  0.19444108379E+02 -0.33278693825E+02  0.50528845594E+02  0.29999956668E+02 0.  0.
         12    1    1    2    0    0 -0.12946892432E+02 -0.19444108379E+02  0.33278693825E+02  0.40659154406E+02  0.00000000000E+00 0. -1.
         11    1    3    3    0    0 -0.14773065541E+01 -0.63680392295E+01 -0.79324458301E+01  0.10279010429E+02  0.51100000000E-03 0. -1.
        -11    1    3    3    0    0  0.15944582892E+02  0.22217865690E+02 -0.22611532516E+02  0.35484428732E+02  0.51100000000E-03 0.  1.
        -12    1    3    3    0    0 -0.15203839055E+01  0.35942819187E+01 -0.27347154785E+01  0.47654064338E+01  0.00000000000E+00 0.  1.
</event>
<event>
 7    1  0.5946946E-013  0.5052887E+02  0.7816164E-02  0.1300439E+00
        -11   -1    0    0    0    0  0.00000000000E+00  0.00000000000E+00  0.45593999997E+02  0.45594000000E+02  0.51100000000E-03 0.  1.
         11   -1    0    0    0    0 -0.00000000000E+00 -0.00000000000E+00 -0.45593999997E+02  0.45594000000E+02  0.51100000000E-03 0. -1.
    9900012    2    1    2    0    0 -0.27091875534E+02  0.68084461540E+00  0.30310589963E+02  0.50528866546E+02  0.30000020353E+02 0.  0.
         12    1    1    2    0    0  0.27091875534E+02 -0.68084461540E+00 -0.30310589963E+02  0.40659133454E+02  0.00000000000E+00 0. -1.
         11    1    3    3    0    0 -0.47829229222E+01 -0.25177738464E+01 -0.53820927449E+01  0.76277427459E+01  0.51100000000E-03 0. -1.
        -11    1    3    3    0    0 -0.21056712298E+02  0.27206199937E+01  0.35727739305E+02  0.41560296704E+02  0.51100000000E-03 0.  1.
        -12    1    3    3    0    0 -0.12522403133E+01  0.47799846803E+00 -0.35056597405E-01  0.13408270965E+01  0.00000000000E+00 0.  1.
</event>
<event>
 7    1  0.5946946E-013  0.5052887E+02  0.7816164E-02  0.1300439E+00
        -11   -1    0    0    0    0  0.00000000000E+00  0.00000000000E+00  0.45593999997E+02  0.45594000000E+02  0.51100000000E-03 0.  1.
         11   -1    0    0    0    0 -0.00000000000E+00 -0.00000000000E+00 -0.45593999997E+02  0.45594000000E+02  0.51100000000E-03 0. -1.
    9900012    2    1    2    0    0  0.91177894551E+01  0.10069761930E+02  0.38322717885E+02  0.50528869464E+02  0.30000029222E+02 0.  0.
         12    1    1    2    0    0 -0.91177894551E+01 -0.10069761930E+02 -0.38322717885E+02  0.40659130536E+02  0.00000000000E+00 0. -1.
         11    1    3    3    0    0 -0.92451798746E+01  0.48009743912E+01  0.14557112886E+02  0.17900621270E+02  0.51100000000E-03 0. -1.
        -11    1    3    3    0    0  0.11437708364E+02 -0.27062225665E+01  0.13494718802E+02  0.17895593005E+02  0.51100000000E-03 0.  1.
         12    1    3    3    0    0  0.69252609661E+01  0.79750101054E+01  0.10270886197E+02  0.14732655188E+02  0.00000000000E+00 0. -1.
</event>
<event>
 7    1  0.5946946E-013  0.5052887E+02  0.7816164E-02  0.1300439E+00
        -11   -1    0    0    0    0  0.00000000000E+00  0.00000000000E+00  0.45593999997E+02  0.45594000000E+02  0.51100000000E-03 0.  1.
         11   -1    0    0    0    0 -0.00000000000E+00 -0.00000000000E+00 -0.45593999997E+02  0.45594000000E+02  0.51100000000E-03 0. -1.
    9900012    2    1    2    0    0 -0.23842246538E+02  0.78805326990E+01  0.31978265412E+02  0.50528868499E+02  0.30000026291E+02 0.  0.
         12    1    1    2    0    0  0.23842246538E+02 -0.78805326990E+01 -0.31978265412E+02  0.40659131501E+02  0.00000000000E+00 0. -1.
         11    1    3    3    0    0  0.22347842661E+01  0.70203587180E+01  0.13996262727E+02  0.15816923463E+02  0.51100000000E-03 0. -1.
        -11    1    3    3    0    0 -0.21589144904E+02 -0.30748690326E+01  0.18665156164E+02  0.28704251465E+02  0.51100000000E-03 0.  1.
        -12    1    3    3    0    0 -0.44878859003E+01  0.39350430137E+01 -0.68315347923E+00  0.60076935715E+01  0.00000000000E+00 0.  1.
</event>
<event>
 7    1  0.5946946E-013  0.5052886E+02  0.7816164E-02  0.1300439E+00
        -11   -1    0    0    0    0  0.00000000000E+00  0.00000000000E+00  0.45593999997E+02  0.45594000000E+02  0.51100000000E-03 0.  1.
         11   -1    0    0    0    0 -0.00000000000E+00 -0.00000000000E+00 -0.45593999997E+02  0.45594000000E+02  0.51100000000E-03 0. -1.
    9900012    2    1    2    0    0  0.30735931135E+01 -0.29283943439E+02  0.28038711992E+02  0.50528859722E+02  0.29999999611E+02 0.  0.
         12    1    1    2    0    0 -0.30735931135E+01  0.29283943439E+02 -0.28038711992E+02  0.40659140278E+02  0.00000000000E+00 0. -1.
         11    1    3    3    0    0  0.11536112061E+02 -0.15457461349E+02  0.40608381615E+01  0.19710540319E+02  0.51100000000E-03 0. -1.
        -11    1    3    3    0    0 -0.44024381298E+01  0.16667618640E+00  0.84208611230E+01  0.95036911119E+01  0.51100000000E-03 0.  1.
         12    1    3    3    0    0 -0.40600808178E+01 -0.13993158276E+02  0.15557012708E+02  0.21314628291E+02  0.00000000000E+00 0. -1.
</event>
<event>
 7    1  0.5946946E-013  0.5052886E+02  0.7816164E-02  0.1300439E+00
        -11   -1    0    0    0    0  0.00000000000E+00  0.00000000000E+00  0.45593999997E+02  0.45594000000E+02  0.51100000000E-03 0. -1.
         11   -1    0    0    0    0 -0.00000000000E+00 -0.00000000000E+00 -0.45593999997E+02  0.45594000000E+02  0.51100000000E-03 0.  1.
    9900012    2    1    2    0    0 -0.94250818380E+00 -0.40534545287E+02  0.30377430390E+01  0.50528861223E+02  0.30000004174E+02 0.  0.
         12    1    1    2    0    0  0.94250818380E+00  0.40534545287E+02 -0.30377430390E+01  0.40659138777E+02  0.00000000000E+00 0. -1.
         11    1    3    3    0    0  0.38996908665E+01 -0.26822792033E+01 -0.48788913940E+00  0.47581768202E+01  0.51100000000E-03 0. -1.
        -11    1    3    3    0    0 -0.14454707456E+02 -0.15595884806E+02 -0.53893990251E-01  0.21264362096E+02  0.51100000000E-03 0.  1.
        -12    1    3    3    0    0  0.96125084057E+01 -0.22256381278E+02  0.35795261686E+01  0.24506322307E+02  0.00000000000E+00 0.  1.
</event>
<event>
 7    1  0.5946946E-013  0.5052886E+02  0.7816164E-02  0.1300439E+00
        -11   -1    0    0    0    0  0.00000000000E+00  0.00000000000E+00  0.45593999997E+02  0.45594000000E+02  0.51100000000E-03 0.  1.
         11   -1    0    0    0    0 -0.00000000000E+00 -0.00000000000E+00 -0.45593999997E+02  0.45594000000E+02  0.51100000000E-03 0. -1.
    9900012    2    1    2    0    0  0.19545064585E+02  0.16001254601E+02  0.31860884440E+02  0.50528860121E+02  0.30000000823E+02 0.  0.
         12    1    1    2    0    0 -0.19545064585E+02 -0.16001254601E+02 -0.31860884440E+02  0.40659139879E+02  0.00000000000E+00 0. -1.
         11    1    3    3    0    0  0.64957131158E+01  0.10847787009E+02  0.30991892354E+01  0.13018208250E+02  0.51100000000E-03 0. -1.
        -11    1    3    3    0    0  0.26258663131E+01  0.79225320414E+01  0.24554196561E+02  0.25933959529E+02  0.51100000000E-03 0.  1.
        -12    1    3    3    0    0  0.10423485157E+02 -0.27690644496E+01  0.42074986439E+01  0.11576692342E+02  0.00000000000E+00 0.  1.
</event>
<event>
 7    1  0.5946946E-013  0.5052886E+02  0.7816164E-02  0.1300439E+00
        -11   -1    0    0    0    0  0.00000000000E+00  0.00000000000E+00  0.45593999997E+02  0.45594000000E+02  0.51100000000E-03 0. -1.
         11   -1    0    0    0    0 -0.00000000000E+00 -0.00000000000E+00 -0.45593999997E+02  0.45594000000E+02  0.51100000000E-03 0.  1.
    9900012    2    1    2    0    0  0.22281078690E+02  0.73184082210E+01 -0.33213858882E+02  0.50528856030E+02  0.29999988390E+02 0.  0.
         12    1    1    2    0    0 -0.22281078690E+02 -0.73184082210E+01  0.33213858882E+02  0.40659143970E+02  0.00000000000E+00 0. -1.
         11    1    3    3    0    0 -0.28540298296E+01  0.28608829753E+01  0.22560483569E+01  0.46281629310E+01  0.51100000000E-03 0. -1.
        -11    1    3    3    0    0  0.23466537871E+02 -0.41920333411E+00 -0.25368701169E+02  0.34560456165E+02  0.51100000000E-03 0.  1.
        -12    1    3    3    0    0  0.16685706488E+01  0.48767285799E+01 -0.10101206070E+02  0.11340236934E+02  0.00000000000E+00 0.  1.
</event>
<event>
 7    1  0.5946946E-013  0.5052886E+02  0.7816164E-02  0.1300439E+00
        -11   -1    0    0    0    0  0.00000000000E+00  0.00000000000E+00  0.45593999997E+02  0.45594000000E+02  0.51100000000E-03 0. -1.
         11   -1    0    0    0    0 -0.00000000000E+00 -0.00000000000E+00 -0.45593999997E+02  0.45594000000E+02  0.51100000000E-03 0.  1.
    9900012    2    1    2    0    0 -0.26533304558E+02  0.20694014845E+02 -0.22823383087E+02  0.50528864290E+02  0.30000013495E+02 0.  0.
         12    1    1    2    0    0  0.26533304558E+02 -0.20694014845E+02  0.22823383087E+02  0.40659135710E+02  0.00000000000E+00 0. -1.
         11    1    3    3    0    0  0.51864547591E+01 -0.21558924914E+01 -0.13807766110E+01  0.57839199262E+01  0.51100000000E-03 0. -1.
        -11    1    3    3    0    0 -0.10634342263E+02  0.66419095162E+01 -0.51392685930E+01  0.13550508452E+02  0.51100000000E-03 0.  1.
         12    1    3    3    0    0 -0.21085417054E+02  0.16207997820E+02 -0.16303337883E+02  0.31194435911E+02  0.00000000000E+00 0. -1.
</event>
<event>
 7    1  0.5946946E-013  0.5052887E+02  0.7816164E-02  0.1300439E+00
        -11   -1    0    0    0    0  0.00000000000E+00  0.00000000000E+00  0.45593999997E+02  0.45594000000E+02  0.51100000000E-03 0. -1.
         11   -1    0    0    0    0 -0.00000000000E+00 -0.00000000000E+00 -0.45593999997E+02  0.45594000000E+02  0.51100000000E-03 0.  1.
    9900012    2    1    2    0    0  0.28590806263E+02  0.28904484735E+02 -0.51147341803E+00  0.50528867623E+02  0.30000023628E+02 0.  0.
         12    1    1    2    0    0 -0.28590806263E+02 -0.28904484735E+02  0.51147341803E+00  0.40659132377E+02  0.00000000000E+00 0. -1.
         11    1    3    3    0    0  0.93348622370E+01  0.13829693334E+02  0.51700556541E+01  0.17467957706E+02  0.51100000000E-03 0. -1.
        -11    1    3    3    0    0  0.21772054101E+02  0.75540555687E+01 -0.86183780547E+01  0.24604116239E+02  0.51100000000E-03 0.  1.
        -12    1    3    3    0    0 -0.25161100757E+01  0.75207358328E+01  0.29368489826E+01  0.84567936788E+01  0.00000000000E+00 0.  1.
</event>
<event>
 7    1  0.5946946E-013  0.5052886E+02  0.7816164E-02  0.1300439E+00
        -11   -1    0    0    0    0  0.00000000000E+00  0.00000000000E+00  0.45593999997E+02  0.45594000000E+02  0.51100000000E-03 0. -1.
         11   -1    0    0    0    0 -0.00000000000E+00 -0.00000000000E+00 -0.45593999997E+02  0.45594000000E+02  0.51100000000E-03 0.  1.
    9900012    2    1    2    0    0 -0.30710203241E+02  0.68610808412E+01 -0.25748297942E+02  0.50528857604E+02  0.29999993173E+02 0.  0.
         12    1    1    2    0    0  0.30710203241E+02 -0.68610808412E+01  0.25748297942E+02  0.40659142396E+02  0.00000000000E+00 0. -1.
         11    1    3    3    0    0  0.10372750884E+01 -0.11998793098E+00 -0.17831539475E+01  0.20663917765E+01  0.51100000000E-03 0. -1.
        -11    1    3    3    0    0 -0.29251595197E+02  0.15353791921E+02 -0.21380927817E+02  0.39351478022E+02  0.51100000000E-03 0.  1.
        -12    1    3    3    0    0 -0.24958831328E+01 -0.83727231489E+01 -0.25842161780E+01  0.91109878057E+01  0.00000000000E+00 0.  1.
</event>
<event>
 7    1  0.5946946E-013  0.5052887E+02  0.7816164E-02  0.1300439E+00
        -11   -1    0    0    0    0  0.00000000000E+00  0.00000000000E+00  0.45593999997E+02  0.45594000000E+02  0.51100000000E-03 0. -1.
         11   -1    0    0    0    0 -0.00000000000E+00 -0.00000000000E+00 -0.45593999997E+02  0.45594000000E+02  0.51100000000E-03 0.  1.
    9900012    2    1    2    0    0 -0.38378978540E+02  0.11483998920E+02  0.69524714729E+01  0.50528867145E+02  0.30000022174E+02 0.  0.
         12    1    1    2    0    0  0.38378978540E+02 -0.11483998920E+02 -0.69524714729E+01  0.40659132855E+02  0.00000000000E+00 0. -1.
         11    1    3    3    0    0 -0.92978106574E+01  0.59993739868E+01  0.37966268850E+01  0.11698553211E+02  0.51100000000E-03 0. -1.
        -11    1    3    3    0    0 -0.70776077603E+01 -0.57859571681E+01 -0.75822158352E+01  0.11876861083E+02  0.51100000000E-03 0.  1.
        -12    1    3    3    0    0 -0.22003560122E+02  0.11270582101E+02  0.10738060423E+02  0.26953452851E+02  0.00000000000E+00 0.  1.
</event>
<event>
 7    1  0.5946946E-013  0.5052882E+02  0.7816164E-02  0.1300439E+00
        -11   -1    0    0    0    0  0.00000000000E+00  0.00000000000E+00  0.45593999997E+02  0.45594000000E+02  0.51100000000E-03 0.  1.
         11   -1    0    0    0    0 -0.00000000000E+00 -0.00000000000E+00 -0.45593999997E+02  0.45594000000E+02  0.51100000000E-03 0. -1.
    9900012    2    1    2    0    0 -0.10291408623E+02  0.35031640868E+02  0.17889657250E+02  0.50528821579E+02  0.29999883672E+02 0.  0.
         12    1    1    2    0    0  0.10291408623E+02 -0.35031640868E+02 -0.17889657250E+02  0.40659178421E+02  0.00000000000E+00 0. -1.
         11    1    3    3    0    0  0.51278965676E+01  0.74305190716E+01  0.29344581694E+01  0.94931018056E+01  0.51100000000E-03 0. -1.
        -11    1    3    3    0    0 -0.11019538053E+02  0.14169689030E+02  0.19194428184E+02  0.26279961561E+02  0.51100000000E-03 0.  1.
        -12    1    3    3    0    0 -0.43997671378E+01  0.13431432767E+02 -0.42392291038E+01  0.14755758212E+02  0.00000000000E+00 0.  1.
</event>
<event>
 7    1  0.5946946E-013  0.5052885E+02  0.7816164E-02  0.1300439E+00
        -11   -1    0    0    0    0  0.00000000000E+00  0.00000000000E+00  0.45593999997E+02  0.45594000000E+02  0.51100000000E-03 0.  1.
         11   -1    0    0    0    0 -0.00000000000E+00 -0.00000000000E+00 -0.45593999997E+02  0.45594000000E+02  0.51100000000E-03 0. -1.
    9900012    2    1    2    0    0  0.13790033988E+02  0.23859021293E+02  0.29895633669E+02  0.50528845472E+02  0.29999956297E+02 0.  0.
         12    1    1    2    0    0 -0.13790033988E+02 -0.23859021293E+02 -0.29895633669E+02  0.40659154528E+02  0.00000000000E+00 0. -1.
         11    1    3    3    0    0  0.15723106672E+02 -0.10496506822E+00  0.79774181684E+01  0.17631401021E+02  0.51100000000E-03 0. -1.
        -11    1    3    3    0    0  0.10053461906E+01  0.15937810229E+02  0.14832791509E+02  0.21795325647E+02  0.51100000000E-03 0.  1.
         12    1    3    3    0    0 -0.29384188749E+01  0.80261761320E+01  0.70854239916E+01  0.11102118803E+02  0.00000000000E+00 0. -1.
</event>
<event>
 7    1  0.5946946E-013  0.5052886E+02  0.7816164E-02  0.1300439E+00
        -11   -1    0    0    0    0  0.00000000000E+00  0.00000000000E+00  0.45593999997E+02  0.45594000000E+02  0.51100000000E-03 0.  1.
         11   -1    0    0    0    0 -0.00000000000E+00 -0.00000000000E+00 -0.45593999997E+02  0.45594000000E+02  0.51100000000E-03 0. -1.
    9900012    2    1    2    0    0 -0.10838193196E+01 -0.16781063363E+02  0.37018735934E+02  0.50528861272E+02  0.30000004324E+02 0.  0.
         12    1    1    2    0    0  0.10838193196E+01  0.16781063363E+02 -0.37018735934E+02  0.40659138728E+02  0.00000000000E+00 0. -1.
         11    1    3    3    0    0 -0.26560138968E+00 -0.73126083022E+01  0.27683659643E+02  0.28634416281E+02  0.51100000000E-03 0.  1.
        -11    1    3    3    0    0 -0.67714935074E+01 -0.10940393262E+01 -0.14366389630E+01  0.70081365668E+01  0.51100000000E-03 0. -1.
        -12    1    3    3    0    0  0.59532755775E+01 -0.83744157342E+01  0.10771715255E+02  0.14886308425E+02  0.00000000000E+00 0.  1.
</event>
<event>
 7    1  0.5946946E-013  0.5052886E+02  0.7816164E-02  0.1300439E+00
        -11   -1    0    0    0    0  0.00000000000E+00  0.00000000000E+00  0.45593999997E+02  0.45594000000E+02  0.51100000000E-03 0.  1.
         11   -1    0    0    0    0 -0.00000000000E+00 -0.00000000000E+00 -0.45593999997E+02  0.45594000000E+02  0.51100000000E-03 0. -1.
    9900012    2    1    2    0    0 -0.15949389249E+02  0.86720191276E+01  0.36381018223E+02  0.50528863018E+02  0.30000009629E+02 0.  0.
         12    1    1    2    0    0  0.15949389249E+02 -0.86720191276E+01 -0.36381018223E+02  0.40659136982E+02  0.00000000000E+00 0. -1.
         11    1    3    3    0    0  0.12900932556E+01 -0.39707843563E+01  0.88294584878E+01  0.97668217175E+01  0.51100000000E-03 0. -1.
        -11    1    3    3    0    0 -0.39877668778E+01  0.15017129096E+02  0.19999323583E+02  0.25325666723E+02  0.51100000000E-03 0.  1.
        -12    1    3    3    0    0 -0.13251715627E+02 -0.23743256118E+01  0.75522361527E+01  0.15436374577E+02  0.00000000000E+00 0.  1.
</event>
<event>
 7    1  0.5946946E-013  0.5052886E+02  0.7816164E-02  0.1300439E+00
        -11   -1    0    0    0    0  0.00000000000E+00  0.00000000000E+00  0.45593999997E+02  0.45594000000E+02  0.51100000000E-03 0.  1.
         11   -1    0    0    0    0 -0.00000000000E+00 -0.00000000000E+00 -0.45593999997E+02  0.45594000000E+02  0.51100000000E-03 0. -1.
    9900012    2    1    2    0    0  0.17786316281E+02 -0.18242679771E+02  0.31686233121E+02  0.50528858575E+02  0.29999996125E+02 0.  0.
         12    1    1    2    0    0 -0.17786316281E+02  0.18242679771E+02 -0.31686233121E+02  0.40659141425E+02  0.00000000000E+00 0. -1.
         11    1    3    3    0    0  0.20883407001E+02 -0.82531624144E+01  0.22589446319E+02  0.31851443657E+02  0.51100000000E-03 0.  1.
        -11    1    3    3    0    0 -0.44215567148E+01 -0.34919093959E+01 -0.18058821263E+01  0.59164859103E+01  0.51100000000E-03 0. -1.
         12    1    3    3    0    0  0.13244659944E+01 -0.64976079602E+01  0.10902668928E+02  0.12760929007E+02  0.00000000000E+00 0. -1.
</event>
<event>
 7    1  0.5946946E-013  0.5052887E+02  0.7816164E-02  0.1300439E+00
        -11   -1    0    0    0    0  0.00000000000E+00  0.00000000000E+00  0.45593999997E+02  0.45594000000E+02  0.51100000000E-03 0.  1.
         11   -1    0    0    0    0 -0.00000000000E+00 -0.00000000000E+00 -0.45593999997E+02  0.45594000000E+02  0.51100000000E-03 0. -1.
    9900012    2    1    2    0    0  0.41028763263E+01 -0.32871667564E+02  0.23575091538E+02  0.50528867402E+02  0.30000022956E+02 0.  0.
         12    1    1    2    0    0 -0.41028763263E+01  0.32871667564E+02 -0.23575091538E+02  0.40659132598E+02  0.00000000000E+00 0. -1.
         11    1    3    3    0    0 -0.58246375089E+01 -0.45717636745E+01  0.18740497702E+02  0.20150277407E+02  0.51100000000E-03 0.  1.
        -11    1    3    3    0    0  0.78874660114E+01 -0.22365931131E+02  0.39012330441E+01  0.24034696066E+02  0.51100000000E-03 0. -1.
        -12    1    3    3    0    0  0.20400478238E+01 -0.59339727583E+01  0.93336079146E+00  0.63438939293E+01  0.00000000000E+00 0.  1.
</event>
<event>
 7    1  0.5946946E-013  0.5052886E+02  0.7816164E-02  0.1300439E+00
        -11   -1    0    0    0    0  0.00000000000E+00  0.00000000000E+00  0.45593999997E+02  0.45594000000E+02  0.51100000000E-03 0.  1.
         11   -1    0    0    0    0 -0.00000000000E+00 -0.00000000000E+00 -0.45593999997E+02  0.45594000000E+02  0.51100000000E-03 0. -1.
    9900012    2    1    2    0    0 -0.26378493340E+02 -0.25668571597E+02  0.17276147831E+02  0.50528858807E+02  0.29999996829E+02 0.  0.
         12    1    1    2    0    0  0.26378493340E+02  0.25668571597E+02 -0.17276147831E+02  0.40659141193E+02  0.00000000000E+00 0. -1.
         11    1    3    3    0    0 -0.28183153256E+00  0.22822363885E+01 -0.19965194784E+01  0.30453443540E+01  0.51100000000E-03 0. -1.
        -11    1    3    3    0    0 -0.18459677448E+02 -0.17985740369E+02  0.22834173013E+02  0.34433210794E+02  0.51100000000E-03 0.  1.
        -12    1    3    3    0    0 -0.76369843591E+01 -0.99650676170E+01 -0.35615057043E+01  0.13050303659E+02  0.00000000000E+00 0.  1.
</event>
<event>
 7    1  0.5946946E-013  0.5052888E+02  0.7816164E-02  0.1300439E+00
        -11   -1    0    0    0    0  0.00000000000E+00  0.00000000000E+00  0.45593999997E+02  0.45594000000E+02  0.51100000000E-03 0. -1.
         11   -1    0    0    0    0 -0.00000000000E+00 -0.00000000000E+00 -0.45593999997E+02  0.45594000000E+02  0.51100000000E-03 0.  1.
    9900012    2    1    2    0    0  0.28575992838E+02 -0.11580633265E+02 -0.26504073442E+02  0.50528876270E+02  0.30000049909E+02 0.  0.
         12    1    1    2    0    0 -0.28575992838E+02  0.11580633265E+02  0.26504073442E+02  0.40659123730E+02  0.00000000000E+00 0. -1.
         11    1    3    3    0    0  0.17715267655E+02  0.35697029653E+01 -0.56752070719E+01  0.18941527471E+02  0.51100000000E-03 0. -1.
        -11    1    3    3    0    0  0.12277870470E+02 -0.13260454625E+02 -0.10308550511E+02  0.20805094906E+02  0.51100000000E-03 0.  1.
         12    1    3    3    0    0 -0.14171452873E+01 -0.18898816058E+01 -0.10520315859E+02  0.10782253893E+02  0.00000000000E+00 0. -1.
</event>
<event>
 7    1  0.5946946E-013  0.5052886E+02  0.7816164E-02  0.1300439E+00
        -11   -1    0    0    0    0  0.00000000000E+00  0.00000000000E+00  0.45593999997E+02  0.45594000000E+02  0.51100000000E-03 0. -1.
         11   -1    0    0    0    0 -0.00000000000E+00 -0.00000000000E+00 -0.45593999997E+02  0.45594000000E+02  0.51100000000E-03 0.  1.
    9900012    2    1    2    0    0  0.25728445875E+02  0.18013292464E+02 -0.25821193013E+02  0.50528860300E+02  0.30000001367E+02 0.  0.
         12    1    1    2    0    0 -0.25728445875E+02 -0.18013292464E+02  0.25821193013E+02  0.40659139700E+02  0.00000000000E+00 0. -1.
         11    1    3    3    0    0  0.47313702827E+01 -0.21182416573E+01  0.43474056090E+01  0.67655560201E+01  0.51100000000E-03 0. -1.
        -11    1    3    3    0    0  0.14053736464E+02  0.18001602667E+02 -0.16137460424E+02  0.27963956021E+02  0.51100000000E-03 0.  1.
         12    1    3    3    0    0  0.69433391287E+01  0.21299314545E+01 -0.14031138198E+02  0.15799348258E+02  0.00000000000E+00 0. -1.
</event>
<event>
 7    1  0.5946946E-013  0.5052886E+02  0.7816164E-02  0.1300439E+00
        -11   -1    0    0    0    0  0.00000000000E+00  0.00000000000E+00  0.45593999997E+02  0.45594000000E+02  0.51100000000E-03 0.  1.
         11   -1    0    0    0    0 -0.00000000000E+00 -0.00000000000E+00 -0.45593999997E+02  0.45594000000E+02  0.51100000000E-03 0. -1.
    9900012    2    1    2    0    0 -0.38768368485E+00 -0.39855663553E+01  0.40461468843E+02  0.50528862051E+02  0.30000006690E+02 0.  0.
         12    1    1    2    0    0  0.38768368485E+00  0.39855663553E+01 -0.40461468843E+02  0.40659137949E+02  0.00000000000E+00 0. -1.
         11    1    3    3    0    0 -0.27099334528E+01 -0.67998878132E+01 -0.11986452000E+01  0.74174769408E+01  0.51100000000E-03 0. -1.
        -11    1    3    3    0    0 -0.30742601861E+01  0.41384409490E+01  0.25691067869E+02  0.26203219987E+02  0.51100000000E-03 0.  1.
        -12    1    3    3    0    0  0.53965099541E+01 -0.13241194911E+01  0.15969046175E+02  0.16908165123E+02  0.00000000000E+00 0.  1.
</event>
<event>
 7    1  0.5946946E-013  0.5052886E+02  0.7816164E-02  0.1300439E+00
        -11   -1    0    0    0    0  0.00000000000E+00  0.00000000000E+00  0.45593999997E+02  0.45594000000E+02  0.51100000000E-03 0.  1.
         11   -1    0    0    0    0 -0.00000000000E+00 -0.00000000000E+00 -0.45593999997E+02  0.45594000000E+02  0.51100000000E-03 0. -1.
    9900012    2    1    2    0    0  0.30467447895E+01  0.31712210225E+02  0.25262997854E+02  0.50528855989E+02  0.29999988264E+02 0.  0.
         12    1    1    2    0    0 -0.30467447895E+01 -0.31712210225E+02 -0.25262997854E+02  0.40659144011E+02  0.00000000000E+00 0. -1.
         11    1    3    3    0    0  0.76283747826E+01  0.26328505918E+02  0.29889241269E+02  0.40555506033E+02  0.51100000000E-03 0.  1.
        -11    1    3    3    0    0 -0.31797926403E+01  0.61325854176E+01 -0.47433969588E+01  0.83797076386E+01  0.51100000000E-03 0. -1.
        -12    1    3    3    0    0 -0.14018373527E+01 -0.74888111094E+00  0.11715354300E+00  0.15936423170E+01  0.00000000000E+00 0.  1.
</event>
<event>
 7    1  0.5946946E-013  0.5052886E+02  0.7816164E-02  0.1300439E+00
        -11   -1    0    0    0    0  0.00000000000E+00  0.00000000000E+00  0.45593999997E+02  0.45594000000E+02  0.51100000000E-03 0. -1.
         11   -1    0    0    0    0 -0.00000000000E+00 -0.00000000000E+00 -0.45593999997E+02  0.45594000000E+02  0.51100000000E-03 0.  1.
    9900012    2    1    2    0    0 -0.11289254818E+02 -0.29148876915E+02 -0.26001182576E+02  0.50528858407E+02  0.29999995613E+02 0.  0.
         12    1    1    2    0    0  0.11289254818E+02  0.29148876915E+02  0.26001182576E+02  0.40659141593E+02  0.00000000000E+00 0. -1.
         11    1    3    3    0    0  0.63643876750E+01 -0.24097258259E+01 -0.26655747439E+01  0.73087275233E+01  0.51100000000E-03 0. -1.
        -11    1    3    3    0    0 -0.77637101188E+01 -0.13514695429E+02 -0.21570974671E+02  0.26612574770E+02  0.51100000000E-03 0.  1.
        -12    1    3    3    0    0 -0.98899323738E+01 -0.13224455660E+02 -0.17646331609E+01  0.16607556113E+02  0.00000000000E+00 0.  1.
</event>
<event>
 7    1  0.5946946E-013  0.5052886E+02  0.7816164E-02  0.1300439E+00
        -11   -1    0    0    0    0  0.00000000000E+00  0.00000000000E+00  0.45593999997E+02  0.45594000000E+02  0.51100000000E-03 0.  1.
         11   -1    0    0    0    0 -0.00000000000E+00 -0.00000000000E+00 -0.45593999997E+02  0.45594000000E+02  0.51100000000E-03 0. -1.
    9900012    2    1    2    0    0  0.30704687688E+01  0.28283173041E+01  0.40444264746E+02  0.50528859477E+02  0.29999998867E+02 0.  0.
         12    1    1    2    0    0 -0.30704687688E+01 -0.28283173041E+01 -0.40444264746E+02  0.40659140523E+02  0.00000000000E+00 0. -1.
         11    1    3    3    0    0 -0.85602784054E+01  0.86858712640E+01  0.12887037581E+02  0.17742560804E+02  0.51100000000E-03 0. -1.
        -11    1    3    3    0    0  0.76193993079E+01  0.29998784251E+00  0.51417373275E+01  0.91968854253E+01  0.51100000000E-03 0.  1.
         12    1    3    3    0    0  0.40113478663E+01 -0.61575418024E+01  0.22415489837E+02  0.23589413248E+02  0.00000000000E+00 0. -1.
</event>
<event>
 7    1  0.5946946E-013  0.5052885E+02  0.7816164E-02  0.1300439E+00
        -11   -1    0    0    0    0  0.00000000000E+00  0.00000000000E+00  0.45593999997E+02  0.45594000000E+02  0.51100000000E-03 0. -1.
         11   -1    0    0    0    0 -0.00000000000E+00 -0.00000000000E+00 -0.45593999997E+02  0.45594000000E+02  0.51100000000E-03 0.  1.
    9900012    2    1    2    0    0 -0.39979719773E+02  0.70647079274E+01 -0.22086240157E+01  0.50528854518E+02  0.29999983794E+02 0.  0.
         12    1    1    2    0    0  0.39979719773E+02 -0.70647079274E+01  0.22086240157E+01  0.40659145482E+02  0.00000000000E+00 0. -1.
         11    1    3    3    0    0 -0.29940828097E+02  0.16519917878E+02  0.48386879625E+01  0.34536557085E+02  0.51100000000E-03 0. -1.
        -11    1    3    3    0    0 -0.46856605874E+01 -0.24057513645E+01 -0.12573236188E+01  0.54151562961E+01  0.51100000000E-03 0.  1.
         12    1    3    3    0    0 -0.53532310891E+01 -0.70494585856E+01 -0.57899883594E+01  0.10577141138E+02  0.00000000000E+00 0. -1.
</event>
<event>
 7    1  0.5946946E-013  0.5052886E+02  0.7816164E-02  0.1300439E+00
        -11   -1    0    0    0    0  0.00000000000E+00  0.00000000000E+00  0.45593999997E+02  0.45594000000E+02  0.51100000000E-03 0. -1.
         11   -1    0    0    0    0 -0.00000000000E+00 -0.00000000000E+00 -0.45593999997E+02  0.45594000000E+02  0.51100000000E-03 0.  1.
    9900012    2    1    2    0    0  0.34226304668E+02  0.19550408788E+02 -0.99753358586E+01  0.50528859078E+02  0.29999997653E+02 0.  0.
         12    1    1    2    0    0 -0.34226304668E+02 -0.19550408788E+02  0.99753358586E+01  0.40659140922E+02  0.00000000000E+00 0. -1.
         11    1    3    3    0    0  0.89373442276E+01  0.45975606786E+00  0.72287753159E+01  0.11504029308E+02  0.51100000000E-03 0.  1.
        -11    1    3    3    0    0  0.12687987015E+02  0.18327054224E+02 -0.94606376601E+01  0.24215069610E+02  0.51100000000E-03 0. -1.
        -12    1    3    3    0    0  0.12600973426E+02  0.76359849696E+00 -0.77434735144E+01  0.14809760160E+02  0.00000000000E+00 0.  1.
</event>
<event>
 7    1  0.5946946E-013  0.5052885E+02  0.7816164E-02  0.1300439E+00
        -11   -1    0    0    0    0  0.00000000000E+00  0.00000000000E+00  0.45593999997E+02  0.45594000000E+02  0.51100000000E-03 0. -1.
         11   -1    0    0    0    0 -0.00000000000E+00 -0.00000000000E+00 -0.45593999997E+02  0.45594000000E+02  0.51100000000E-03 0.  1.
    9900012    2    1    2    0    0  0.11832471839E+02  0.38894885749E+02 -0.58868477012E+00  0.50528854940E+02  0.29999985076E+02 0.  0.
         12    1    1    2    0    0 -0.11832471839E+02 -0.38894885749E+02  0.58868477012E+00  0.40659145060E+02  0.00000000000E+00 0. -1.
         11    1    3    3    0    0  0.79924807958E+00  0.24065375478E+02 -0.19452946998E+01  0.24157095565E+02  0.51100000000E-03 0. -1.
        -11    1    3    3    0    0  0.13512826748E+02  0.27467666792E+01  0.23869928514E+01  0.13994246998E+02  0.51100000000E-03 0.  1.
        -12    1    3    3    0    0 -0.24796029883E+01  0.12082743591E+02 -0.10303829217E+01  0.12377512377E+02  0.00000000000E+00 0.  1.
</event>
<event>
 7    1  0.5946946E-013  0.5052881E+02  0.7816164E-02  0.1300439E+00
        -11   -1    0    0    0    0  0.00000000000E+00  0.00000000000E+00  0.45593999997E+02  0.45594000000E+02  0.51100000000E-03 0.  1.
         11   -1    0    0    0    0 -0.00000000000E+00 -0.00000000000E+00 -0.45593999997E+02  0.45594000000E+02  0.51100000000E-03 0. -1.
    9900012    2    1    2    0    0 -0.32502188586E+02 -0.45018532235E+00  0.24424885458E+02  0.50528807197E+02  0.29999839957E+02 0.  0.
         12    1    1    2    0    0  0.32502188586E+02  0.45018532235E+00 -0.24424885458E+02  0.40659192803E+02  0.00000000000E+00 0. -1.
         11    1    3    3    0    0 -0.21888200837E+01 -0.67512632236E+01 -0.12761870864E+01  0.72110430739E+01  0.51100000000E-03 0. -1.
        -11    1    3    3    0    0 -0.29634515585E+02  0.38971492302E+01  0.27192698536E+02  0.40408354830E+02  0.51100000000E-03 0.  1.
         12    1    3    3    0    0 -0.67885291696E+00  0.24039286711E+01 -0.14916259916E+01  0.29094092935E+01  0.00000000000E+00 0. -1.
</event>
<event>
 7    1  0.5946946E-013  0.5052888E+02  0.7816164E-02  0.1300439E+00
        -11   -1    0    0    0    0  0.00000000000E+00  0.00000000000E+00  0.45593999997E+02  0.45594000000E+02  0.51100000000E-03 0. -1.
         11   -1    0    0    0    0 -0.00000000000E+00 -0.00000000000E+00 -0.45593999997E+02  0.45594000000E+02  0.51100000000E-03 0.  1.
    9900012    2    1    2    0    0 -0.33960289159E+02 -0.10958447424E+02 -0.19487827380E+02  0.50528877706E+02  0.30000054275E+02 0.  0.
         12    1    1    2    0    0  0.33960289159E+02  0.10958447424E+02  0.19487827380E+02  0.40659122294E+02  0.00000000000E+00 0. -1.
         11    1    3    3    0    0 -0.10185925972E+02  0.57642452724E+01  0.15876530298E+01  0.11811022559E+02  0.51100000000E-03 0. -1.
        -11    1    3    3    0    0 -0.96414956155E+01 -0.10299661267E+02 -0.22001672459E+01  0.14278732300E+02  0.51100000000E-03 0.  1.
         12    1    3    3    0    0 -0.14132867571E+02 -0.64230314297E+01 -0.18875313164E+02  0.24439122848E+02  0.00000000000E+00 0. -1.
</event>
<event>
 7    1  0.5946946E-013  0.5052886E+02  0.7816164E-02  0.1300439E+00
        -11   -1    0    0    0    0  0.00000000000E+00  0.00000000000E+00  0.45593999997E+02  0.45594000000E+02  0.51100000000E-03 0.  1.
         11   -1    0    0    0    0 -0.00000000000E+00 -0.00000000000E+00 -0.45593999997E+02  0.45594000000E+02  0.51100000000E-03 0. -1.
    9900012    2    1    2    0    0  0.16272487675E+02  0.25649646246E+02  0.27027155702E+02  0.50528863843E+02  0.30000012138E+02 0.  0.
         12    1    1    2    0    0 -0.16272487675E+02 -0.25649646246E+02 -0.27027155702E+02  0.40659136157E+02  0.00000000000E+00 0. -1.
         11    1    3    3    0    0  0.10665654351E+02  0.76721717139E+01 -0.34628766934E+01  0.13587123198E+02  0.51100000000E-03 0. -1.
        -11    1    3    3    0    0  0.34774971679E+01  0.87443560616E+00  0.61182054643E+01  0.70915486706E+01  0.51100000000E-03 0.  1.
         12    1    3    3    0    0  0.21293361563E+01  0.17103038926E+02  0.24371826931E+02  0.29850191975E+02  0.00000000000E+00 0. -1.
</event>
<event>
 7    1  0.5946946E-013  0.5052886E+02  0.7816164E-02  0.1300439E+00
        -11   -1    0    0    0    0  0.00000000000E+00  0.00000000000E+00  0.45593999997E+02  0.45594000000E+02  0.51100000000E-03 0.  1.
         11   -1    0    0    0    0 -0.00000000000E+00 -0.00000000000E+00 -0.45593999997E+02  0.45594000000E+02  0.51100000000E-03 0. -1.
    9900012    2    1    2    0    0 -0.35154412263E+02 -0.25084547289E+01  0.20274134976E+02  0.50528860858E+02  0.30000003065E+02 0.  0.
         12    1    1    2    0    0  0.35154412263E+02  0.25084547289E+01 -0.20274134976E+02  0.40659139142E+02  0.00000000000E+00 0. -1.
         11    1    3    3    0    0 -0.21253840823E+00 -0.67727281388E+01  0.37324964190E+01  0.77360551185E+01  0.51100000000E-03 0. -1.
        -11    1    3    3    0    0 -0.33089699100E+02  0.86874029770E+01  0.12191823812E+02  0.36318586497E+02  0.51100000000E-03 0.  1.
        -12    1    3    3    0    0 -0.18521747554E+01 -0.44231295670E+01  0.43498147451E+01  0.64742192432E+01  0.00000000000E+00 0.  1.
</event>
<event>
 7    1  0.5946946E-013  0.5052885E+02  0.7816164E-02  0.1300439E+00
        -11   -1    0    0    0    0  0.00000000000E+00  0.00000000000E+00  0.45593999997E+02  0.45594000000E+02  0.51100000000E-03 0. -1.
         11   -1    0    0    0    0 -0.00000000000E+00 -0.00000000000E+00 -0.45593999997E+02  0.45594000000E+02  0.51100000000E-03 0.  1.
    9900012    2    1    2    0    0 -0.12436318674E+02 -0.37988825003E+02 -0.74400052465E+01  0.50528849427E+02  0.29999968319E+02 0.  0.
         12    1    1    2    0    0  0.12436318674E+02  0.37988825003E+02  0.74400052465E+01  0.40659150573E+02  0.00000000000E+00 0. -1.
         11    1    3    3    0    0  0.55865355878E+01 -0.19933851837E+02 -0.62102792901E+01  0.21613315295E+02  0.51100000000E-03 0. -1.
        -11    1    3    3    0    0 -0.18042260940E+02 -0.16091131377E+02 -0.49792560650E+01  0.24682801300E+02  0.51100000000E-03 0.  1.
        -12    1    3    3    0    0  0.19406677772E-01 -0.19638417888E+01  0.37495301087E+01  0.42327328320E+01  0.00000000000E+00 0.  1.
</event>
<event>
 7    1  0.5946946E-013  0.5052877E+02  0.7816164E-02  0.1300439E+00
        -11   -1    0    0    0    0  0.00000000000E+00  0.00000000000E+00  0.45593999997E+02  0.45594000000E+02  0.51100000000E-03 0.  1.
         11   -1    0    0    0    0 -0.00000000000E+00 -0.00000000000E+00 -0.45593999997E+02  0.45594000000E+02  0.51100000000E-03 0. -1.
    9900012    2    1    2    0    0 -0.25655463766E+02 -0.26612864825E+02  0.16932980000E+02  0.50528767261E+02  0.29999718567E+02 0.  0.
         12    1    1    2    0    0  0.25655463766E+02  0.26612864825E+02 -0.16932980000E+02  0.40659232739E+02  0.00000000000E+00 0. -1.
         11    1    3    3    0    0  0.49822365546E+01 -0.40700271952E+01  0.20364277266E+01  0.67479508447E+01  0.51100000000E-03 0. -1.
        -11    1    3    3    0    0 -0.23967368015E+02 -0.21305768736E+02  0.17478327128E+02  0.36522081410E+02  0.51100000000E-03 0.  1.
        -12    1    3    3    0    0 -0.66703323048E+01 -0.12370688930E+01 -0.25817748548E+01  0.72587350071E+01  0.00000000000E+00 0.  1.
</event>
<event>
 7    1  0.5946946E-013  0.5052884E+02  0.7816164E-02  0.1300439E+00
        -11   -1    0    0    0    0  0.00000000000E+00  0.00000000000E+00  0.45593999997E+02  0.45594000000E+02  0.51100000000E-03 0. -1.
         11   -1    0    0    0    0 -0.00000000000E+00 -0.00000000000E+00 -0.45593999997E+02  0.45594000000E+02  0.51100000000E-03 0.  1.
    9900012    2    1    2    0    0 -0.26623289880E+02  0.55244675664E+01  0.30229920605E+02  0.50528838600E+02  0.29999935410E+02 0.  0.
         12    1    1    2    0    0  0.26623289880E+02 -0.55244675664E+01 -0.30229920605E+02  0.40659161400E+02  0.00000000000E+00 0. -1.
         11    1    3    3    0    0 -0.31750370125E+01  0.94983730437E+01  0.22458314341E+02  0.24590157255E+02  0.51100000000E-03 0. -1.
        -11    1    3    3    0    0 -0.50703513247E+01  0.10717754178E+01 -0.41034817493E+00  0.51986104863E+01  0.51100000000E-03 0.  1.
         12    1    3    3    0    0 -0.18377901543E+02 -0.50456808951E+01  0.81819544389E+01  0.20740070859E+02  0.00000000000E+00 0. -1.
</event>
<event>
 7    1  0.5946946E-013  0.5052886E+02  0.7816164E-02  0.1300439E+00
        -11   -1    0    0    0    0  0.00000000000E+00  0.00000000000E+00  0.45593999997E+02  0.45594000000E+02  0.51100000000E-03 0.  1.
         11   -1    0    0    0    0 -0.00000000000E+00 -0.00000000000E+00 -0.45593999997E+02  0.45594000000E+02  0.51100000000E-03 0. -1.
    9900012    2    1    2    0    0  0.35721395474E+02  0.17046628777E+02  0.93037782414E+01  0.50528856663E+02  0.29999990314E+02 0.  0.
         12    1    1    2    0    0 -0.35721395474E+02 -0.17046628777E+02 -0.93037782414E+01  0.40659143337E+02  0.00000000000E+00 0. -1.
         11    1    3    3    0    0  0.26003394491E+02  0.45999404736E+01 -0.26013925577E+01  0.26534943394E+02  0.51100000000E-03 0. -1.
        -11    1    3    3    0    0  0.11036437237E+02  0.12411153635E+02  0.55619004539E+01  0.17514976973E+02  0.51100000000E-03 0.  1.
         12    1    3    3    0    0 -0.13184362533E+01  0.35534668181E-01  0.63432703451E+01  0.64789362968E+01  0.00000000000E+00 0. -1.
</event>
<event>
 7    1  0.5946946E-013  0.5052885E+02  0.7816164E-02  0.1300439E+00
        -11   -1    0    0    0    0  0.00000000000E+00  0.00000000000E+00  0.45593999997E+02  0.45594000000E+02  0.51100000000E-03 0.  1.
         11   -1    0    0    0    0 -0.00000000000E+00 -0.00000000000E+00 -0.45593999997E+02  0.45594000000E+02  0.51100000000E-03 0. -1.
    9900012    2    1    2    0    0 -0.22513039012E+02 -0.30147504242E+02  0.15409652996E+02  0.50528851668E+02  0.29999975131E+02 0.  0.
         12    1    1    2    0    0  0.22513039012E+02  0.30147504242E+02 -0.15409652996E+02  0.40659148332E+02  0.00000000000E+00 0. -1.
         11    1    3    3    0    0 -0.73061912161E+01 -0.13490763843E+02 -0.66811202375E+01  0.16733753525E+02  0.51100000000E-03 0. -1.
        -11    1    3    3    0    0 -0.21140522101E+01 -0.10792671572E+02  0.73626236414E+01  0.13234772517E+02  0.51100000000E-03 0.  1.
         12    1    3    3    0    0 -0.13092795586E+02 -0.58640688272E+01  0.14728149592E+02  0.20560325627E+02  0.00000000000E+00 0. -1.
</event>
<event>
 7    1  0.5946946E-013  0.5052886E+02  0.7816164E-02  0.1300439E+00
        -11   -1    0    0    0    0  0.00000000000E+00  0.00000000000E+00  0.45593999997E+02  0.45594000000E+02  0.51100000000E-03 0.  1.
         11   -1    0    0    0    0 -0.00000000000E+00 -0.00000000000E+00 -0.45593999997E+02  0.45594000000E+02  0.51100000000E-03 0. -1.
    9900012    2    1    2    0    0  0.26877648952E+02  0.11543936619E+02  0.28239952831E+02  0.50528862998E+02  0.30000009568E+02 0.  0.
         12    1    1    2    0    0 -0.26877648952E+02 -0.11543936619E+02 -0.28239952831E+02  0.40659137002E+02  0.00000000000E+00 0. -1.
         11    1    3    3    0    0  0.12454635958E+02  0.58611491149E+01  0.26555943933E+02  0.29911355439E+02  0.51100000000E-03 0. -1.
        -11    1    3    3    0    0  0.10495654848E+02  0.10139757390E+02  0.15484618842E+01  0.14675530147E+02  0.51100000000E-03 0.  1.
         12    1    3    3    0    0  0.39273581460E+01 -0.44569698861E+01  0.13554701448E+00  0.59419774121E+01  0.00000000000E+00 0. -1.
</event>
<event>
 7    1  0.5946946E-013  0.5052884E+02  0.7816164E-02  0.1300439E+00
        -11   -1    0    0    0    0  0.00000000000E+00  0.00000000000E+00  0.45593999997E+02  0.45594000000E+02  0.51100000000E-03 0.  1.
         11   -1    0    0    0    0 -0.00000000000E+00 -0.00000000000E+00 -0.45593999997E+02  0.45594000000E+02  0.51100000000E-03 0. -1.
    9900012    2    1    2    0    0 -0.33995493994E+02 -0.38926253816E+01  0.21961809820E+02  0.50528840702E+02  0.29999941798E+02 0.  0.
         12    1    1    2    0    0  0.33995493994E+02  0.38926253816E+01 -0.21961809820E+02  0.40659159298E+02  0.00000000000E+00 0. -1.
         11    1    3    3    0    0 -0.51860831833E+01 -0.47436939012E+01 -0.48228660116E+01  0.85239736883E+01  0.51100000000E-03 0. -1.
        -11    1    3    3    0    0 -0.22688019724E+02 -0.16244587045E+01  0.27116713199E+02  0.35393519747E+02  0.51100000000E-03 0.  1.
        -12    1    3    3    0    0 -0.61213910866E+01  0.24755272241E+01 -0.33203736785E+00  0.66113472671E+01  0.00000000000E+00 0.  1.
</event>
<event>
 7    1  0.5946946E-013  0.5052887E+02  0.7816164E-02  0.1300439E+00
        -11   -1    0    0    0    0  0.00000000000E+00  0.00000000000E+00  0.45593999997E+02  0.45594000000E+02  0.51100000000E-03 0.  1.
         11   -1    0    0    0    0 -0.00000000000E+00 -0.00000000000E+00 -0.45593999997E+02  0.45594000000E+02  0.51100000000E-03 0. -1.
    9900012    2    1    2    0    0 -0.78111398570E+01  0.27544260244E+02  0.28869790676E+02  0.50528868283E+02  0.30000025634E+02 0.  0.
         12    1    1    2    0    0  0.78111398570E+01 -0.27544260244E+02 -0.28869790676E+02  0.40659131717E+02  0.00000000000E+00 0. -1.
         11    1    3    3    0    0 -0.16730023599E+02  0.24836651008E+02  0.27204624570E+02  0.40457935206E+02  0.51100000000E-03 0. -1.
        -11    1    3    3    0    0  0.18299606180E+01 -0.55303384035E+00  0.11938341893E+01  0.22538506217E+01  0.51100000000E-03 0.  1.
         12    1    3    3    0    0  0.70889231243E+01  0.32606430770E+01  0.47133191737E+00  0.78170824554E+01  0.00000000000E+00 0. -1.
</event>
<event>
 7    1  0.5946946E-013  0.5052886E+02  0.7816164E-02  0.1300439E+00
        -11   -1    0    0    0    0  0.00000000000E+00  0.00000000000E+00  0.45593999997E+02  0.45594000000E+02  0.51100000000E-03 0.  1.
         11   -1    0    0    0    0 -0.00000000000E+00 -0.00000000000E+00 -0.45593999997E+02  0.45594000000E+02  0.51100000000E-03 0. -1.
    9900012    2    1    2    0    0 -0.17923998015E+02 -0.30144184211E+02  0.20572418528E+02  0.50528856493E+02  0.29999989797E+02 0.  0.
         12    1    1    2    0    0  0.17923998015E+02  0.30144184211E+02 -0.20572418528E+02  0.40659143507E+02  0.00000000000E+00 0. -1.
         11    1    3    3    0    0  0.66139465739E+01 -0.31853887326E+01  0.30075176446E+01  0.79332309498E+01  0.51100000000E-03 0. -1.
        -11    1    3    3    0    0 -0.11673888375E+02 -0.21040494484E+02  0.14546594414E+02  0.28117352067E+02  0.51100000000E-03 0.  1.
         12    1    3    3    0    0 -0.12864056214E+02 -0.59183009943E+01  0.30183064698E+01  0.14478273477E+02  0.00000000000E+00 0. -1.
</event>
<event>
 7    1  0.5946946E-013  0.5052886E+02  0.7816164E-02  0.1300439E+00
        -11   -1    0    0    0    0  0.00000000000E+00  0.00000000000E+00  0.45593999997E+02  0.45594000000E+02  0.51100000000E-03 0. -1.
         11   -1    0    0    0    0 -0.00000000000E+00 -0.00000000000E+00 -0.45593999997E+02  0.45594000000E+02  0.51100000000E-03 0.  1.
    9900012    2    1    2    0    0 -0.20615281315E+02  0.17970053302E+00 -0.35044879539E+02  0.50528859602E+02  0.29999999246E+02 0.  0.
         12    1    1    2    0    0  0.20615281315E+02 -0.17970053302E+00  0.35044879539E+02  0.40659140398E+02  0.00000000000E+00 0. -1.
         11    1    3    3    0    0 -0.52376653207E+01 -0.88177278329E+01 -0.56154356261E+01  0.11692672050E+02  0.51100000000E-03 0. -1.
        -11    1    3    3    0    0 -0.12917052429E+02  0.36343171894E+01 -0.30043247774E+02  0.32903726871E+02  0.51100000000E-03 0.  1.
        -12    1    3    3    0    0 -0.24605635656E+01  0.53631111766E+01  0.61380386119E+00  0.59324606811E+01  0.00000000000E+00 0.  1.
</event>
<event>
 7    1  0.5946946E-013  0.5052886E+02  0.7816164E-02  0.1300439E+00
        -11   -1    0    0    0    0  0.00000000000E+00  0.00000000000E+00  0.45593999997E+02  0.45594000000E+02  0.51100000000E-03 0.  1.
         11   -1    0    0    0    0 -0.00000000000E+00 -0.00000000000E+00 -0.45593999997E+02  0.45594000000E+02  0.51100000000E-03 0. -1.
    9900012    2    1    2    0    0  0.51159858264E+01 -0.35074033343E+02  0.19919958019E+02  0.50528857690E+02  0.29999993435E+02 0.  0.
         12    1    1    2    0    0 -0.51159858264E+01  0.35074033343E+02 -0.19919958019E+02  0.40659142310E+02  0.00000000000E+00 0. -1.
         11    1    3    3    0    0  0.13697324252E+02 -0.22767782409E+02  0.16376137802E+02  0.31211640410E+02  0.51100000000E-03 0.  1.
        -11    1    3    3    0    0 -0.90789380578E+01 -0.62791507161E+01  0.62571185661E+01  0.12688829063E+02  0.51100000000E-03 0. -1.
         12    1    3    3    0    0  0.49759963187E+00 -0.60271002175E+01 -0.27132983494E+01  0.66283882172E+01  0.00000000000E+00 0. -1.
</event>
<event>
 7    1  0.5946946E-013  0.5052888E+02  0.7816164E-02  0.1300439E+00
        -11   -1    0    0    0    0  0.00000000000E+00  0.00000000000E+00  0.45593999997E+02  0.45594000000E+02  0.51100000000E-03 0. -1.
         11   -1    0    0    0    0 -0.00000000000E+00 -0.00000000000E+00 -0.45593999997E+02  0.45594000000E+02  0.51100000000E-03 0.  1.
    9900012    2    1    2    0    0  0.17892554268E+02  0.32404442428E+02 -0.16821795628E+02  0.50528878078E+02  0.30000055406E+02 0.  0.
         12    1    1    2    0    0 -0.17892554268E+02 -0.32404442428E+02  0.16821795628E+02  0.40659121922E+02  0.00000000000E+00 0. -1.
         11    1    3    3    0    0 -0.49847406104E+01  0.62091888071E+01  0.23562631603E+01  0.83038329063E+01  0.51100000000E-03 0. -1.
        -11    1    3    3    0    0  0.22234035085E+02  0.19595508344E+02 -0.10806510736E+02  0.31545474128E+02  0.51100000000E-03 0.  1.
        -12    1    3    3    0    0  0.64325979371E+00  0.65997452767E+01 -0.83715480525E+01  0.10679571044E+02  0.00000000000E+00 0.  1.
</event>
<event>
 7    1  0.5946946E-013  0.5052886E+02  0.7816164E-02  0.1300439E+00
        -11   -1    0    0    0    0  0.00000000000E+00  0.00000000000E+00  0.45593999997E+02  0.45594000000E+02  0.51100000000E-03 0.  1.
         11   -1    0    0    0    0 -0.00000000000E+00 -0.00000000000E+00 -0.45593999997E+02  0.45594000000E+02  0.51100000000E-03 0. -1.
    9900012    2    1    2    0    0 -0.61455719723E-01 -0.24671078578E+02  0.32318722323E+02  0.50528859482E+02  0.29999998883E+02 0.  0.
         12    1    1    2    0    0  0.61455719723E-01  0.24671078578E+02 -0.32318722323E+02  0.40659140518E+02  0.00000000000E+00 0. -1.
         11    1    3    3    0    0 -0.63773681059E+01 -0.13134707605E+02  0.18314867522E+02  0.23422761161E+02  0.51100000000E-03 0.  1.
        -11    1    3    3    0    0  0.84577513029E+01  0.17561024500E+01  0.15710686739E+01  0.87798468071E+01  0.51100000000E-03 0. -1.
         12    1    3    3    0    0 -0.21418389167E+01 -0.13292473423E+02  0.12432786128E+02  0.18326251514E+02  0.00000000000E+00 0. -1.
</event>
<event>
 7    1  0.5946946E-013  0.5052885E+02  0.7816164E-02  0.1300439E+00
        -11   -1    0    0    0    0  0.00000000000E+00  0.00000000000E+00  0.45593999997E+02  0.45594000000E+02  0.51100000000E-03 0.  1.
         11   -1    0    0    0    0 -0.00000000000E+00 -0.00000000000E+00 -0.45593999997E+02  0.45594000000E+02  0.51100000000E-03 0. -1.
    9900012    2    1    2    0    0 -0.20915306778E+02 -0.17887742755E+02  0.29928996042E+02  0.50528853396E+02  0.29999980382E+02 0.  0.
         12    1    1    2    0    0  0.20915306778E+02  0.17887742755E+02 -0.29928996042E+02  0.40659146604E+02  0.00000000000E+00 0. -1.
         11    1    3    3    0    0  0.11373820706E+01  0.96584947239E+00  0.80724037557E+01  0.82091537830E+01  0.51100000000E-03 0. -1.
        -11    1    3    3    0    0 -0.22436006118E+02 -0.16074657184E+02  0.88058688158E+01  0.28970887111E+02  0.51100000000E-03 0.  1.
        -12    1    3    3    0    0  0.38331726953E+00 -0.27789350432E+01  0.13050723471E+02  0.13348812502E+02  0.00000000000E+00 0.  1.
</event>
<event>
 7    1  0.5946946E-013  0.5052885E+02  0.7816164E-02  0.1300439E+00
        -11   -1    0    0    0    0  0.00000000000E+00  0.00000000000E+00  0.45593999997E+02  0.45594000000E+02  0.51100000000E-03 0. -1.
         11   -1    0    0    0    0 -0.00000000000E+00 -0.00000000000E+00 -0.45593999997E+02  0.45594000000E+02  0.51100000000E-03 0.  1.
    9900012    2    1    2    0    0  0.25421957922E+02  0.35106792234E+01 -0.31536739954E+02  0.50528846294E+02  0.29999958796E+02 0.  0.
         12    1    1    2    0    0 -0.25421957922E+02 -0.35106792234E+01  0.31536739954E+02  0.40659153706E+02  0.00000000000E+00 0. -1.
         11    1    3    3    0    0 -0.29696425578E+01 -0.30001188680E+01 -0.69448562432E+01  0.81271470174E+01  0.51100000000E-03 0. -1.
        -11    1    3    3    0    0  0.29490123872E+02  0.64370008095E+01 -0.16824574480E+02  0.34556745971E+02  0.51100000000E-03 0.  1.
        -12    1    3    3    0    0 -0.10985233929E+01  0.73797281881E-01 -0.77673092307E+01  0.78449533057E+01  0.00000000000E+00 0.  1.
</event>
<event>
 7    1  0.5946946E-013  0.5052887E+02  0.7816164E-02  0.1300439E+00
        -11   -1    0    0    0    0  0.00000000000E+00  0.00000000000E+00  0.45593999997E+02  0.45594000000E+02  0.51100000000E-03 0.  1.
         11   -1    0    0    0    0 -0.00000000000E+00 -0.00000000000E+00 -0.45593999997E+02  0.45594000000E+02  0.51100000000E-03 0. -1.
    9900012    2    1    2    0    0 -0.40455194071E+02 -0.29713711665E+01  0.27773129922E+01  0.50528865215E+02  0.30000016309E+02 0.  0.
         12    1    1    2    0    0  0.40455194071E+02  0.29713711665E+01 -0.27773129922E+01  0.40659134785E+02  0.00000000000E+00 0. -1.
         11    1    3    3    0    0  0.42042095928E+01 -0.24640158782E+01  0.15762577229E+01  0.51216541486E+01  0.51100000000E-03 0. -1.
        -11    1    3    3    0    0 -0.32096144449E+02 -0.18800592044E+01  0.41830540112E+01  0.32422138304E+02  0.51100000000E-03 0.  1.
         12    1    3    3    0    0 -0.12563259216E+02  0.13727039160E+01 -0.29819987419E+01  0.12985072763E+02  0.00000000000E+00 0. -1.
</event>
<event>
 7    1  0.5946946E-013  0.5052886E+02  0.7816164E-02  0.1300439E+00
        -11   -1    0    0    0    0  0.00000000000E+00  0.00000000000E+00  0.45593999997E+02  0.45594000000E+02  0.51100000000E-03 0.  1.
         11   -1    0    0    0    0 -0.00000000000E+00 -0.00000000000E+00 -0.45593999997E+02  0.45594000000E+02  0.51100000000E-03 0. -1.
    9900012    2    1    2    0    0  0.38830839008E+02 -0.27168282098E+01 -0.11745246005E+02  0.50528855674E+02  0.29999987308E+02 0.  0.
         12    1    1    2    0    0 -0.38830839008E+02  0.27168282098E+01  0.11745246005E+02  0.40659144326E+02  0.00000000000E+00 0. -1.
         11    1    3    3    0    0  0.28781971028E+02 -0.83735250258E+01  0.29432855708E+01  0.30119440696E+02  0.51100000000E-03 0. -1.
        -11    1    3    3    0    0  0.41287483840E+01  0.14151165028E+01 -0.41364794639E+00  0.43840874557E+01  0.51100000000E-03 0.  1.
         12    1    3    3    0    0  0.59201195955E+01  0.42415803132E+01 -0.14274883629E+02  0.16025327523E+02  0.00000000000E+00 0. -1.
</event>
<event>
 7    1  0.5946946E-013  0.5052885E+02  0.7816164E-02  0.1300439E+00
        -11   -1    0    0    0    0  0.00000000000E+00  0.00000000000E+00  0.45593999997E+02  0.45594000000E+02  0.51100000000E-03 0.  1.
         11   -1    0    0    0    0 -0.00000000000E+00 -0.00000000000E+00 -0.45593999997E+02  0.45594000000E+02  0.51100000000E-03 0. -1.
    9900012    2    1    2    0    0  0.39024225137E+02  0.10845422059E+02  0.35570893546E+01  0.50528853282E+02  0.29999980036E+02 0.  0.
         12    1    1    2    0    0 -0.39024225137E+02 -0.10845422059E+02 -0.35570893546E+01  0.40659146718E+02  0.00000000000E+00 0. -1.
         11    1    3    3    0    0  0.83615876796E+01  0.12424122348E+02  0.33999319436E+01  0.15356904054E+02  0.51100000000E-03 0. -1.
        -11    1    3    3    0    0  0.17218775763E+02 -0.80023456894E+01 -0.45898534447E+01  0.19534342329E+02  0.51100000000E-03 0.  1.
         12    1    3    3    0    0  0.13443861694E+02  0.64236454005E+01  0.47470108558E+01  0.15637606899E+02  0.00000000000E+00 0. -1.
</event>
<event>
 7    1  0.5946946E-013  0.5052886E+02  0.7816164E-02  0.1300439E+00
        -11   -1    0    0    0    0  0.00000000000E+00  0.00000000000E+00  0.45593999997E+02  0.45594000000E+02  0.51100000000E-03 0. -1.
         11   -1    0    0    0    0 -0.00000000000E+00 -0.00000000000E+00 -0.45593999997E+02  0.45594000000E+02  0.51100000000E-03 0.  1.
    9900012    2    1    2    0    0 -0.23972612266E+02  0.31275553050E+02 -0.10015934696E+02  0.50528864430E+02  0.30000013922E+02 0.  0.
         12    1    1    2    0    0  0.23972612266E+02 -0.31275553050E+02  0.10015934696E+02  0.40659135570E+02  0.00000000000E+00 0. -1.
         11    1    3    3    0    0 -0.98221534724E+00 -0.17416368216E+01  0.60052050257E-01  0.20004130365E+01  0.51100000000E-03 0. -1.
        -11    1    3    3    0    0 -0.10205751479E+02  0.21269642103E+02  0.65558258007E+01  0.24485381162E+02  0.51100000000E-03 0.  1.
        -12    1    3    3    0    0 -0.12784645440E+02  0.11747547768E+02 -0.16631812547E+02  0.24043070232E+02  0.00000000000E+00 0.  1.
</event>
<event>
 7    1  0.5946946E-013  0.5052887E+02  0.7816164E-02  0.1300439E+00
        -11   -1    0    0    0    0  0.00000000000E+00  0.00000000000E+00  0.45593999997E+02  0.45594000000E+02  0.51100000000E-03 0.  1.
         11   -1    0    0    0    0 -0.00000000000E+00 -0.00000000000E+00 -0.45593999997E+02  0.45594000000E+02  0.51100000000E-03 0. -1.
    9900012    2    1    2    0    0 -0.39306387337E+02  0.68041393752E+01  0.78661573426E+01  0.50528870282E+02  0.30000031708E+02 0.  0.
         12    1    1    2    0    0  0.39306387337E+02 -0.68041393752E+01 -0.78661573426E+01  0.40659129718E+02  0.00000000000E+00 0. -1.
         11    1    3    3    0    0  0.29648166122E+01  0.41313185022E-01  0.21697626798E+00  0.29730326748E+01  0.51100000000E-03 0. -1.
        -11    1    3    3    0    0 -0.32200673545E+02  0.10548492831E+01 -0.22891019888E+01  0.32299165190E+02  0.51100000000E-03 0.  1.
        -12    1    3    3    0    0 -0.10070530404E+02  0.57079769071E+01  0.99382830634E+01  0.15256672417E+02  0.00000000000E+00 0.  1.
</event>
<event>
 7    1  0.5946946E-013  0.5052880E+02  0.7816164E-02  0.1300439E+00
        -11   -1    0    0    0    0  0.00000000000E+00  0.00000000000E+00  0.45593999997E+02  0.45594000000E+02  0.51100000000E-03 0.  1.
         11   -1    0    0    0    0 -0.00000000000E+00 -0.00000000000E+00 -0.45593999997E+02  0.45594000000E+02  0.51100000000E-03 0. -1.
    9900012    2    1    2    0    0  0.27356623669E+01  0.35440796872E+02  0.19739211663E+02  0.50528801673E+02  0.29999823165E+02 0.  0.
         12    1    1    2    0    0 -0.27356623669E+01 -0.35440796872E+02 -0.19739211663E+02  0.40659198327E+02  0.00000000000E+00 0. -1.
         11    1    3    3    0    0 -0.20002608748E+01 -0.34456171406E+01  0.32887836095E+01  0.51661803044E+01  0.51100000000E-03 0. -1.
        -11    1    3    3    0    0  0.10100644308E+02  0.22069614372E+02  0.66186497317E+01  0.25157452544E+02  0.51100000000E-03 0.  1.
         12    1    3    3    0    0 -0.53647210663E+01  0.16816799640E+02  0.98317783221E+01  0.20205168825E+02  0.00000000000E+00 0. -1.
</event>
<event>
 7    1  0.5946946E-013  0.5052886E+02  0.7816164E-02  0.1300439E+00
        -11   -1    0    0    0    0  0.00000000000E+00  0.00000000000E+00  0.45593999997E+02  0.45594000000E+02  0.51100000000E-03 0. -1.
         11   -1    0    0    0    0 -0.00000000000E+00 -0.00000000000E+00 -0.45593999997E+02  0.45594000000E+02  0.51100000000E-03 0.  1.
    9900012    2    1    2    0    0  0.32937245887E+02 -0.10768257469E+02 -0.21268485392E+02  0.50528855808E+02  0.29999987715E+02 0.  0.
         12    1    1    2    0    0 -0.32937245887E+02  0.10768257469E+02  0.21268485392E+02  0.40659144192E+02  0.00000000000E+00 0. -1.
         11    1    3    3    0    0  0.25836255807E+01 -0.80648666148E+00 -0.13013039037E+02  0.13291528397E+02  0.51100000000E-03 0. -1.
        -11    1    3    3    0    0  0.28527351071E+02 -0.13916624908E+02 -0.58980225617E+01  0.32284189294E+02  0.51100000000E-03 0.  1.
        -12    1    3    3    0    0  0.18262692350E+01  0.39548541002E+01 -0.23574237927E+01  0.49531381175E+01  0.00000000000E+00 0.  1.
</event>
<event>
 7    1  0.5946946E-013  0.5052888E+02  0.7816164E-02  0.1300439E+00
        -11   -1    0    0    0    0  0.00000000000E+00  0.00000000000E+00  0.45593999997E+02  0.45594000000E+02  0.51100000000E-03 0. -1.
         11   -1    0    0    0    0 -0.00000000000E+00 -0.00000000000E+00 -0.45593999997E+02  0.45594000000E+02  0.51100000000E-03 0.  1.
    9900012    2    1    2    0    0 -0.33919027617E+02 -0.15802575751E+02  0.15904168544E+02  0.50528875416E+02  0.30000047314E+02 0.  0.
         12    1    1    2    0    0  0.33919027617E+02  0.15802575751E+02 -0.15904168544E+02  0.40659124584E+02  0.00000000000E+00 0. -1.
         11    1    3    3    0    0 -0.18239271424E+02  0.20570043824E+01  0.19444366840E+01  0.18457603403E+02  0.51100000000E-03 0. -1.
        -11    1    3    3    0    0 -0.15387604784E+02 -0.18950677577E+02  0.75344973209E+01  0.25547508915E+02  0.51100000000E-03 0.  1.
        -12    1    3    3    0    0 -0.29215140982E+00  0.10910974433E+01  0.64252345395E+01  0.65237630985E+01  0.00000000000E+00 0.  1.
</event>
<event>
 7    1  0.5946946E-013  0.5052887E+02  0.7816164E-02  0.1300439E+00
        -11   -1    0    0    0    0  0.00000000000E+00  0.00000000000E+00  0.45593999997E+02  0.45594000000E+02  0.51100000000E-03 0. -1.
         11   -1    0    0    0    0 -0.00000000000E+00 -0.00000000000E+00 -0.45593999997E+02  0.45594000000E+02  0.51100000000E-03 0.  1.
    9900012    2    1    2    0    0  0.21114924180E+02  0.78219015226E+01 -0.33854725729E+02  0.50528872848E+02  0.30000039510E+02 0.  0.
         12    1    1    2    0    0 -0.21114924180E+02 -0.78219015226E+01  0.33854725729E+02  0.40659127152E+02  0.00000000000E+00 0. -1.
         11    1    3    3    0    0 -0.13073098273E+01 -0.46392466370E+01  0.22251629972E+01  0.53087681216E+01  0.51100000000E-03 0. -1.
        -11    1    3    3    0    0  0.17072189799E+02  0.45381262540E+01 -0.22309380865E+02  0.28456330215E+02  0.51100000000E-03 0.  1.
         12    1    3    3    0    0  0.53500442086E+01  0.79230219056E+01 -0.13770507861E+02  0.16763774512E+02  0.00000000000E+00 0. -1.
</event>
<event>
 7    1  0.5946946E-013  0.5052886E+02  0.7816164E-02  0.1300439E+00
        -11   -1    0    0    0    0  0.00000000000E+00  0.00000000000E+00  0.45593999997E+02  0.45594000000E+02  0.51100000000E-03 0.  1.
         11   -1    0    0    0    0 -0.00000000000E+00 -0.00000000000E+00 -0.45593999997E+02  0.45594000000E+02  0.51100000000E-03 0. -1.
    9900012    2    1    2    0    0 -0.28209157885E+02  0.19390700621E+02  0.21941056096E+02  0.50528858325E+02  0.29999995365E+02 0.  0.
         12    1    1    2    0    0  0.28209157885E+02 -0.19390700621E+02 -0.21941056096E+02  0.40659141675E+02  0.00000000000E+00 0. -1.
         11    1    3    3    0    0 -0.98147469298E+01  0.15682930376E+02  0.23794917352E+02  0.30141029420E+02  0.51100000000E-03 0. -1.
        -11    1    3    3    0    0 -0.10042853357E+02  0.31464780614E+01  0.26914778172E+01  0.10862931503E+02  0.51100000000E-03 0.  1.
         12    1    3    3    0    0 -0.83515575979E+01  0.56129218337E+00 -0.45453390727E+01  0.95248974017E+01  0.00000000000E+00 0. -1.
</event>
<event>
 7    1  0.5946946E-013  0.5052886E+02  0.7816164E-02  0.1300439E+00
        -11   -1    0    0    0    0  0.00000000000E+00  0.00000000000E+00  0.45593999997E+02  0.45594000000E+02  0.51100000000E-03 0. -1.
         11   -1    0    0    0    0 -0.00000000000E+00 -0.00000000000E+00 -0.45593999997E+02  0.45594000000E+02  0.51100000000E-03 0.  1.
    9900012    2    1    2    0    0  0.19188325092E+01 -0.36596317012E+02 -0.17612314660E+02  0.50528856321E+02  0.29999989273E+02 0.  0.
         12    1    1    2    0    0 -0.19188325092E+01  0.36596317012E+02  0.17612314660E+02  0.40659143679E+02  0.00000000000E+00 0. -1.
         11    1    3    3    0    0  0.42137850406E+01 -0.33261284842E+01 -0.14178562496E+02  0.15160829456E+02  0.51100000000E-03 0. -1.
        -11    1    3    3    0    0  0.91946458720E+00 -0.23025132326E+02  0.23654402471E+01  0.23164572985E+02  0.51100000000E-03 0.  1.
         12    1    3    3    0    0 -0.32144171186E+01 -0.10245056202E+02 -0.57991924105E+01  0.12203453880E+02  0.00000000000E+00 0. -1.
</event>
<event>
 7    1  0.5946946E-013  0.5052885E+02  0.7816164E-02  0.1300439E+00
        -11   -1    0    0    0    0  0.00000000000E+00  0.00000000000E+00  0.45593999997E+02  0.45594000000E+02  0.51100000000E-03 0. -1.
         11   -1    0    0    0    0 -0.00000000000E+00 -0.00000000000E+00 -0.45593999997E+02  0.45594000000E+02  0.51100000000E-03 0.  1.
    9900012    2    1    2    0    0 -0.22644235688E+02  0.70226536590E+01 -0.33031612796E+02  0.50528849515E+02  0.29999968585E+02 0.  0.
         12    1    1    2    0    0  0.22644235688E+02 -0.70226536590E+01  0.33031612796E+02  0.40659150485E+02  0.00000000000E+00 0. -1.
         11    1    3    3    0    0 -0.15678734631E+02 -0.88161423800E+01 -0.23414650745E+02  0.29526140213E+02  0.51100000000E-03 0. -1.
        -11    1    3    3    0    0 -0.34780001058E+00  0.32381727772E+01 -0.51355298651E+01  0.60811507989E+01  0.51100000000E-03 0.  1.
         12    1    3    3    0    0 -0.66177010460E+01  0.12600623262E+02 -0.44814321853E+01  0.14921558503E+02  0.00000000000E+00 0. -1.
</event>
<event>
 7    1  0.5946946E-013  0.5052886E+02  0.7816164E-02  0.1300439E+00
        -11   -1    0    0    0    0  0.00000000000E+00  0.00000000000E+00  0.45593999997E+02  0.45594000000E+02  0.51100000000E-03 0.  1.
         11   -1    0    0    0    0 -0.00000000000E+00 -0.00000000000E+00 -0.45593999997E+02  0.45594000000E+02  0.51100000000E-03 0. -1.
    9900012    2    1    2    0    0 -0.27613850582E+00 -0.35942483639E+02  0.19005973583E+02  0.50528863087E+02  0.30000009840E+02 0.  0.
         12    1    1    2    0    0  0.27613850582E+00  0.35942483639E+02 -0.19005973583E+02  0.40659136913E+02  0.00000000000E+00 0. -1.
         11    1    3    3    0    0 -0.22109177399E+01 -0.18768678525E+02 -0.38921648000E+01  0.19295087404E+02  0.51100000000E-03 0. -1.
        -11    1    3    3    0    0  0.65938175634E+01 -0.86514709229E+01  0.15890134546E+02  0.19256758693E+02  0.51100000000E-03 0.  1.
         12    1    3    3    0    0 -0.46590383294E+01 -0.85223341915E+01  0.70080038367E+01  0.11977016991E+02  0.00000000000E+00 0. -1.
</event>
<event>
 7    1  0.5946946E-013  0.5052885E+02  0.7816164E-02  0.1300439E+00
        -11   -1    0    0    0    0  0.00000000000E+00  0.00000000000E+00  0.45593999997E+02  0.45594000000E+02  0.51100000000E-03 0.  1.
         11   -1    0    0    0    0 -0.00000000000E+00 -0.00000000000E+00 -0.45593999997E+02  0.45594000000E+02  0.51100000000E-03 0. -1.
    9900012    2    1    2    0    0 -0.19089357164E+02  0.22540838305E+02  0.27940536496E+02  0.50528849393E+02  0.29999968214E+02 0.  0.
         12    1    1    2    0    0  0.19089357164E+02 -0.22540838305E+02 -0.27940536496E+02  0.40659150607E+02  0.00000000000E+00 0. -1.
         11    1    3    3    0    0 -0.23840796730E+01  0.15242960386E+02  0.76814179363E+01  0.17234728283E+02  0.51100000000E-03 0. -1.
        -11    1    3    3    0    0 -0.11691156921E+02  0.16607012917E+01  0.22511466795E+02  0.25420606138E+02  0.51100000000E-03 0.  1.
         12    1    3    3    0    0 -0.50141205709E+01  0.56371766277E+01 -0.22523482355E+01  0.78735149714E+01  0.00000000000E+00 0. -1.
</event>
<event>
 7    1  0.5946946E-013  0.5052888E+02  0.7816164E-02  0.1300439E+00
        -11   -1    0    0    0    0  0.00000000000E+00  0.00000000000E+00  0.45593999997E+02  0.45594000000E+02  0.51100000000E-03 0. -1.
         11   -1    0    0    0    0 -0.00000000000E+00 -0.00000000000E+00 -0.45593999997E+02  0.45594000000E+02  0.51100000000E-03 0.  1.
    9900012    2    1    2    0    0 -0.18040300848E+01 -0.38975134241E+02 -0.11438916782E+02  0.50528875184E+02  0.30000046609E+02 0.  0.
         12    1    1    2    0    0  0.18040300848E+01  0.38975134241E+02  0.11438916782E+02  0.40659124816E+02  0.00000000000E+00 0. -1.
         11    1    3    3    0    0 -0.83476848409E+01 -0.87498233477E+01 -0.85561164037E+01  0.14813857668E+02  0.51100000000E-03 0.  1.
        -11    1    3    3    0    0  0.12046069246E+02 -0.26010897723E+02 -0.21477562954E+01  0.28745215984E+02  0.51100000000E-03 0. -1.
         12    1    3    3    0    0 -0.55024144898E+01 -0.42144131709E+01 -0.73504408261E+00  0.69698015321E+01  0.00000000000E+00 0. -1.
</event>
<event>
 7    1  0.5946946E-013  0.5052885E+02  0.7816164E-02  0.1300439E+00
        -11   -1    0    0    0    0  0.00000000000E+00  0.00000000000E+00  0.45593999997E+02  0.45594000000E+02  0.51100000000E-03 0. -1.
         11   -1    0    0    0    0 -0.00000000000E+00 -0.00000000000E+00 -0.45593999997E+02  0.45594000000E+02  0.51100000000E-03 0.  1.
    9900012    2    1    2    0    0  0.35168075959E+02 -0.13039166639E+02 -0.15695641551E+02  0.50528848546E+02  0.29999965639E+02 0.  0.
         12    1    1    2    0    0 -0.35168075959E+02  0.13039166639E+02  0.15695641551E+02  0.40659151454E+02  0.00000000000E+00 0. -1.
         11    1    3    3    0    0  0.15471478696E+02  0.50793360036E+01  0.52110640739E+00  0.16292263791E+02  0.51100000000E-03 0. -1.
        -11    1    3    3    0    0  0.14222606427E+02 -0.50583558843E+01 -0.12492309503E+02  0.19594062744E+02  0.51100000000E-03 0.  1.
         12    1    3    3    0    0  0.54739908356E+01 -0.13060146759E+02 -0.37244384555E+01  0.14642522011E+02  0.00000000000E+00 0. -1.
</event>
<event>
 7    1  0.5946946E-013  0.5052885E+02  0.7816164E-02  0.1300439E+00
        -11   -1    0    0    0    0  0.00000000000E+00  0.00000000000E+00  0.45593999997E+02  0.45594000000E+02  0.51100000000E-03 0.  1.
         11   -1    0    0    0    0 -0.00000000000E+00 -0.00000000000E+00 -0.45593999997E+02  0.45594000000E+02  0.51100000000E-03 0. -1.
    9900012    2    1    2    0    0  0.28270798585E+02 -0.15076032565E+02 -0.25032804572E+02  0.50528854470E+02  0.29999983646E+02 0.  0.
         12    1    1    2    0    0 -0.28270798585E+02  0.15076032565E+02  0.25032804572E+02  0.40659145530E+02  0.00000000000E+00 0. -1.
         11    1    3    3    0    0  0.62910246355E+01 -0.16416009256E+02 -0.23438236920E+01  0.17735722726E+02  0.51100000000E-03 0.  1.
        -11    1    3    3    0    0  0.24004649996E+00  0.16585671284E+01 -0.55128054823E+00  0.17641932279E+01  0.51100000000E-03 0. -1.
         12    1    3    3    0    0  0.21739727450E+02 -0.31859043728E+00 -0.22137700331E+02  0.31028938516E+02  0.00000000000E+00 0. -1.
</event>
<event>
 7    1  0.5946946E-013  0.5052884E+02  0.7816164E-02  0.1300439E+00
        -11   -1    0    0    0    0  0.00000000000E+00  0.00000000000E+00  0.45593999997E+02  0.45594000000E+02  0.51100000000E-03 0.  1.
         11   -1    0    0    0    0 -0.00000000000E+00 -0.00000000000E+00 -0.45593999997E+02  0.45594000000E+02  0.51100000000E-03 0. -1.
    9900012    2    1    2    0    0 -0.12388909504E+02  0.37933409383E+02  0.77934998011E+01  0.50528840328E+02  0.29999940660E+02 0.  0.
         12    1    1    2    0    0  0.12388909504E+02 -0.37933409383E+02 -0.77934998011E+01  0.40659159672E+02  0.00000000000E+00 0. -1.
         11    1    3    3    0    0 -0.22887646389E+01 -0.21415675993E+01  0.50848287676E+01  0.59732938327E+01  0.51100000000E-03 0. -1.
        -11    1    3    3    0    0 -0.19825533418E+01  0.20781465620E+02 -0.62440774677E+01  0.21789638243E+02  0.51100000000E-03 0.  1.
         12    1    3    3    0    0 -0.81175915232E+01  0.19293511362E+02  0.89527485012E+01  0.22765908252E+02  0.00000000000E+00 0. -1.
</event>
<event>
 7    1  0.5946946E-013  0.5052880E+02  0.7816164E-02  0.1300439E+00
        -11   -1    0    0    0    0  0.00000000000E+00  0.00000000000E+00  0.45593999997E+02  0.45594000000E+02  0.51100000000E-03 0.  1.
         11   -1    0    0    0    0 -0.00000000000E+00 -0.00000000000E+00 -0.45593999997E+02  0.45594000000E+02  0.51100000000E-03 0. -1.
    9900012    2    1    2    0    0  0.10519031209E+02  0.19224519499E+02  0.34248184862E+02  0.50528802592E+02  0.29999825957E+02 0.  0.
         12    1    1    2    0    0 -0.10519031209E+02 -0.19224519499E+02 -0.34248184862E+02  0.40659197408E+02  0.00000000000E+00 0. -1.
         11    1    3    3    0    0 -0.36116365984E+01  0.15443051515E+01 -0.14466126108E+01  0.41858673685E+01  0.51100000000E-03 0. -1.
        -11    1    3    3    0    0  0.81467542078E+01  0.18782471974E+01  0.24963245286E+02  0.26326052346E+02  0.51100000000E-03 0.  1.
         12    1    3    3    0    0  0.59839135992E+01  0.15801967150E+02  0.10731552187E+02  0.20016882877E+02  0.00000000000E+00 0. -1.
</event>
<event>
 7    1  0.5946946E-013  0.5052886E+02  0.7816164E-02  0.1300439E+00
        -11   -1    0    0    0    0  0.00000000000E+00  0.00000000000E+00  0.45593999997E+02  0.45594000000E+02  0.51100000000E-03 0.  1.
         11   -1    0    0    0    0 -0.00000000000E+00 -0.00000000000E+00 -0.45593999997E+02  0.45594000000E+02  0.51100000000E-03 0. -1.
    9900012    2    1    2    0    0 -0.60823942013E+01  0.15595160069E+02  0.37053489570E+02  0.50528860485E+02  0.30000001929E+02 0.  0.
         12    1    1    2    0    0  0.60823942013E+01 -0.15595160069E+02 -0.37053489570E+02  0.40659139515E+02  0.00000000000E+00 0. -1.
         11    1    3    3    0    0  0.19990684370E+01 -0.27206345803E+01  0.25985990757E+02  0.26204385950E+02  0.51100000000E-03 0. -1.
        -11    1    3    3    0    0 -0.48155414085E+01  0.24675356454E+01  0.36301057457E+01  0.65158145465E+01  0.51100000000E-03 0.  1.
         12    1    3    3    0    0 -0.32659212298E+01  0.15848259004E+02  0.74373930679E+01  0.17808659989E+02  0.00000000000E+00 0. -1.
</event>
<event>
 7    1  0.5946946E-013  0.5052886E+02  0.7816164E-02  0.1300439E+00
        -11   -1    0    0    0    0  0.00000000000E+00  0.00000000000E+00  0.45593999997E+02  0.45594000000E+02  0.51100000000E-03 0.  1.
         11   -1    0    0    0    0 -0.00000000000E+00 -0.00000000000E+00 -0.45593999997E+02  0.45594000000E+02  0.51100000000E-03 0. -1.
    9900012    2    1    2    0    0 -0.18156564209E+02  0.30868595177E+02  0.19251884148E+02  0.50528855453E+02  0.29999986634E+02 0.  0.
         12    1    1    2    0    0  0.18156564209E+02 -0.30868595177E+02 -0.19251884148E+02  0.40659144547E+02  0.00000000000E+00 0. -1.
         11    1    3    3    0    0 -0.83599851473E+01  0.20144607938E+02 -0.11724522682E+01  0.21841914413E+02  0.51100000000E-03 0. -1.
        -11    1    3    3    0    0 -0.14348918960E+01  0.69632837251E+00  0.14081107520E+02  0.14171145938E+02  0.51100000000E-03 0.  1.
        -12    1    3    3    0    0 -0.83616871657E+01  0.10027658867E+02  0.63432288961E+01  0.14515795102E+02  0.00000000000E+00 0.  1.
</event>
<event>
 7    1  0.5946946E-013  0.5052886E+02  0.7816164E-02  0.1300439E+00
        -11   -1    0    0    0    0  0.00000000000E+00  0.00000000000E+00  0.45593999997E+02  0.45594000000E+02  0.51100000000E-03 0.  1.
         11   -1    0    0    0    0 -0.00000000000E+00 -0.00000000000E+00 -0.45593999997E+02  0.45594000000E+02  0.51100000000E-03 0. -1.
    9900012    2    1    2    0    0 -0.43316226097E+01 -0.38332911901E+02 -0.12844853153E+02  0.50528863981E+02  0.30000012558E+02 0.  0.
         12    1    1    2    0    0  0.43316226097E+01  0.38332911901E+02  0.12844853153E+02  0.40659136019E+02  0.00000000000E+00 0. -1.
         11    1    3    3    0    0 -0.13532535981E+02 -0.19336957765E+02  0.15122330310E+01  0.23650249781E+02  0.51100000000E-03 0. -1.
        -11    1    3    3    0    0 -0.32492750035E+00 -0.67864757323E+01 -0.20467066775E+01  0.70958325255E+01  0.51100000000E-03 0.  1.
         12    1    3    3    0    0  0.95258408720E+01 -0.12209478404E+02 -0.12310379506E+02  0.19782781675E+02  0.00000000000E+00 0. -1.
</event>
<event>
 7    1  0.5946946E-013  0.5052886E+02  0.7816164E-02  0.1300439E+00
        -11   -1    0    0    0    0  0.00000000000E+00  0.00000000000E+00  0.45593999997E+02  0.45594000000E+02  0.51100000000E-03 0. -1.
         11   -1    0    0    0    0 -0.00000000000E+00 -0.00000000000E+00 -0.45593999997E+02  0.45594000000E+02  0.51100000000E-03 0.  1.
    9900012    2    1    2    0    0 -0.31129224029E+02 -0.12035391483E+02 -0.23222547520E+02  0.50528856501E+02  0.29999989820E+02 0.  0.
         12    1    1    2    0    0  0.31129224029E+02  0.12035391483E+02  0.23222547520E+02  0.40659143499E+02  0.00000000000E+00 0. -1.
         11    1    3    3    0    0 -0.13727459594E+02 -0.18859917916E+01 -0.16637659037E+01  0.13955938850E+02  0.51100000000E-03 0. -1.
        -11    1    3    3    0    0 -0.80098971059E+01 -0.49286581361E+01 -0.23804820099E+02  0.25595303922E+02  0.51100000000E-03 0.  1.
        -12    1    3    3    0    0 -0.93918673284E+01 -0.52207415551E+01  0.22460384829E+01  0.10977613728E+02  0.00000000000E+00 0.  1.
</event>
<event>
 7    1  0.5946946E-013  0.5052889E+02  0.7816164E-02  0.1300439E+00
        -11   -1    0    0    0    0  0.00000000000E+00  0.00000000000E+00  0.45593999997E+02  0.45594000000E+02  0.51100000000E-03 0. -1.
         11   -1    0    0    0    0 -0.00000000000E+00 -0.00000000000E+00 -0.45593999997E+02  0.45594000000E+02  0.51100000000E-03 0.  1.
    9900012    2    1    2    0    0 -0.22715723385E+02  0.23459368590E+02 -0.24224310916E+02  0.50528889054E+02  0.30000088769E+02 0.  0.
         12    1    1    2    0    0  0.22715723385E+02 -0.23459368590E+02  0.24224310916E+02  0.40659110946E+02  0.00000000000E+00 0. -1.
         11    1    3    3    0    0  0.20264623812E+01  0.70042442795E+01 -0.56484617762E+01  0.92234000460E+01  0.51100000000E-03 0. -1.
        -11    1    3    3    0    0 -0.26030877947E+02  0.83047234668E+01 -0.18600501736E+02  0.33053800139E+02  0.51100000000E-03 0.  1.
        -12    1    3    3    0    0  0.12886921804E+01  0.81504008434E+01  0.24652596472E-01  0.82516888692E+01  0.00000000000E+00 0.  1.
</event>
<event>
 7    1  0.5946946E-013  0.5052886E+02  0.7816164E-02  0.1300439E+00
        -11   -1    0    0    0    0  0.00000000000E+00  0.00000000000E+00  0.45593999997E+02  0.45594000000E+02  0.51100000000E-03 0.  1.
         11   -1    0    0    0    0 -0.00000000000E+00 -0.00000000000E+00 -0.45593999997E+02  0.45594000000E+02  0.51100000000E-03 0. -1.
    9900012    2    1    2    0    0 -0.29313024041E+01 -0.27430305443E+01  0.40460461069E+02  0.50528860065E+02  0.30000000653E+02 0.  0.
         12    1    1    2    0    0  0.29313024041E+01  0.27430305443E+01 -0.40460461069E+02  0.40659139935E+02  0.00000000000E+00 0. -1.
         11    1    3    3    0    0 -0.72628729729E+01 -0.32825778405E+01  0.34558937119E+02  0.35466107429E+02  0.51100000000E-03 0. -1.
        -11    1    3    3    0    0 -0.61147001912E+00  0.62204423740E+01  0.18865602787E+01  0.65289286149E+01  0.51100000000E-03 0.  1.
         12    1    3    3    0    0  0.49430405880E+01 -0.56808950778E+01  0.40149636712E+01  0.85338240209E+01  0.00000000000E+00 0. -1.
</event>
<event>
 7    1  0.5946946E-013  0.5052888E+02  0.7816164E-02  0.1300439E+00
        -11   -1    0    0    0    0  0.00000000000E+00  0.00000000000E+00  0.45593999997E+02  0.45594000000E+02  0.51100000000E-03 0. -1.
         11   -1    0    0    0    0 -0.00000000000E+00 -0.00000000000E+00 -0.45593999997E+02  0.45594000000E+02  0.51100000000E-03 0.  1.
    9900012    2    1    2    0    0  0.21271855740E+02  0.40118873087E+01 -0.34417679467E+02  0.50528883602E+02  0.30000072197E+02 0.  0.
         12    1    1    2    0    0 -0.21271855740E+02 -0.40118873087E+01  0.34417679467E+02  0.40659116398E+02  0.00000000000E+00 0. -1.
         11    1    3    3    0    0  0.32165283176E+01  0.49473021488E+01  0.34101753271E+01  0.68155079776E+01  0.51100000000E-03 0. -1.
        -11    1    3    3    0    0  0.18939897049E+02  0.72670671710E+00 -0.28703527097E+02  0.34396806116E+02  0.51100000000E-03 0.  1.
        -12    1    3    3    0    0 -0.88456962723E+00 -0.16621215572E+01 -0.91243276965E+01  0.93165695086E+01  0.00000000000E+00 0.  1.
</event>
<event>
 7    1  0.5946946E-013  0.5052886E+02  0.7816164E-02  0.1300439E+00
        -11   -1    0    0    0    0  0.00000000000E+00  0.00000000000E+00  0.45593999997E+02  0.45594000000E+02  0.51100000000E-03 0.  1.
         11   -1    0    0    0    0 -0.00000000000E+00 -0.00000000000E+00 -0.45593999997E+02  0.45594000000E+02  0.51100000000E-03 0. -1.
    9900012    2    1    2    0    0  0.49091981603E+01 -0.25482450165E+02  0.31300321738E+02  0.50528860389E+02  0.30000001639E+02 0.  0.
         12    1    1    2    0    0 -0.49091981603E+01  0.25482450165E+02 -0.31300321738E+02  0.40659139611E+02  0.00000000000E+00 0. -1.
         11    1    3    3    0    0  0.89408904847E+01 -0.17157726560E+02  0.25880027251E+02  0.32312581360E+02  0.51100000000E-03 0. -1.
        -11    1    3    3    0    0 -0.52587609115E+01 -0.10300122606E+02 -0.78303564483E+00  0.11591386332E+02  0.51100000000E-03 0.  1.
        -12    1    3    3    0    0  0.12270685871E+01  0.19753990005E+01  0.62033301310E+01  0.66248926967E+01  0.00000000000E+00 0.  1.
</event>
<event>
 7    1  0.5946946E-013  0.5052886E+02  0.7816164E-02  0.1300439E+00
        -11   -1    0    0    0    0  0.00000000000E+00  0.00000000000E+00  0.45593999997E+02  0.45594000000E+02  0.51100000000E-03 0. -1.
         11   -1    0    0    0    0 -0.00000000000E+00 -0.00000000000E+00 -0.45593999997E+02  0.45594000000E+02  0.51100000000E-03 0.  1.
    9900012    2    1    2    0    0  0.34850389353E+02 -0.20712905071E+02 -0.30969873082E+01  0.50528863204E+02  0.30000010196E+02 0.  0.
         12    1    1    2    0    0 -0.34850389353E+02  0.20712905071E+02  0.30969873082E+01  0.40659136796E+02  0.00000000000E+00 0. -1.
         11    1    3    3    0    0  0.70297823195E+01 -0.14923261311E+02  0.82509168164E+01  0.18444489589E+02  0.51100000000E-03 0. -1.
        -11    1    3    3    0    0  0.15127881857E+02  0.23898198636E+00 -0.96144726582E+01  0.17926182154E+02  0.51100000000E-03 0.  1.
         12    1    3    3    0    0  0.12692725177E+02 -0.60286257464E+01 -0.17334314664E+01  0.14158191462E+02  0.00000000000E+00 0. -1.
</event>
<event>
 7    1  0.5946946E-013  0.5052887E+02  0.7816164E-02  0.1300439E+00
        -11   -1    0    0    0    0  0.00000000000E+00  0.00000000000E+00  0.45593999997E+02  0.45594000000E+02  0.51100000000E-03 0.  1.
         11   -1    0    0    0    0 -0.00000000000E+00 -0.00000000000E+00 -0.45593999997E+02  0.45594000000E+02  0.51100000000E-03 0. -1.
    9900012    2    1    2    0    0  0.25925194929E+02 -0.21990580483E+02  0.22303889887E+02  0.50528869830E+02  0.30000030335E+02 0.  0.
         12    1    1    2    0    0 -0.25925194929E+02  0.21990580483E+02 -0.22303889887E+02  0.40659130170E+02  0.00000000000E+00 0. -1.
         11    1    3    3    0    0  0.12645158930E+02 -0.19446610750E+02  0.62002977746E+01  0.24010714417E+02  0.51100000000E-03 0. -1.
        -11    1    3    3    0    0  0.84062116838E+01 -0.40300582104E+01  0.18628959054E+02  0.20831319684E+02  0.51100000000E-03 0.  1.
         12    1    3    3    0    0  0.48738243153E+01  0.14860884776E+01 -0.25253669421E+01  0.56868357293E+01  0.00000000000E+00 0. -1.
</event>
<event>
 7    1  0.5946946E-013  0.5052886E+02  0.7816164E-02  0.1300439E+00
        -11   -1    0    0    0    0  0.00000000000E+00  0.00000000000E+00  0.45593999997E+02  0.45594000000E+02  0.51100000000E-03 0.  1.
         11   -1    0    0    0    0 -0.00000000000E+00 -0.00000000000E+00 -0.45593999997E+02  0.45594000000E+02  0.51100000000E-03 0. -1.
    9900012    2    1    2    0    0  0.19814217919E+01 -0.92589325621E+01  0.39541262297E+02  0.50528864636E+02  0.30000014549E+02 0.  0.
         12    1    1    2    0    0 -0.19814217919E+01  0.92589325621E+01 -0.39541262297E+02  0.40659135364E+02  0.00000000000E+00 0. -1.
         11    1    3    3    0    0  0.21032113425E+01 -0.13237062434E+01 -0.33848675468E+01  0.41991695298E+01  0.51100000000E-03 0. -1.
        -11    1    3    3    0    0 -0.51858028144E+01 -0.93511470057E+01  0.18716394424E+02  0.21555507919E+02  0.51100000000E-03 0.  1.
         12    1    3    3    0    0  0.50640132638E+01  0.14159206870E+01  0.24209735419E+02  0.24774187187E+02  0.00000000000E+00 0. -1.
</event>
<event>
 7    1  0.5946946E-013  0.5052886E+02  0.7816164E-02  0.1300439E+00
        -11   -1    0    0    0    0  0.00000000000E+00  0.00000000000E+00  0.45593999997E+02  0.45594000000E+02  0.51100000000E-03 0.  1.
         11   -1    0    0    0    0 -0.00000000000E+00 -0.00000000000E+00 -0.45593999997E+02  0.45594000000E+02  0.51100000000E-03 0. -1.
    9900012    2    1    2    0    0 -0.31416429846E+02 -0.20622800204E+02  0.15520117689E+02  0.50528855818E+02  0.29999987744E+02 0.  0.
         12    1    1    2    0    0  0.31416429846E+02  0.20622800204E+02 -0.15520117689E+02  0.40659144182E+02  0.00000000000E+00 0. -1.
         11    1    3    3    0    0  0.15049564294E+01 -0.74396858215E+01  0.68770456397E+01  0.10242439942E+02  0.51100000000E-03 0. -1.
        -11    1    3    3    0    0 -0.23348229608E+02 -0.89050365058E+01  0.13859549041E+02  0.28574929587E+02  0.51100000000E-03 0.  1.
         12    1    3    3    0    0 -0.95731566676E+01 -0.42780778765E+01 -0.52164769917E+01  0.11711486289E+02  0.00000000000E+00 0. -1.
</event>
<event>
 7    1  0.5946946E-013  0.5052886E+02  0.7816164E-02  0.1300439E+00
        -11   -1    0    0    0    0  0.00000000000E+00  0.00000000000E+00  0.45593999997E+02  0.45594000000E+02  0.51100000000E-03 0.  1.
         11   -1    0    0    0    0 -0.00000000000E+00 -0.00000000000E+00 -0.45593999997E+02  0.45594000000E+02  0.51100000000E-03 0. -1.
    9900012    2    1    2    0    0 -0.14605711073E+02 -0.22970733356E+02  0.30202386461E+02  0.50528861608E+02  0.30000005343E+02 0.  0.
         12    1    1    2    0    0  0.14605711073E+02  0.22970733356E+02 -0.30202386461E+02  0.40659138392E+02  0.00000000000E+00 0. -1.
         11    1    3    3    0    0  0.23429123498E+01 -0.10569584122E+01 -0.49439777464E+01  0.55721912729E+01  0.51100000000E-03 0. -1.
        -11    1    3    3    0    0 -0.10565554827E+02 -0.11560781427E+02  0.17033994629E+02  0.23139567612E+02  0.51100000000E-03 0.  1.
         12    1    3    3    0    0 -0.63830685961E+01 -0.10352993517E+02  0.18112369578E+02  0.21817102722E+02  0.00000000000E+00 0. -1.
</event>
<event>
 7    1  0.5946946E-013  0.5052885E+02  0.7816164E-02  0.1300439E+00
        -11   -1    0    0    0    0  0.00000000000E+00  0.00000000000E+00  0.45593999997E+02  0.45594000000E+02  0.51100000000E-03 0.  1.
         11   -1    0    0    0    0 -0.00000000000E+00 -0.00000000000E+00 -0.45593999997E+02  0.45594000000E+02  0.51100000000E-03 0. -1.
    9900012    2    1    2    0    0  0.33436565008E+02  0.11369800901E+02  0.20146720267E+02  0.50528848636E+02  0.29999965915E+02 0.  0.
         12    1    1    2    0    0 -0.33436565008E+02 -0.11369800901E+02 -0.20146720267E+02  0.40659151364E+02  0.00000000000E+00 0. -1.
         11    1    3    3    0    0  0.31652909830E+01  0.10523611051E+02 -0.23874074115E+01  0.11245673433E+02  0.51100000000E-03 0. -1.
        -11    1    3    3    0    0  0.33430332342E+01 -0.21336234439E+01 -0.11924218841E+00  0.39676742766E+01  0.51100000000E-03 0.  1.
         12    1    3    3    0    0  0.26928240791E+02  0.29798132945E+01  0.22653369867E+02  0.35315500927E+02  0.00000000000E+00 0. -1.
</event>
<event>
 7    1  0.5946946E-013  0.5052878E+02  0.7816164E-02  0.1300439E+00
        -11   -1    0    0    0    0  0.00000000000E+00  0.00000000000E+00  0.45593999997E+02  0.45594000000E+02  0.51100000000E-03 0.  1.
         11   -1    0    0    0    0 -0.00000000000E+00 -0.00000000000E+00 -0.45593999997E+02  0.45594000000E+02  0.51100000000E-03 0. -1.
    9900012    2    1    2    0    0  0.39263627029E+02 -0.90980298323E+01  0.53633883902E+01  0.50528776086E+02  0.29999745389E+02 0.  0.
         12    1    1    2    0    0 -0.39263627029E+02  0.90980298323E+01 -0.53633883902E+01  0.40659223914E+02  0.00000000000E+00 0. -1.
         11    1    3    3    0    0  0.50047106896E-01  0.26123380127E+01  0.59663481913E+01  0.65133805053E+01  0.51100000000E-03 0. -1.
        -11    1    3    3    0    0  0.18981507617E+02 -0.12553692069E+02 -0.49854575937E+01  0.23296944084E+02  0.51100000000E-03 0.  1.
        -12    1    3    3    0    0  0.20232072305E+02  0.84332422370E+00  0.43824977926E+01  0.20718451496E+02  0.00000000000E+00 0.  1.
</event>
<event>
 7    1  0.5946946E-013  0.5052886E+02  0.7816164E-02  0.1300439E+00
        -11   -1    0    0    0    0  0.00000000000E+00  0.00000000000E+00  0.45593999997E+02  0.45594000000E+02  0.51100000000E-03 0.  1.
         11   -1    0    0    0    0 -0.00000000000E+00 -0.00000000000E+00 -0.45593999997E+02  0.45594000000E+02  0.51100000000E-03 0. -1.
    9900012    2    1    2    0    0 -0.26453136666E+02  0.22195304358E+02  0.21465450400E+02  0.50528861594E+02  0.30000005302E+02 0.  0.
         12    1    1    2    0    0  0.26453136666E+02 -0.22195304358E+02 -0.21465450400E+02  0.40659138406E+02  0.00000000000E+00 0. -1.
         11    1    3    3    0    0 -0.99999876879E+00 -0.49484936973E+01  0.61858677731E+01  0.79845192577E+01  0.51100000000E-03 0. -1.
        -11    1    3    3    0    0 -0.24677576519E+02  0.20195784977E+02  0.15694051610E+02  0.35540902773E+02  0.51100000000E-03 0.  1.
        -12    1    3    3    0    0 -0.77556137882E+00  0.69480130782E+01 -0.41446898365E+00  0.70034395639E+01  0.00000000000E+00 0.  1.
</event>
<event>
 7    1  0.5946946E-013  0.5052886E+02  0.7816164E-02  0.1300439E+00
        -11   -1    0    0    0    0  0.00000000000E+00  0.00000000000E+00  0.45593999997E+02  0.45594000000E+02  0.51100000000E-03 0.  1.
         11   -1    0    0    0    0 -0.00000000000E+00 -0.00000000000E+00 -0.45593999997E+02  0.45594000000E+02  0.51100000000E-03 0. -1.
    9900012    2    1    2    0    0  0.20051907986E+02  0.12667786168E+02  0.33024443998E+02  0.50528859310E+02  0.29999998357E+02 0.  0.
         12    1    1    2    0    0 -0.20051907986E+02 -0.12667786168E+02 -0.33024443998E+02  0.40659140690E+02  0.00000000000E+00 0. -1.
         11    1    3    3    0    0 -0.21230599586E+01  0.31099724284E+01  0.38847664713E+01  0.54102424059E+01  0.51100000000E-03 0. -1.
        -11    1    3    3    0    0  0.11807382221E+02 -0.27469421962E+01  0.33819943584E+00  0.12127421220E+02  0.51100000000E-03 0.  1.
        -12    1    3    3    0    0  0.10367585724E+02  0.12304755936E+02  0.28801478091E+02  0.32991195684E+02  0.00000000000E+00 0.  1.
</event>
<event>
 7    1  0.5946946E-013  0.5052885E+02  0.7816164E-02  0.1300439E+00
        -11   -1    0    0    0    0  0.00000000000E+00  0.00000000000E+00  0.45593999997E+02  0.45594000000E+02  0.51100000000E-03 0.  1.
         11   -1    0    0    0    0 -0.00000000000E+00 -0.00000000000E+00 -0.45593999997E+02  0.45594000000E+02  0.51100000000E-03 0. -1.
    9900012    2    1    2    0    0  0.35695925980E+01 -0.27607890456E+02  0.29634926277E+02  0.50528850203E+02  0.29999970676E+02 0.  0.
         12    1    1    2    0    0 -0.35695925980E+01  0.27607890456E+02 -0.29634926277E+02  0.40659149797E+02  0.00000000000E+00 0. -1.
         11    1    3    3    0    0  0.24232340734E+01  0.49178103947E+01  0.27807634204E+01  0.61473220116E+01  0.51100000000E-03 0. -1.
        -11    1    3    3    0    0  0.59817389820E+01 -0.17958023645E+02  0.93847615048E+01  0.21126891945E+02  0.51100000000E-03 0.  1.
         12    1    3    3    0    0 -0.48353804574E+01 -0.14567677206E+02  0.17469401352E+02  0.23254636246E+02  0.00000000000E+00 0. -1.
</event>
<event>
 7    1  0.5946946E-013  0.5052886E+02  0.7816164E-02  0.1300439E+00
        -11   -1    0    0    0    0  0.00000000000E+00  0.00000000000E+00  0.45593999997E+02  0.45594000000E+02  0.51100000000E-03 0. -1.
         11   -1    0    0    0    0 -0.00000000000E+00 -0.00000000000E+00 -0.45593999997E+02  0.45594000000E+02  0.51100000000E-03 0.  1.
    9900012    2    1    2    0    0  0.11936605280E+01 -0.38505889968E+01 -0.40458793551E+02  0.50528857895E+02  0.29999994058E+02 0.  0.
         12    1    1    2    0    0 -0.11936605280E+01  0.38505889968E+01  0.40458793551E+02  0.40659142105E+02  0.00000000000E+00 0. -1.
         11    1    3    3    0    0 -0.51693208587E+01 -0.15608848519E+02 -0.23237654977E+02  0.28466588122E+02  0.51100000000E-03 0. -1.
        -11    1    3    3    0    0  0.58797691712E+01  0.78997836388E+01 -0.11436752067E+02  0.15092301519E+02  0.51100000000E-03 0.  1.
         12    1    3    3    0    0  0.48321221550E+00  0.38584758835E+01 -0.57843865073E+01  0.69699682535E+01  0.00000000000E+00 0. -1.
</event>
<event>
 7    1  0.5946946E-013  0.5052887E+02  0.7816164E-02  0.1300439E+00
        -11   -1    0    0    0    0  0.00000000000E+00  0.00000000000E+00  0.45593999997E+02  0.45594000000E+02  0.51100000000E-03 0. -1.
         11   -1    0    0    0    0 -0.00000000000E+00 -0.00000000000E+00 -0.45593999997E+02  0.45594000000E+02  0.51100000000E-03 0.  1.
    9900012    2    1    2    0    0 -0.30668037536E+02 -0.33214254763E+01 -0.26487813253E+02  0.50528872557E+02  0.30000038623E+02 0.  0.
         12    1    1    2    0    0  0.30668037536E+02  0.33214254763E+01  0.26487813253E+02  0.40659127443E+02  0.00000000000E+00 0. -1.
         11    1    3    3    0    0 -0.19604613820E+02  0.10000295860E+02 -0.48412039524E+01  0.22534064353E+02  0.51100000000E-03 0. -1.
        -11    1    3    3    0    0 -0.85834684434E+01 -0.11171283076E+02 -0.19559772457E+02  0.24105148722E+02  0.51100000000E-03 0.  1.
        -12    1    3    3    0    0 -0.24799552732E+01 -0.21504382601E+01 -0.20868368436E+01  0.38896594812E+01  0.00000000000E+00 0.  1.
</event>
<event>
 7    1  0.5946946E-013  0.5052886E+02  0.7816164E-02  0.1300439E+00
        -11   -1    0    0    0    0  0.00000000000E+00  0.00000000000E+00  0.45593999997E+02  0.45594000000E+02  0.51100000000E-03 0.  1.
         11   -1    0    0    0    0 -0.00000000000E+00 -0.00000000000E+00 -0.45593999997E+02  0.45594000000E+02  0.51100000000E-03 0. -1.
    9900012    2    1    2    0    0 -0.36171513642E+02 -0.14423099791E+02  0.11694509717E+02  0.50528858786E+02  0.29999996767E+02 0.  0.
         12    1    1    2    0    0  0.36171513642E+02  0.14423099791E+02 -0.11694509717E+02  0.40659141214E+02  0.00000000000E+00 0. -1.
         11    1    3    3    0    0 -0.11962187898E+02 -0.72489264401E+01 -0.95337805354E+01  0.16927310637E+02  0.51100000000E-03 0. -1.
        -11    1    3    3    0    0 -0.12841478778E+02 -0.57883904504E+01  0.83788788084E+01  0.16389467702E+02  0.51100000000E-03 0.  1.
         12    1    3    3    0    0 -0.11367846965E+02 -0.13857829003E+01  0.12849411444E+02  0.17212080447E+02  0.00000000000E+00 0. -1.
</event>
<event>
 7    1  0.5946946E-013  0.5052886E+02  0.7816164E-02  0.1300439E+00
        -11   -1    0    0    0    0  0.00000000000E+00  0.00000000000E+00  0.45593999997E+02  0.45594000000E+02  0.51100000000E-03 0.  1.
         11   -1    0    0    0    0 -0.00000000000E+00 -0.00000000000E+00 -0.45593999997E+02  0.45594000000E+02  0.51100000000E-03 0. -1.
    9900012    2    1    2    0    0 -0.35345710718E+02 -0.15146633046E+02 -0.13207051806E+02  0.50528856180E+02  0.29999988844E+02 0.  0.
         12    1    1    2    0    0  0.35345710718E+02  0.15146633046E+02  0.13207051806E+02  0.40659143820E+02  0.00000000000E+00 0. -1.
         11    1    3    3    0    0 -0.13504820097E+02 -0.16780653880E+02  0.30071851145E+01  0.21748877513E+02  0.51100000000E-03 0. -1.
        -11    1    3    3    0    0 -0.19076745395E+02 -0.20085418708E+01 -0.12583796714E+02  0.22941412235E+02  0.51100000000E-03 0.  1.
         12    1    3    3    0    0 -0.27641452253E+01  0.36425627049E+01 -0.36304402064E+01  0.58385664317E+01  0.00000000000E+00 0. -1.
</event>
<event>
 7    1  0.5946946E-013  0.5052884E+02  0.7816164E-02  0.1300439E+00
        -11   -1    0    0    0    0  0.00000000000E+00  0.00000000000E+00  0.45593999997E+02  0.45594000000E+02  0.51100000000E-03 0.  1.
         11   -1    0    0    0    0 -0.00000000000E+00 -0.00000000000E+00 -0.45593999997E+02  0.45594000000E+02  0.51100000000E-03 0. -1.
    9900012    2    1    2    0    0 -0.33183522130E+02  0.45920291906E+01  0.23042022816E+02  0.50528835123E+02  0.29999924839E+02 0.  0.
         12    1    1    2    0    0  0.33183522130E+02 -0.45920291906E+01 -0.23042022816E+02  0.40659164877E+02  0.00000000000E+00 0. -1.
         11    1    3    3    0    0 -0.17180292448E+02 -0.20068784772E+00 -0.32064225462E+01  0.17478096865E+02  0.51100000000E-03 0. -1.
        -11    1    3    3    0    0 -0.63056496627E+01  0.76561314324E+01  0.11786991955E+02  0.15404893566E+02  0.51100000000E-03 0.  1.
         12    1    3    3    0    0 -0.96975800189E+01 -0.28634143941E+01  0.14461453407E+02  0.17645844691E+02  0.00000000000E+00 0. -1.
</event>
<event>
 7    1  0.5946946E-013  0.5052886E+02  0.7816164E-02  0.1300439E+00
        -11   -1    0    0    0    0  0.00000000000E+00  0.00000000000E+00  0.45593999997E+02  0.45594000000E+02  0.51100000000E-03 0. -1.
         11   -1    0    0    0    0 -0.00000000000E+00 -0.00000000000E+00 -0.45593999997E+02  0.45594000000E+02  0.51100000000E-03 0.  1.
    9900012    2    1    2    0    0 -0.19052723669E+02  0.35577869803E+02  0.49370388929E+01  0.50528862627E+02  0.30000008440E+02 0.  0.
         12    1    1    2    0    0  0.19052723669E+02 -0.35577869803E+02 -0.49370388929E+01  0.40659137373E+02  0.00000000000E+00 0. -1.
         11    1    3    3    0    0 -0.32964887529E+01  0.69166990868E+01 -0.89258875038E+01  0.11763461750E+02  0.51100000000E-03 0. -1.
        -11    1    3    3    0    0 -0.10369249609E+02  0.16888537257E+02  0.16216007015E+02  0.25606696622E+02  0.51100000000E-03 0.  1.
         12    1    3    3    0    0 -0.53869853071E+01  0.11772633459E+02 -0.23530806179E+01  0.13158704254E+02  0.00000000000E+00 0. -1.
</event>
<event>
 7    1  0.5946946E-013  0.5052885E+02  0.7816164E-02  0.1300439E+00
        -11   -1    0    0    0    0  0.00000000000E+00  0.00000000000E+00  0.45593999997E+02  0.45594000000E+02  0.51100000000E-03 0.  1.
         11   -1    0    0    0    0 -0.00000000000E+00 -0.00000000000E+00 -0.45593999997E+02  0.45594000000E+02  0.51100000000E-03 0. -1.
    9900012    2    1    2    0    0 -0.19858767473E+02  0.70285331951E+01  0.34776359235E+02  0.50528854829E+02  0.29999984738E+02 0.  0.
         12    1    1    2    0    0  0.19858767473E+02 -0.70285331951E+01 -0.34776359235E+02  0.40659145171E+02  0.00000000000E+00 0. -1.
         11    1    3    3    0    0  0.91318729982E+00 -0.27778172898E+00 -0.40402723931E+00  0.10364902338E+01  0.51100000000E-03 0. -1.
        -11    1    3    3    0    0 -0.21212408758E+02  0.24560471284E+01  0.95307841303E+01  0.23384488431E+02  0.51100000000E-03 0.  1.
        -12    1    3    3    0    0  0.44045398471E+00  0.48502677957E+01  0.25649602344E+02  0.26107876164E+02  0.00000000000E+00 0.  1.
</event>
<event>
 7    1  0.5946946E-013  0.5052886E+02  0.7816164E-02  0.1300439E+00
        -11   -1    0    0    0    0  0.00000000000E+00  0.00000000000E+00  0.45593999997E+02  0.45594000000E+02  0.51100000000E-03 0.  1.
         11   -1    0    0    0    0 -0.00000000000E+00 -0.00000000000E+00 -0.45593999997E+02  0.45594000000E+02  0.51100000000E-03 0. -1.
    9900012    2    1    2    0    0  0.16946325585E+02 -0.17216888648E+02  0.32704223322E+02  0.50528862913E+02  0.30000009311E+02 0.  0.
         12    1    1    2    0    0 -0.16946325585E+02  0.17216888648E+02 -0.32704223322E+02  0.40659137087E+02  0.00000000000E+00 0. -1.
         11    1    3    3    0    0 -0.36426634990E+00 -0.92284611636E+01  0.14278036814E+02  0.17004691145E+02  0.51100000000E-03 0. -1.
        -11    1    3    3    0    0  0.15724936248E+02 -0.14436183549E+02  0.14582817465E+02  0.25852187159E+02  0.51100000000E-03 0.  1.
        -12    1    3    3    0    0  0.15856556879E+01  0.64477560650E+01  0.38433690430E+01  0.76719846086E+01  0.00000000000E+00 0.  1.
</event>
<event>
 7    1  0.5946946E-013  0.5052885E+02  0.7816164E-02  0.1300439E+00
        -11   -1    0    0    0    0  0.00000000000E+00  0.00000000000E+00  0.45593999997E+02  0.45594000000E+02  0.51100000000E-03 0.  1.
         11   -1    0    0    0    0 -0.00000000000E+00 -0.00000000000E+00 -0.45593999997E+02  0.45594000000E+02  0.51100000000E-03 0. -1.
    9900012    2    1    2    0    0  0.83718186603E+01  0.15380266356E+02  0.36695043289E+02  0.50528854131E+02  0.29999982616E+02 0.  0.
         12    1    1    2    0    0 -0.83718186603E+01 -0.15380266356E+02 -0.36695043289E+02  0.40659145869E+02  0.00000000000E+00 0. -1.
         11    1    3    3    0    0 -0.16776238098E-01  0.54011762312E+00  0.20119685208E+02  0.20126940692E+02  0.51100000000E-03 0.  1.
        -11    1    3    3    0    0  0.57245738490E+01  0.94233623006E+01 -0.16993091699E+01  0.11156081513E+02  0.51100000000E-03 0. -1.
         12    1    3    3    0    0  0.26640210493E+01  0.54167864319E+01  0.18274667251E+02  0.19245831926E+02  0.00000000000E+00 0. -1.
</event>
<event>
 7    1  0.5946946E-013  0.5052886E+02  0.7816164E-02  0.1300439E+00
        -11   -1    0    0    0    0  0.00000000000E+00  0.00000000000E+00  0.45593999997E+02  0.45594000000E+02  0.51100000000E-03 0. -1.
         11   -1    0    0    0    0 -0.00000000000E+00 -0.00000000000E+00 -0.45593999997E+02  0.45594000000E+02  0.51100000000E-03 0.  1.
    9900012    2    1    2    0    0  0.19966070495E+01  0.10044661677E+02 -0.39348243406E+02  0.50528856784E+02  0.29999990681E+02 0.  0.
         12    1    1    2    0    0 -0.19966070495E+01 -0.10044661677E+02  0.39348243406E+02  0.40659143216E+02  0.00000000000E+00 0. -1.
         11    1    3    3    0    0 -0.63518969778E+01  0.28827726441E+01 -0.18417556058E+01  0.72145018751E+01  0.51100000000E-03 0. -1.
        -11    1    3    3    0    0  0.87846161713E+01  0.12680847929E+02 -0.31904987158E+02  0.35438701885E+02  0.51100000000E-03 0.  1.
        -12    1    3    3    0    0 -0.43611214402E+00 -0.55189588967E+01 -0.56015006420E+01  0.78756530236E+01  0.00000000000E+00 0.  1.
</event>
<event>
 7    1  0.5946946E-013  0.5052885E+02  0.7816164E-02  0.1300439E+00
        -11   -1    0    0    0    0  0.00000000000E+00  0.00000000000E+00  0.45593999997E+02  0.45594000000E+02  0.51100000000E-03 0.  1.
         11   -1    0    0    0    0 -0.00000000000E+00 -0.00000000000E+00 -0.45593999997E+02  0.45594000000E+02  0.51100000000E-03 0. -1.
    9900012    2    1    2    0    0  0.18658728806E+02  0.25680727386E+02  0.25407058437E+02  0.50528849269E+02  0.29999967839E+02 0.  0.
         12    1    1    2    0    0 -0.18658728806E+02 -0.25680727386E+02 -0.25407058437E+02  0.40659150731E+02  0.00000000000E+00 0. -1.
         11    1    3    3    0    0  0.91169439588E+01  0.12070542675E+02 -0.47836463124E+01  0.15865054047E+02  0.51100000000E-03 0. -1.
        -11    1    3    3    0    0  0.79841949907E+01  0.92866416495E+01  0.19496077337E+02  0.23023599080E+02  0.51100000000E-03 0.  1.
         12    1    3    3    0    0  0.15575898569E+01  0.43235430615E+01  0.10694627412E+02  0.11640196143E+02  0.00000000000E+00 0. -1.
</event>
<event>
 7    1  0.5946946E-013  0.5052885E+02  0.7816164E-02  0.1300439E+00
        -11   -1    0    0    0    0  0.00000000000E+00  0.00000000000E+00  0.45593999997E+02  0.45594000000E+02  0.51100000000E-03 0. -1.
         11   -1    0    0    0    0 -0.00000000000E+00 -0.00000000000E+00 -0.45593999997E+02  0.45594000000E+02  0.51100000000E-03 0.  1.
    9900012    2    1    2    0    0  0.19059180082E+02 -0.34214220925E+02 -0.10922522000E+02  0.50528846717E+02  0.29999960080E+02 0.  0.
         12    1    1    2    0    0 -0.19059180082E+02  0.34214220925E+02  0.10922522000E+02  0.40659153283E+02  0.00000000000E+00 0. -1.
         11    1    3    3    0    0  0.43317790267E+01 -0.13470843222E+02 -0.13256690688E+01  0.14212154143E+02  0.51100000000E-03 0. -1.
        -11    1    3    3    0    0 -0.41279826547E+01  0.23059340649E+01 -0.35923818453E+01  0.59382472408E+01  0.51100000000E-03 0.  1.
        -12    1    3    3    0    0  0.18855383710E+02 -0.23049311768E+02 -0.60044710855E+01  0.30378445333E+02  0.00000000000E+00 0.  1.
</event>
<event>
 7    1  0.5946946E-013  0.5052887E+02  0.7816164E-02  0.1300439E+00
        -11   -1    0    0    0    0  0.00000000000E+00  0.00000000000E+00  0.45593999997E+02  0.45594000000E+02  0.51100000000E-03 0.  1.
         11   -1    0    0    0    0 -0.00000000000E+00 -0.00000000000E+00 -0.45593999997E+02  0.45594000000E+02  0.51100000000E-03 0. -1.
    9900012    2    1    2    0    0  0.36526783758E+01  0.35577912000E+02  0.19339980202E+02  0.50528871679E+02  0.30000035956E+02 0.  0.
         12    1    1    2    0    0 -0.36526783758E+01 -0.35577912000E+02 -0.19339980202E+02  0.40659128321E+02  0.00000000000E+00 0. -1.
         11    1    3    3    0    0  0.23729797547E+01  0.11209095248E+01  0.18667450929E+01  0.32205913404E+01  0.51100000000E-03 0. -1.
        -11    1    3    3    0    0  0.12184208007E+02  0.23398550343E+02  0.38711601655E+01  0.26663326203E+02  0.51100000000E-03 0.  1.
        -12    1    3    3    0    0 -0.10904509386E+02  0.11058452132E+02  0.13602074944E+02  0.20644954136E+02  0.00000000000E+00 0.  1.
</event>
<event>
 7    1  0.5946946E-013  0.5052885E+02  0.7816164E-02  0.1300439E+00
        -11   -1    0    0    0    0  0.00000000000E+00  0.00000000000E+00  0.45593999997E+02  0.45594000000E+02  0.51100000000E-03 0. -1.
         11   -1    0    0    0    0 -0.00000000000E+00 -0.00000000000E+00 -0.45593999997E+02  0.45594000000E+02  0.51100000000E-03 0.  1.
    9900012    2    1    2    0    0  0.33704290702E+02  0.69544533164E+01 -0.21652313144E+02  0.50528852233E+02  0.29999976849E+02 0.  0.
         12    1    1    2    0    0 -0.33704290702E+02 -0.69544533164E+01  0.21652313144E+02  0.40659147767E+02  0.00000000000E+00 0. -1.
         11    1    3    3    0    0  0.31102855280E+02  0.61112992990E+01 -0.12580242397E+02  0.34102757729E+02  0.51100000000E-03 0. -1.
        -11    1    3    3    0    0  0.91175892928E+00  0.59994201635E+01 -0.25559464005E+00  0.60736871442E+01  0.51100000000E-03 0.  1.
         12    1    3    3    0    0  0.16896764928E+01 -0.51562661462E+01 -0.88164761067E+01  0.10352407361E+02  0.00000000000E+00 0. -1.
</event>
<event>
 7    1  0.5946946E-013  0.5052886E+02  0.7816164E-02  0.1300439E+00
        -11   -1    0    0    0    0  0.00000000000E+00  0.00000000000E+00  0.45593999997E+02  0.45594000000E+02  0.51100000000E-03 0.  1.
         11   -1    0    0    0    0 -0.00000000000E+00 -0.00000000000E+00 -0.45593999997E+02  0.45594000000E+02  0.51100000000E-03 0. -1.
    9900012    2    1    2    0    0 -0.19208816923E+02  0.42661910870E+01  0.35580700773E+02  0.50528864477E+02  0.30000014065E+02 0.  0.
         12    1    1    2    0    0  0.19208816923E+02 -0.42661910870E+01 -0.35580700773E+02  0.40659135523E+02  0.00000000000E+00 0. -1.
         11    1    3    3    0    0 -0.12537672034E+02 -0.58647024755E+01  0.22996170211E+02  0.26840488069E+02  0.51100000000E-03 0.  1.
        -11    1    3    3    0    0  0.37878896498E+01  0.87282305486E+01  0.58130423622E+01  0.11149958667E+02  0.51100000000E-03 0. -1.
        -12    1    3    3    0    0 -0.10459034539E+02  0.14026630139E+01  0.67714881995E+01  0.12538417741E+02  0.00000000000E+00 0.  1.
</event>
<event>
 7    1  0.5946946E-013  0.5052885E+02  0.7816164E-02  0.1300439E+00
        -11   -1    0    0    0    0  0.00000000000E+00  0.00000000000E+00  0.45593999997E+02  0.45594000000E+02  0.51100000000E-03 0. -1.
         11   -1    0    0    0    0 -0.00000000000E+00 -0.00000000000E+00 -0.45593999997E+02  0.45594000000E+02  0.51100000000E-03 0.  1.
    9900012    2    1    2    0    0 -0.16070480830E+02  0.33506360799E+02 -0.16499385800E+02  0.50528852199E+02  0.29999976746E+02 0.  0.
         12    1    1    2    0    0  0.16070480830E+02 -0.33506360799E+02  0.16499385800E+02  0.40659147801E+02  0.00000000000E+00 0. -1.
         11    1    3    3    0    0 -0.46922742700E+01  0.21139882901E+02  0.43014856770E+00  0.21658649888E+02  0.51100000000E-03 0. -1.
        -11    1    3    3    0    0 -0.14064273146E+02  0.44166036666E+01 -0.12774957265E+02  0.19506657850E+02  0.51100000000E-03 0.  1.
        -12    1    3    3    0    0  0.26860665862E+01  0.79498742310E+01 -0.41545771022E+01  0.93635444620E+01  0.00000000000E+00 0.  1.
</event>
<event>
 7    1  0.5946946E-013  0.5052887E+02  0.7816164E-02  0.1300439E+00
        -11   -1    0    0    0    0  0.00000000000E+00  0.00000000000E+00  0.45593999997E+02  0.45594000000E+02  0.51100000000E-03 0. -1.
         11   -1    0    0    0    0 -0.00000000000E+00 -0.00000000000E+00 -0.45593999997E+02  0.45594000000E+02  0.51100000000E-03 0.  1.
    9900012    2    1    2    0    0 -0.32158554258E+02  0.94577571464E+01 -0.23011809440E+02  0.50528866267E+02  0.30000019506E+02 0.  0.
         12    1    1    2    0    0  0.32158554258E+02 -0.94577571464E+01  0.23011809440E+02  0.40659133733E+02  0.00000000000E+00 0. -1.
         11    1    3    3    0    0 -0.52500016107E+01 -0.79013939078E+01  0.54823926696E+00  0.95023738694E+01  0.51100000000E-03 0. -1.
        -11    1    3    3    0    0 -0.25200475135E+02  0.16375767843E+02 -0.17779221498E+02  0.34918912308E+02  0.51100000000E-03 0.  1.
         12    1    3    3    0    0 -0.17080775126E+01  0.98338321139E+00 -0.57808272089E+01  0.61075800894E+01  0.00000000000E+00 0. -1.
</event>
<event>
 7    1  0.5946946E-013  0.5052893E+02  0.7816164E-02  0.1300439E+00
        -11   -1    0    0    0    0  0.00000000000E+00  0.00000000000E+00  0.45593999997E+02  0.45594000000E+02  0.51100000000E-03 0.  1.
         11   -1    0    0    0    0 -0.00000000000E+00 -0.00000000000E+00 -0.45593999997E+02  0.45594000000E+02  0.51100000000E-03 0. -1.
    9900012    2    1    2    0    0 -0.18654158359E+02 -0.29298071936E+02  0.21137769249E+02  0.50528930506E+02  0.30000214766E+02 0.  0.
         12    1    1    2    0    0  0.18654158359E+02  0.29298071936E+02 -0.21137769249E+02  0.40659069494E+02  0.00000000000E+00 0. -1.
         11    1    3    3    0    0 -0.13791960164E+02 -0.12298992911E+01  0.42992116599E+01  0.14498759898E+02  0.51100000000E-03 0. -1.
        -11    1    3    3    0    0  0.38860934385E+01 -0.82316683617E+01  0.94616750336E+01  0.13129561338E+02  0.51100000000E-03 0.  1.
         12    1    3    3    0    0 -0.87482916331E+01 -0.19836504284E+02  0.73768825557E+01  0.22900609270E+02  0.00000000000E+00 0. -1.
</event>
<event>
 7    1  0.5946946E-013  0.5052889E+02  0.7816164E-02  0.1300439E+00
        -11   -1    0    0    0    0  0.00000000000E+00  0.00000000000E+00  0.45593999997E+02  0.45594000000E+02  0.51100000000E-03 0. -1.
         11   -1    0    0    0    0 -0.00000000000E+00 -0.00000000000E+00 -0.45593999997E+02  0.45594000000E+02  0.51100000000E-03 0.  1.
    9900012    2    1    2    0    0  0.37235457712E+02  0.12450354156E+02  0.10567537179E+02  0.50528886979E+02  0.30000082462E+02 0.  0.
         12    1    1    2    0    0 -0.37235457712E+02 -0.12450354156E+02 -0.10567537179E+02  0.40659113021E+02  0.00000000000E+00 0. -1.
         11    1    3    3    0    0  0.33896986231E+02  0.11143414891E+02  0.10150961480E+02  0.37097484958E+02  0.51100000000E-03 0.  1.
        -11    1    3    3    0    0 -0.45250500983E+01  0.11961334072E+01  0.24855342996E+01  0.52994994609E+01  0.51100000000E-03 0. -1.
         12    1    3    3    0    0  0.78635215788E+01  0.11080585743E+00 -0.20689586008E+01  0.81319025603E+01  0.00000000000E+00 0. -1.
</event>
<event>
 7    1  0.5946946E-013  0.5052886E+02  0.7816164E-02  0.1300439E+00
        -11   -1    0    0    0    0  0.00000000000E+00  0.00000000000E+00  0.45593999997E+02  0.45594000000E+02  0.51100000000E-03 0. -1.
         11   -1    0    0    0    0 -0.00000000000E+00 -0.00000000000E+00 -0.45593999997E+02  0.45594000000E+02  0.51100000000E-03 0.  1.
    9900012    2    1    2    0    0 -0.23180286247E+02 -0.32976536510E+02 -0.53280657982E+01  0.50528856922E+02  0.29999991099E+02 0.  0.
         12    1    1    2    0    0  0.23180286247E+02  0.32976536510E+02  0.53280657982E+01  0.40659143078E+02  0.00000000000E+00 0. -1.
         11    1    3    3    0    0 -0.18813613480E+02 -0.77423914912E+01  0.44436541555E+01  0.20824090393E+02  0.51100000000E-03 0. -1.
        -11    1    3    3    0    0 -0.39336326958E+01 -0.44454707091E+01 -0.62424999857E+01  0.86142023626E+01  0.51100000000E-03 0.  1.
         12    1    3    3    0    0 -0.43304007154E+00 -0.20788674310E+02 -0.35292199679E+01  0.21090564166E+02  0.00000000000E+00 0. -1.
</event>
<event>
 7    1  0.5946946E-013  0.5052880E+02  0.7816164E-02  0.1300439E+00
        -11   -1    0    0    0    0  0.00000000000E+00  0.00000000000E+00  0.45593999997E+02  0.45594000000E+02  0.51100000000E-03 0. -1.
         11   -1    0    0    0    0 -0.00000000000E+00 -0.00000000000E+00 -0.45593999997E+02  0.45594000000E+02  0.51100000000E-03 0.  1.
    9900012    2    1    2    0    0  0.38324918435E+02  0.31434104499E+01 -0.13209460817E+02  0.50528803533E+02  0.29999828818E+02 0.  0.
         12    1    1    2    0    0 -0.38324918435E+02 -0.31434104499E+01  0.13209460817E+02  0.40659196467E+02  0.00000000000E+00 0. -1.
         11    1    3    3    0    0  0.25806176902E+00 -0.29963246014E+01 -0.29294055374E+01  0.41983299129E+01  0.51100000000E-03 0. -1.
        -11    1    3    3    0    0  0.40019224527E+02  0.20538563820E+01 -0.11407257180E+02  0.41663919336E+02  0.51100000000E-03 0.  1.
        -12    1    3    3    0    0 -0.19523678612E+01  0.40858786692E+01  0.11272018998E+01  0.46665542843E+01  0.00000000000E+00 0.  1.
</event>
<event>
 7    1  0.5946946E-013  0.5052887E+02  0.7816164E-02  0.1300439E+00
        -11   -1    0    0    0    0  0.00000000000E+00  0.00000000000E+00  0.45593999997E+02  0.45594000000E+02  0.51100000000E-03 0.  1.
         11   -1    0    0    0    0 -0.00000000000E+00 -0.00000000000E+00 -0.45593999997E+02  0.45594000000E+02  0.51100000000E-03 0. -1.
    9900012    2    1    2    0    0  0.25254049371E+02 -0.26271363294E+02  0.18033673462E+02  0.50528869199E+02  0.30000028416E+02 0.  0.
         12    1    1    2    0    0 -0.25254049371E+02  0.26271363294E+02 -0.18033673462E+02  0.40659130801E+02  0.00000000000E+00 0. -1.
         11    1    3    3    0    0  0.19676646511E+02 -0.17233774959E+02  0.18358155724E+02  0.31956146499E+02  0.51100000000E-03 0. -1.
        -11    1    3    3    0    0  0.10728713605E+02 -0.74221402839E+01 -0.12103637896E+01  0.13101848831E+02  0.51100000000E-03 0.  1.
         12    1    3    3    0    0 -0.51513107454E+01 -0.16154480516E+01  0.88588152791E+00  0.54708738685E+01  0.00000000000E+00 0. -1.
</event>
<event>
 7    1  0.5946946E-013  0.5052885E+02  0.7816164E-02  0.1300439E+00
        -11   -1    0    0    0    0  0.00000000000E+00  0.00000000000E+00  0.45593999997E+02  0.45594000000E+02  0.51100000000E-03 0.  1.
         11   -1    0    0    0    0 -0.00000000000E+00 -0.00000000000E+00 -0.45593999997E+02  0.45594000000E+02  0.51100000000E-03 0. -1.
    9900012    2    1    2    0    0 -0.26211788539E+02 -0.18236735061E+02  0.25170017620E+02  0.50528854029E+02  0.29999982306E+02 0.  0.
         12    1    1    2    0    0  0.26211788539E+02  0.18236735061E+02 -0.25170017620E+02  0.40659145971E+02  0.00000000000E+00 0. -1.
         11    1    3    3    0    0  0.23581309948E+01 -0.41351016166E+01  0.18078137818E+01  0.50919581792E+01  0.51100000000E-03 0. -1.
        -11    1    3    3    0    0 -0.15423407220E+02 -0.14417997213E+01  0.22303369670E+02  0.27155120615E+02  0.51100000000E-03 0.  1.
        -12    1    3    3    0    0 -0.13146512315E+02 -0.12659833723E+02  0.10588341675E+01  0.18281775235E+02  0.00000000000E+00 0.  1.
</event>
<event>
 7    1  0.5946946E-013  0.5052887E+02  0.7816164E-02  0.1300439E+00
        -11   -1    0    0    0    0  0.00000000000E+00  0.00000000000E+00  0.45593999997E+02  0.45594000000E+02  0.51100000000E-03 0. -1.
         11   -1    0    0    0    0 -0.00000000000E+00 -0.00000000000E+00 -0.45593999997E+02  0.45594000000E+02  0.51100000000E-03 0.  1.
    9900012    2    1    2    0    0  0.15852556353E+02 -0.11490063506E+02 -0.35634810749E+02  0.50528870160E+02  0.30000031337E+02 0.  0.
         12    1    1    2    0    0 -0.15852556353E+02  0.11490063506E+02  0.35634810749E+02  0.40659129840E+02  0.00000000000E+00 0. -1.
         11    1    3    3    0    0  0.56135255142E+01 -0.55294910405E-01  0.42634100687E+01  0.70492121475E+01  0.51100000000E-03 0. -1.
        -11    1    3    3    0    0  0.10307060092E+02 -0.11841153827E+02 -0.32735700715E+02  0.36305295940E+02  0.51100000000E-03 0.  1.
         12    1    3    3    0    0 -0.68029253103E-01  0.40638523124E+00 -0.71625201019E+01  0.71743620724E+01  0.00000000000E+00 0. -1.
</event>
<event>
 7    1  0.5946946E-013  0.5052886E+02  0.7816164E-02  0.1300439E+00
        -11   -1    0    0    0    0  0.00000000000E+00  0.00000000000E+00  0.45593999997E+02  0.45594000000E+02  0.51100000000E-03 0.  1.
         11   -1    0    0    0    0 -0.00000000000E+00 -0.00000000000E+00 -0.45593999997E+02  0.45594000000E+02  0.51100000000E-03 0. -1.
    9900012    2    1    2    0    0  0.39804571961E+02 -0.28849941502E+01  0.77742199363E+01  0.50528860365E+02  0.30000001564E+02 0.  0.
         12    1    1    2    0    0 -0.39804571961E+02  0.28849941502E+01 -0.77742199363E+01  0.40659139635E+02  0.00000000000E+00 0. -1.
         11    1    3    3    0    0 -0.32348616782E+01 -0.24107420344E+01  0.15325167540E+01  0.43156245314E+01  0.51100000000E-03 0. -1.
        -11    1    3    3    0    0  0.43609677278E+02 -0.13031776816E+01  0.78367426153E+01  0.44327381599E+02  0.51100000000E-03 0.  1.
        -12    1    3    3    0    0 -0.57024363813E+00  0.82892556580E+00 -0.15950394329E+01  0.18858542343E+01  0.00000000000E+00 0.  1.
</event>
<event>
 7    1  0.5946946E-013  0.5052886E+02  0.7816164E-02  0.1300439E+00
        -11   -1    0    0    0    0  0.00000000000E+00  0.00000000000E+00  0.45593999997E+02  0.45594000000E+02  0.51100000000E-03 0.  1.
         11   -1    0    0    0    0 -0.00000000000E+00 -0.00000000000E+00 -0.45593999997E+02  0.45594000000E+02  0.51100000000E-03 0. -1.
    9900012    2    1    2    0    0  0.28824882549E+01  0.39446284421E+02  0.94258999071E+01  0.50528859795E+02  0.29999999833E+02 0.  0.
         12    1    1    2    0    0 -0.28824882549E+01 -0.39446284421E+02 -0.94258999071E+01  0.40659140205E+02  0.00000000000E+00 0. -1.
         11    1    3    3    0    0  0.15133474677E+01  0.11911660986E+02  0.14168431808E+02  0.18572085187E+02  0.51100000000E-03 0. -1.
        -11    1    3    3    0    0 -0.10494013879E+01  0.27774052406E+02 -0.69760579742E+01  0.28655969979E+02  0.51100000000E-03 0.  1.
        -12    1    3    3    0    0  0.24185421751E+01 -0.23942897085E+00  0.22335260729E+01  0.33008046296E+01  0.00000000000E+00 0.  1.
</event>
<event>
 7    1  0.5946946E-013  0.5052886E+02  0.7816164E-02  0.1300439E+00
        -11   -1    0    0    0    0  0.00000000000E+00  0.00000000000E+00  0.45593999997E+02  0.45594000000E+02  0.51100000000E-03 0.  1.
         11   -1    0    0    0    0 -0.00000000000E+00 -0.00000000000E+00 -0.45593999997E+02  0.45594000000E+02  0.51100000000E-03 0. -1.
    9900012    2    1    2    0    0  0.74672448656E+01 -0.83620248916E+01  0.39083017138E+02  0.50528862838E+02  0.30000009081E+02 0.  0.
         12    1    1    2    0    0 -0.74672448656E+01  0.83620248916E+01 -0.39083017138E+02  0.40659137162E+02  0.00000000000E+00 0. -1.
         11    1    3    3    0    0 -0.10502987212E+00  0.74149469141E+00 -0.20191471480E+01  0.21535554596E+01  0.51100000000E-03 0. -1.
        -11    1    3    3    0    0  0.11095925500E+02  0.22533597577E+01  0.30162560343E+02  0.32217654161E+02  0.51100000000E-03 0.  1.
        -12    1    3    3    0    0 -0.35236507627E+01 -0.11356879341E+02  0.10939603943E+02  0.16157653217E+02  0.00000000000E+00 0.  1.
</event>
<event>
 7    1  0.5946946E-013  0.5052882E+02  0.7816164E-02  0.1300439E+00
        -11   -1    0    0    0    0  0.00000000000E+00  0.00000000000E+00  0.45593999997E+02  0.45594000000E+02  0.51100000000E-03 0.  1.
         11   -1    0    0    0    0 -0.00000000000E+00 -0.00000000000E+00 -0.45593999997E+02  0.45594000000E+02  0.51100000000E-03 0. -1.
    9900012    2    1    2    0    0 -0.29038627461E+02  0.16406404283E+02  0.23254173768E+02  0.50528824111E+02  0.29999891368E+02 0.  0.
         12    1    1    2    0    0  0.29038627461E+02 -0.16406404283E+02 -0.23254173768E+02  0.40659175889E+02  0.00000000000E+00 0. -1.
         11    1    3    3    0    0  0.29211583365E+01 -0.16980608591E+00 -0.31061707007E+01  0.42673524364E+01  0.51100000000E-03 0. -1.
        -11    1    3    3    0    0 -0.31868739538E+02  0.17034618784E+02  0.27248483815E+02  0.45257868568E+02  0.51100000000E-03 0.  1.
        -12    1    3    3    0    0 -0.91046259980E-01 -0.45840841502E+00 -0.88813934654E+00  0.10036031065E+01  0.00000000000E+00 0.  1.
</event>
<event>
 7    1  0.5946946E-013  0.5052887E+02  0.7816164E-02  0.1300439E+00
        -11   -1    0    0    0    0  0.00000000000E+00  0.00000000000E+00  0.45593999997E+02  0.45594000000E+02  0.51100000000E-03 0.  1.
         11   -1    0    0    0    0 -0.00000000000E+00 -0.00000000000E+00 -0.45593999997E+02  0.45594000000E+02  0.51100000000E-03 0. -1.
    9900012    2    1    2    0    0 -0.97748625842E+01  0.33432049261E+02  0.20974147332E+02  0.50528871718E+02  0.30000036074E+02 0.  0.
         12    1    1    2    0    0  0.97748625842E+01 -0.33432049261E+02 -0.20974147332E+02  0.40659128282E+02  0.00000000000E+00 0. -1.
         11    1    3    3    0    0 -0.43183205912E+01 -0.29397126651E+01  0.11774228629E+01  0.53550096303E+01  0.51100000000E-03 0. -1.
        -11    1    3    3    0    0  0.31240312775E+01  0.19131741283E+02  0.16865150397E+02  0.25694676377E+02  0.51100000000E-03 0.  1.
         12    1    3    3    0    0 -0.85805732705E+01  0.17240020643E+02  0.29315740727E+01  0.19479185711E+02  0.00000000000E+00 0. -1.
</event>
<event>
 7    1  0.5946946E-013  0.5052886E+02  0.7816164E-02  0.1300439E+00
        -11   -1    0    0    0    0  0.00000000000E+00  0.00000000000E+00  0.45593999997E+02  0.45594000000E+02  0.51100000000E-03 0.  1.
         11   -1    0    0    0    0 -0.00000000000E+00 -0.00000000000E+00 -0.45593999997E+02  0.45594000000E+02  0.51100000000E-03 0. -1.
    9900012    2    1    2    0    0 -0.29230336425E+02  0.27342251768E+02  0.71522158545E+01  0.50528862147E+02  0.30000006983E+02 0.  0.
         12    1    1    2    0    0  0.29230336425E+02 -0.27342251768E+02 -0.71522158545E+01  0.40659137853E+02  0.00000000000E+00 0. -1.
         11    1    3    3    0    0 -0.16944412416E+01  0.24718789045E+01 -0.30618529125E+01  0.42844206095E+01  0.51100000000E-03 0. -1.
        -11    1    3    3    0    0 -0.15539718866E+02  0.27361982075E+02  0.12357176378E+02  0.33806223300E+02  0.51100000000E-03 0.  1.
        -12    1    3    3    0    0 -0.11996176318E+02 -0.24916092109E+01 -0.21431076112E+01  0.12438218238E+02  0.00000000000E+00 0.  1.
</event>
<event>
 7    1  0.5946946E-013  0.5052886E+02  0.7816164E-02  0.1300439E+00
        -11   -1    0    0    0    0  0.00000000000E+00  0.00000000000E+00  0.45593999997E+02  0.45594000000E+02  0.51100000000E-03 0. -1.
         11   -1    0    0    0    0 -0.00000000000E+00 -0.00000000000E+00 -0.45593999997E+02  0.45594000000E+02  0.51100000000E-03 0.  1.
    9900012    2    1    2    0    0 -0.12417492808E+02 -0.38697682836E+02 -0.12085337560E+01  0.50528864024E+02  0.30000012687E+02 0.  0.
         12    1    1    2    0    0  0.12417492808E+02  0.38697682836E+02  0.12085337560E+01  0.40659135976E+02  0.00000000000E+00 0. -1.
         11    1    3    3    0    0  0.48774423745E+01 -0.18432059082E+02  0.25044422052E+01  0.19230249014E+02  0.51100000000E-03 0. -1.
        -11    1    3    3    0    0 -0.14321739047E+02 -0.11400875534E+02  0.45035036915E+01  0.18851358519E+02  0.51100000000E-03 0.  1.
        -12    1    3    3    0    0 -0.29731961353E+01 -0.88647482197E+01 -0.82164796528E+01  0.12447256491E+02  0.00000000000E+00 0.  1.
</event>
<event>
 7    1  0.5946946E-013  0.5052886E+02  0.7816164E-02  0.1300439E+00
        -11   -1    0    0    0    0  0.00000000000E+00  0.00000000000E+00  0.45593999997E+02  0.45594000000E+02  0.51100000000E-03 0. -1.
         11   -1    0    0    0    0 -0.00000000000E+00 -0.00000000000E+00 -0.45593999997E+02  0.45594000000E+02  0.51100000000E-03 0.  1.
    9900012    2    1    2    0    0 -0.34121510070E+02  0.17166705417E+02 -0.13935296536E+02  0.50528859406E+02  0.29999998649E+02 0.  0.
         12    1    1    2    0    0  0.34121510070E+02 -0.17166705417E+02  0.13935296536E+02  0.40659140594E+02  0.00000000000E+00 0. -1.
         11    1    3    3    0    0  0.43374837673E+00  0.33983144510E+01  0.50820884181E+01  0.61289723211E+01  0.51100000000E-03 0. -1.
        -11    1    3    3    0    0 -0.23094923272E+02  0.15416147185E+02 -0.17245231123E+02  0.32686863902E+02  0.51100000000E-03 0.  1.
        -12    1    3    3    0    0 -0.11460335175E+02 -0.16477562196E+01 -0.17721538315E+01  0.11713023183E+02  0.00000000000E+00 0.  1.
</event>
<event>
 7    1  0.5946946E-013  0.5052887E+02  0.7816164E-02  0.1300439E+00
        -11   -1    0    0    0    0  0.00000000000E+00  0.00000000000E+00  0.45593999997E+02  0.45594000000E+02  0.51100000000E-03 0.  1.
         11   -1    0    0    0    0 -0.00000000000E+00 -0.00000000000E+00 -0.45593999997E+02  0.45594000000E+02  0.51100000000E-03 0. -1.
    9900012    2    1    2    0    0  0.27858566646E+02  0.29222305563E+02  0.48085574662E+01  0.50528866920E+02  0.30000021489E+02 0.  0.
         12    1    1    2    0    0 -0.27858566646E+02 -0.29222305563E+02 -0.48085574662E+01  0.40659133080E+02  0.00000000000E+00 0. -1.
         11    1    3    3    0    0  0.57036821683E+01  0.11864406420E+02 -0.97769361281E+01  0.16397701372E+02  0.51100000000E-03 0. -1.
        -11    1    3    3    0    0  0.23166772502E+02  0.18000572688E+02  0.14881417498E+02  0.32896451971E+02  0.51100000000E-03 0.  1.
        -12    1    3    3    0    0 -0.10118880251E+01 -0.64267354492E+00 -0.29592390322E+00  0.12347135769E+01  0.00000000000E+00 0.  1.
</event>
<event>
 7    1  0.5946946E-013  0.5052887E+02  0.7816164E-02  0.1300439E+00
        -11   -1    0    0    0    0  0.00000000000E+00  0.00000000000E+00  0.45593999997E+02  0.45594000000E+02  0.51100000000E-03 0.  1.
         11   -1    0    0    0    0 -0.00000000000E+00 -0.00000000000E+00 -0.45593999997E+02  0.45594000000E+02  0.51100000000E-03 0. -1.
    9900012    2    1    2    0    0 -0.18963053370E+02 -0.29171831944E+02  0.21037393853E+02  0.50528866804E+02  0.30000021139E+02 0.  0.
         12    1    1    2    0    0  0.18963053370E+02  0.29171831944E+02 -0.21037393853E+02  0.40659133196E+02  0.00000000000E+00 0. -1.
         11    1    3    3    0    0 -0.85972867177E+01  0.25724665141E+01 -0.10410211027E-01  0.89739083741E+01  0.51100000000E-03 0. -1.
        -11    1    3    3    0    0 -0.65600948226E+01 -0.21787337932E+02  0.20898418090E+02  0.30894446381E+02  0.51100000000E-03 0.  1.
        -12    1    3    3    0    0 -0.38056718294E+01 -0.99569605261E+01  0.14938597456E+00  0.10660512050E+02  0.00000000000E+00 0.  1.
</event>
<event>
 7    1  0.5946946E-013  0.5052884E+02  0.7816164E-02  0.1300439E+00
        -11   -1    0    0    0    0  0.00000000000E+00  0.00000000000E+00  0.45593999997E+02  0.45594000000E+02  0.51100000000E-03 0. -1.
         11   -1    0    0    0    0 -0.00000000000E+00 -0.00000000000E+00 -0.45593999997E+02  0.45594000000E+02  0.51100000000E-03 0.  1.
    9900012    2    1    2    0    0  0.69000359851E+01  0.44953815319E+01 -0.39816430606E+02  0.50528842385E+02  0.29999946914E+02 0.  0.
         12    1    1    2    0    0 -0.69000359851E+01 -0.44953815319E+01  0.39816430606E+02  0.40659157615E+02  0.00000000000E+00 0. -1.
         11    1    3    3    0    0 -0.80801696879E+01  0.68076814881E+01 -0.91715450642E+01  0.13991101049E+02  0.51100000000E-03 0. -1.
        -11    1    3    3    0    0  0.10158140539E+02 -0.13463586513E+01 -0.29845193348E+02  0.31555285881E+02  0.51100000000E-03 0.  1.
        -12    1    3    3    0    0  0.48220651336E+01 -0.96594130484E+00 -0.79969219457E+00  0.49824554552E+01  0.00000000000E+00 0.  1.
</event>
<event>
 7    1  0.5946946E-013  0.5052886E+02  0.7816164E-02  0.1300439E+00
        -11   -1    0    0    0    0  0.00000000000E+00  0.00000000000E+00  0.45593999997E+02  0.45594000000E+02  0.51100000000E-03 0.  1.
         11   -1    0    0    0    0 -0.00000000000E+00 -0.00000000000E+00 -0.45593999997E+02  0.45594000000E+02  0.51100000000E-03 0. -1.
    9900012    2    1    2    0    0  0.30879150657E+02 -0.14198701413E+02  0.22316815248E+02  0.50528864374E+02  0.30000013750E+02 0.  0.
         12    1    1    2    0    0 -0.30879150657E+02  0.14198701413E+02 -0.22316815248E+02  0.40659135626E+02  0.00000000000E+00 0. -1.
         11    1    3    3    0    0  0.15614469891E+02 -0.68401412394E+01 -0.29132974570E+01  0.17294117627E+02  0.51100000000E-03 0. -1.
        -11    1    3    3    0    0  0.15882855187E+02 -0.41429448480E+01  0.25058284712E+02  0.29955745925E+02  0.51100000000E-03 0.  1.
         12    1    3    3    0    0 -0.61817442145E+00 -0.32156153252E+01  0.17182799220E+00  0.32790008225E+01  0.00000000000E+00 0. -1.
</event>
<event>
 7    1  0.5946946E-013  0.5052886E+02  0.7816164E-02  0.1300439E+00
        -11   -1    0    0    0    0  0.00000000000E+00  0.00000000000E+00  0.45593999997E+02  0.45594000000E+02  0.51100000000E-03 0.  1.
         11   -1    0    0    0    0 -0.00000000000E+00 -0.00000000000E+00 -0.45593999997E+02  0.45594000000E+02  0.51100000000E-03 0. -1.
    9900012    2    1    2    0    0  0.27942642949E+02 -0.29398825384E+02 -0.28431560415E+01  0.50528858775E+02  0.29999996732E+02 0.  0.
         12    1    1    2    0    0 -0.27942642949E+02  0.29398825384E+02  0.28431560415E+01  0.40659141225E+02  0.00000000000E+00 0. -1.
         11    1    3    3    0    0  0.10789677756E+02 -0.96648289553E+01 -0.80621143454E+01  0.16577809047E+02  0.51100000000E-03 0. -1.
        -11    1    3    3    0    0  0.16095474119E+02 -0.38412166252E+01  0.69126716134E+01  0.17933328229E+02  0.51100000000E-03 0.  1.
        -12    1    3    3    0    0  0.10574910740E+01 -0.15892779803E+02 -0.16937133095E+01  0.16017721499E+02  0.00000000000E+00 0.  1.
</event>
<event>
 7    1  0.5946946E-013  0.5052886E+02  0.7816164E-02  0.1300439E+00
        -11   -1    0    0    0    0  0.00000000000E+00  0.00000000000E+00  0.45593999997E+02  0.45594000000E+02  0.51100000000E-03 0.  1.
         11   -1    0    0    0    0 -0.00000000000E+00 -0.00000000000E+00 -0.45593999997E+02  0.45594000000E+02  0.51100000000E-03 0. -1.
    9900012    2    1    2    0    0 -0.11481322436E+02  0.34831275564E+02  0.17553549229E+02  0.50528860648E+02  0.30000002426E+02 0.  0.
         12    1    1    2    0    0  0.11481322436E+02 -0.34831275564E+02 -0.17553549229E+02  0.40659139352E+02  0.00000000000E+00 0. -1.
         11    1    3    3    0    0 -0.61150170094E+01  0.23185282133E+01  0.20469806991E+01  0.68526736640E+01  0.51100000000E-03 0. -1.
        -11    1    3    3    0    0  0.29663494188E+01  0.31352238946E+02  0.15850230910E+02  0.35256090763E+02  0.51100000000E-03 0.  1.
        -12    1    3    3    0    0 -0.83326548456E+01  0.11605084053E+01 -0.34366238016E+00  0.84200962207E+01  0.00000000000E+00 0.  1.
</event>
<event>
 7    1  0.5946946E-013  0.5052883E+02  0.7816164E-02  0.1300439E+00
        -11   -1    0    0    0    0  0.00000000000E+00  0.00000000000E+00  0.45593999997E+02  0.45594000000E+02  0.51100000000E-03 0.  1.
         11   -1    0    0    0    0 -0.00000000000E+00 -0.00000000000E+00 -0.45593999997E+02  0.45594000000E+02  0.51100000000E-03 0. -1.
    9900012    2    1    2    0    0  0.10444182330E+02 -0.27473438448E+02  0.28094430930E+02  0.50528833580E+02  0.29999920150E+02 0.  0.
         12    1    1    2    0    0 -0.10444182330E+02  0.27473438448E+02 -0.28094430930E+02  0.40659166420E+02  0.00000000000E+00 0. -1.
         11    1    3    3    0    0  0.92115415838E+01 -0.14165759346E+01 -0.17209542344E+01  0.94773872701E+01  0.51100000000E-03 0. -1.
        -11    1    3    3    0    0  0.29943120164E+01 -0.41782339330E+01  0.10997999601E+02  0.12139997477E+02  0.51100000000E-03 0.  1.
         12    1    3    3    0    0 -0.17616712701E+01 -0.21878628580E+02  0.18817385563E+02  0.28911448833E+02  0.00000000000E+00 0. -1.
</event>
<event>
 7    1  0.5946946E-013  0.5052886E+02  0.7816164E-02  0.1300439E+00
        -11   -1    0    0    0    0  0.00000000000E+00  0.00000000000E+00  0.45593999997E+02  0.45594000000E+02  0.51100000000E-03 0. -1.
         11   -1    0    0    0    0 -0.00000000000E+00 -0.00000000000E+00 -0.45593999997E+02  0.45594000000E+02  0.51100000000E-03 0.  1.
    9900012    2    1    2    0    0 -0.38923779515E+02  0.72271056685E+01 -0.92668061097E+01  0.50528863714E+02  0.30000011745E+02 0.  0.
         12    1    1    2    0    0  0.38923779515E+02 -0.72271056685E+01  0.92668061097E+01  0.40659136286E+02  0.00000000000E+00 0. -1.
         11    1    3    3    0    0 -0.24452554983E+02 -0.45462281414E+01 -0.36464957103E+00  0.24874255870E+02  0.51100000000E-03 0. -1.
        -11    1    3    3    0    0 -0.11336404323E+01  0.84724211894E+01  0.11571602335E+01  0.86258959829E+01  0.51100000000E-03 0.  1.
        -12    1    3    3    0    0 -0.13337584099E+02  0.33009126205E+01 -0.10059316772E+02  0.17028711862E+02  0.00000000000E+00 0.  1.
</event>
<event>
 7    1  0.5946946E-013  0.5052886E+02  0.7816164E-02  0.1300439E+00
        -11   -1    0    0    0    0  0.00000000000E+00  0.00000000000E+00  0.45593999997E+02  0.45594000000E+02  0.51100000000E-03 0. -1.
         11   -1    0    0    0    0 -0.00000000000E+00 -0.00000000000E+00 -0.45593999997E+02  0.45594000000E+02  0.51100000000E-03 0.  1.
    9900012    2    1    2    0    0  0.29056783216E+02 -0.19902649862E+02 -0.20316340249E+02  0.50528858304E+02  0.29999995299E+02 0.  0.
         12    1    1    2    0    0 -0.29056783216E+02  0.19902649862E+02  0.20316340249E+02  0.40659141696E+02  0.00000000000E+00 0. -1.
         11    1    3    3    0    0 -0.92476540094E+00 -0.92929838250E+01 -0.11216364573E+02  0.14595258611E+02  0.51100000000E-03 0. -1.
        -11    1    3    3    0    0  0.17293005244E+02 -0.13234011440E+02 -0.49896839144E+01  0.22340188786E+02  0.51100000000E-03 0.  1.
         12    1    3    3    0    0  0.12688543373E+02  0.26243454029E+01 -0.41102917612E+01  0.13593410907E+02  0.00000000000E+00 0. -1.
</event>
<event>
 7    1  0.5946946E-013  0.5052886E+02  0.7816164E-02  0.1300439E+00
        -11   -1    0    0    0    0  0.00000000000E+00  0.00000000000E+00  0.45593999997E+02  0.45594000000E+02  0.51100000000E-03 0.  1.
         11   -1    0    0    0    0 -0.00000000000E+00 -0.00000000000E+00 -0.45593999997E+02  0.45594000000E+02  0.51100000000E-03 0. -1.
    9900012    2    1    2    0    0  0.44926132299E+01 -0.21836334802E+02  0.34002307994E+02  0.50528855393E+02  0.29999986454E+02 0.  0.
         12    1    1    2    0    0 -0.44926132299E+01  0.21836334802E+02 -0.34002307994E+02  0.40659144607E+02  0.00000000000E+00 0. -1.
         11    1    3    3    0    0  0.12681717713E+02 -0.52074915285E+01  0.18916596492E+02  0.23361968138E+02  0.51100000000E-03 0. -1.
        -11    1    3    3    0    0 -0.77318626721E+01 -0.18371318900E+02  0.11150698166E+02  0.22839114002E+02  0.51100000000E-03 0.  1.
        -12    1    3    3    0    0 -0.45724181112E+00  0.17424756269E+01  0.39350133360E+01  0.43277732541E+01  0.00000000000E+00 0.  1.
</event>
<event>
 7    1  0.6213952E-013  0.5052886E+02  0.7816164E-02  0.1300439E+00
        -11   -1    0    0    0    0  0.00000000000E+00  0.00000000000E+00  0.45593999997E+02  0.45594000000E+02  0.51100000000E-03 0.  1.
         11   -1    0    0    0    0 -0.00000000000E+00 -0.00000000000E+00 -0.45593999997E+02  0.45594000000E+02  0.51100000000E-03 0. -1.
    9900012    2    1    2    0    0 -0.40478679666E+02 -0.32783626543E+01 -0.19735395224E+01  0.50528855550E+02  0.29999986929E+02 0.  0.
         12    1    1    2    0    0  0.40478679666E+02  0.32783626543E+01  0.19735395224E+01  0.40659144450E+02  0.00000000000E+00 0. -1.
         11    1    3    3    0    0  0.31866866391E+01  0.19310501630E-01  0.23971357117E+01  0.39876815962E+01  0.51100000000E-03 0. -1.
        -11    1    3    3    0    0 -0.32818313422E+02 -0.62496568873E+00  0.33000252710E+01  0.32989732418E+02  0.51100000000E-03 0.  1.
        -12    1    3    3    0    0 -0.10847052883E+02 -0.26727074672E+01 -0.76707005051E+01  0.13551441535E+02  0.00000000000E+00 0.  1.
</event>
<event>
 7    1  0.5946946E-013  0.5052887E+02  0.7816164E-02  0.1300439E+00
        -11   -1    0    0    0    0  0.00000000000E+00  0.00000000000E+00  0.45593999997E+02  0.45594000000E+02  0.51100000000E-03 0.  1.
         11   -1    0    0    0    0 -0.00000000000E+00 -0.00000000000E+00 -0.45593999997E+02  0.45594000000E+02  0.51100000000E-03 0. -1.
    9900012    2    1    2    0    0  0.21587453369E+02  0.34393245172E+02 -0.20619576448E+01  0.50528866638E+02  0.30000020632E+02 0.  0.
         12    1    1    2    0    0 -0.21587453369E+02 -0.34393245172E+02  0.20619576448E+01  0.40659133362E+02  0.00000000000E+00 0. -1.
         11    1    3    3    0    0  0.21685223965E-01 -0.22112173740E+01  0.41394949264E+01  0.46931195415E+01  0.51100000000E-03 0. -1.
        -11    1    3    3    0    0  0.13150564146E+02  0.30108324962E+02  0.12085996546E+01  0.32877184836E+02  0.51100000000E-03 0.  1.
         12    1    3    3    0    0  0.84152039990E+01  0.64961375842E+01 -0.74100522258E+01  0.12958562260E+02  0.00000000000E+00 0. -1.
</event>
<event>
 7    1  0.5946946E-013  0.5052885E+02  0.7816164E-02  0.1300439E+00
        -11   -1    0    0    0    0  0.00000000000E+00  0.00000000000E+00  0.45593999997E+02  0.45594000000E+02  0.51100000000E-03 0. -1.
         11   -1    0    0    0    0 -0.00000000000E+00 -0.00000000000E+00 -0.45593999997E+02  0.45594000000E+02  0.51100000000E-03 0.  1.
    9900012    2    1    2    0    0 -0.10650235352E+02 -0.23799409406E+02 -0.31198187773E+02  0.50528851934E+02  0.29999975939E+02 0.  0.
         12    1    1    2    0    0  0.10650235352E+02  0.23799409406E+02  0.31198187773E+02  0.40659148066E+02  0.00000000000E+00 0. -1.
         11    1    3    3    0    0 -0.13816661663E+01 -0.10407850590E+02  0.38246066034E+00  0.10506123534E+02  0.51100000000E-03 0. -1.
        -11    1    3    3    0    0  0.28232221415E+01 -0.97538428945E+01 -0.21806249404E+02  0.24054532792E+02  0.51100000000E-03 0.  1.
        -12    1    3    3    0    0 -0.12091791327E+02 -0.36377159217E+01 -0.97743990290E+01  0.15968195609E+02  0.00000000000E+00 0.  1.
</event>
<event>
 7    1  0.5946946E-013  0.5052886E+02  0.7816164E-02  0.1300439E+00
        -11   -1    0    0    0    0  0.00000000000E+00  0.00000000000E+00  0.45593999997E+02  0.45594000000E+02  0.51100000000E-03 0.  1.
         11   -1    0    0    0    0 -0.00000000000E+00 -0.00000000000E+00 -0.45593999997E+02  0.45594000000E+02  0.51100000000E-03 0. -1.
    9900012    2    1    2    0    0 -0.10485760998E+02  0.30985757307E+02  0.24147409174E+02  0.50528859460E+02  0.29999998815E+02 0.  0.
         12    1    1    2    0    0  0.10485760998E+02 -0.30985757307E+02 -0.24147409174E+02  0.40659140540E+02  0.00000000000E+00 0. -1.
         11    1    3    3    0    0 -0.58734189126E+01  0.19263379092E+02  0.39017365474E+01  0.20513370569E+02  0.51100000000E-03 0. -1.
        -11    1    3    3    0    0 -0.20878397040E+01  0.14936905625E+02  0.21004365244E+02  0.25858336834E+02  0.51100000000E-03 0.  1.
         12    1    3    3    0    0 -0.25245023816E+01 -0.32145274091E+01 -0.75869261713E+00  0.41571520571E+01  0.00000000000E+00 0. -1.
</event>
<event>
 7    1  0.5946946E-013  0.5052886E+02  0.7816164E-02  0.1300439E+00
        -11   -1    0    0    0    0  0.00000000000E+00  0.00000000000E+00  0.45593999997E+02  0.45594000000E+02  0.51100000000E-03 0. -1.
         11   -1    0    0    0    0 -0.00000000000E+00 -0.00000000000E+00 -0.45593999997E+02  0.45594000000E+02  0.51100000000E-03 0.  1.
    9900012    2    1    2    0    0 -0.17041042849E+02  0.29008514948E+02 -0.22831431639E+02  0.50528863861E+02  0.30000012192E+02 0.  0.
         12    1    1    2    0    0  0.17041042849E+02 -0.29008514948E+02  0.22831431639E+02  0.40659136139E+02  0.00000000000E+00 0. -1.
         11    1    3    3    0    0  0.30497452868E+01  0.17139345864E+02 -0.45885913851E+01  0.18003146784E+02  0.51100000000E-03 0. -1.
        -11    1    3    3    0    0 -0.21293379180E+02  0.13251407856E+02 -0.16709748871E+02  0.30136746916E+02  0.51100000000E-03 0.  1.
         12    1    3    3    0    0  0.12025910443E+01 -0.13822387722E+01 -0.15330913826E+01  0.23889701611E+01  0.00000000000E+00 0. -1.
</event>
<event>
 7    1  0.5946946E-013  0.5052885E+02  0.7816164E-02  0.1300439E+00
        -11   -1    0    0    0    0  0.00000000000E+00  0.00000000000E+00  0.45593999997E+02  0.45594000000E+02  0.51100000000E-03 0. -1.
         11   -1    0    0    0    0 -0.00000000000E+00 -0.00000000000E+00 -0.45593999997E+02  0.45594000000E+02  0.51100000000E-03 0.  1.
    9900012    2    1    2    0    0 -0.43956355719E+01 -0.10038894016E+02 -0.39154377363E+02  0.50528852544E+02  0.29999977793E+02 0.  0.
         12    1    1    2    0    0  0.43956355719E+01  0.10038894016E+02  0.39154377363E+02  0.40659147456E+02  0.00000000000E+00 0. -1.
         11    1    3    3    0    0  0.15928090356E+01 -0.14837799274E+02 -0.84282231304E+01  0.17138619353E+02  0.51100000000E-03 0. -1.
        -11    1    3    3    0    0  0.22231930941E+01  0.28872178139E+01 -0.42205899612E+01  0.55760195588E+01  0.51100000000E-03 0.  1.
         12    1    3    3    0    0 -0.82116377016E+01  0.19116874445E+01 -0.26505564272E+02  0.27814213632E+02  0.00000000000E+00 0. -1.
</event>
<event>
 7    1  0.5946946E-013  0.5052887E+02  0.7816164E-02  0.1300439E+00
        -11   -1    0    0    0    0  0.00000000000E+00  0.00000000000E+00  0.45593999997E+02  0.45594000000E+02  0.51100000000E-03 0.  1.
         11   -1    0    0    0    0 -0.00000000000E+00 -0.00000000000E+00 -0.45593999997E+02  0.45594000000E+02  0.51100000000E-03 0. -1.
    9900012    2    1    2    0    0  0.38553653294E+02  0.12832682757E+02 -0.14501697602E+01  0.50528869151E+02  0.30000028272E+02 0.  0.
         12    1    1    2    0    0 -0.38553653294E+02 -0.12832682757E+02  0.14501697602E+01  0.40659130849E+02  0.00000000000E+00 0. -1.
         11    1    3    3    0    0  0.44035868133E+01  0.11616969591E+02  0.55085218043E+00  0.12435795017E+02  0.51100000000E-03 0. -1.
        -11    1    3    3    0    0  0.34631299574E+02  0.77933416281E+00  0.13630289908E+01  0.34666873529E+02  0.51100000000E-03 0.  1.
        -12    1    3    3    0    0 -0.48123309420E+00  0.43637900321E+00 -0.33640509314E+01  0.34262006062E+01  0.00000000000E+00 0.  1.
</event>
<event>
 7    1  0.5946946E-013  0.5052883E+02  0.7816164E-02  0.1300439E+00
        -11   -1    0    0    0    0  0.00000000000E+00  0.00000000000E+00  0.45593999997E+02  0.45594000000E+02  0.51100000000E-03 0.  1.
         11   -1    0    0    0    0 -0.00000000000E+00 -0.00000000000E+00 -0.45593999997E+02  0.45594000000E+02  0.51100000000E-03 0. -1.
    9900012    2    1    2    0    0 -0.92885445320E+01  0.13133074084E+02  0.37341843165E+02  0.50528831964E+02  0.29999915238E+02 0.  0.
         12    1    1    2    0    0  0.92885445320E+01 -0.13133074084E+02 -0.37341843165E+02  0.40659168036E+02  0.00000000000E+00 0. -1.
         11    1    3    3    0    0  0.58356492170E+01  0.79225525072E+01  0.18882714446E+01  0.10019341761E+02  0.51100000000E-03 0. -1.
        -11    1    3    3    0    0 -0.62717356358E+01  0.80932769563E+01  0.19988644677E+02  0.22458444204E+02  0.51100000000E-03 0.  1.
         12    1    3    3    0    0 -0.88524581131E+01 -0.28827553792E+01  0.15464927043E+02  0.18051045999E+02  0.00000000000E+00 0. -1.
</event>
<event>
 7    1  0.5946946E-013  0.5052883E+02  0.7816164E-02  0.1300439E+00
        -11   -1    0    0    0    0  0.00000000000E+00  0.00000000000E+00  0.45593999997E+02  0.45594000000E+02  0.51100000000E-03 0.  1.
         11   -1    0    0    0    0 -0.00000000000E+00 -0.00000000000E+00 -0.45593999997E+02  0.45594000000E+02  0.51100000000E-03 0. -1.
    9900012    2    1    2    0    0  0.19563875621E+02  0.13761883946E+02  0.32879067787E+02  0.50528834027E+02  0.29999921509E+02 0.  0.
         12    1    1    2    0    0 -0.19563875621E+02 -0.13761883946E+02 -0.32879067787E+02  0.40659165973E+02  0.00000000000E+00 0. -1.
         11    1    3    3    0    0 -0.80601119507E+00  0.41831453026E+01  0.25821759471E+00  0.42679075970E+01  0.51100000000E-03 0. -1.
        -11    1    3    3    0    0  0.22670327740E+02  0.18020066578E+01  0.16122129122E+02  0.27876765155E+02  0.51100000000E-03 0.  1.
        -12    1    3    3    0    0 -0.23004409241E+01  0.77767319859E+01  0.16498721070E+02  0.18384161275E+02  0.00000000000E+00 0.  1.
</event>
<event>
 7    1  0.5946946E-013  0.5052886E+02  0.7816164E-02  0.1300439E+00
        -11   -1    0    0    0    0  0.00000000000E+00  0.00000000000E+00  0.45593999997E+02  0.45594000000E+02  0.51100000000E-03 0.  1.
         11   -1    0    0    0    0 -0.00000000000E+00 -0.00000000000E+00 -0.45593999997E+02  0.45594000000E+02  0.51100000000E-03 0. -1.
    9900012    2    1    2    0    0 -0.23103052305E+02 -0.30884019201E+02 -0.12868252797E+02  0.50528860832E+02  0.30000002986E+02 0.  0.
         12    1    1    2    0    0  0.23103052305E+02  0.30884019201E+02  0.12868252797E+02  0.40659139168E+02  0.00000000000E+00 0. -1.
         11    1    3    3    0    0 -0.28213353342E+01  0.41771015816E+01 -0.29985297876E+01  0.58650909489E+01  0.51100000000E-03 0. -1.
        -11    1    3    3    0    0 -0.21940961227E+02 -0.24887752530E+02 -0.86246830574E+01  0.34281061297E+02  0.51100000000E-03 0.  1.
        -12    1    3    3    0    0  0.16592442561E+01 -0.10173368253E+02 -0.12450399524E+01  0.10382708586E+02  0.00000000000E+00 0.  1.
</event>
<event>
 7    1  0.5946946E-013  0.5052884E+02  0.7816164E-02  0.1300439E+00
        -11   -1    0    0    0    0  0.00000000000E+00  0.00000000000E+00  0.45593999997E+02  0.45594000000E+02  0.51100000000E-03 0.  1.
         11   -1    0    0    0    0 -0.00000000000E+00 -0.00000000000E+00 -0.45593999997E+02  0.45594000000E+02  0.51100000000E-03 0. -1.
    9900012    2    1    2    0    0  0.33051598485E+02  0.23561218230E+02  0.23722824953E+01  0.50528844929E+02  0.29999954646E+02 0.  0.
         12    1    1    2    0    0 -0.33051598485E+02 -0.23561218230E+02 -0.23722824953E+01  0.40659155071E+02  0.00000000000E+00 0. -1.
         11    1    3    3    0    0  0.42646178951E+01 -0.21967305310E+01 -0.52889860429E+01  0.71404456752E+01  0.51100000000E-03 0. -1.
        -11    1    3    3    0    0  0.19141821666E+02  0.26551449736E+02  0.37348102514E+01  0.32944462776E+02  0.51100000000E-03 0.  1.
        -12    1    3    3    0    0  0.96451589241E+01 -0.79350097474E+00  0.39264582869E+01  0.10443936478E+02  0.00000000000E+00 0.  1.
</event>
<event>
 7    1  0.5946946E-013  0.5052886E+02  0.7816164E-02  0.1300439E+00
        -11   -1    0    0    0    0  0.00000000000E+00  0.00000000000E+00  0.45593999997E+02  0.45594000000E+02  0.51100000000E-03 0.  1.
         11   -1    0    0    0    0 -0.00000000000E+00 -0.00000000000E+00 -0.45593999997E+02  0.45594000000E+02  0.51100000000E-03 0. -1.
    9900012    2    1    2    0    0 -0.40062684576E+01  0.22674371211E+01  0.40397702344E+02  0.50528858190E+02  0.29999994954E+02 0.  0.
         12    1    1    2    0    0  0.40062684576E+01 -0.22674371211E+01 -0.40397702344E+02  0.40659141810E+02  0.00000000000E+00 0. -1.
         11    1    3    3    0    0 -0.41918715519E+01 -0.51745072269E+01  0.99661723118E+01  0.11986321494E+02  0.51100000000E-03 0. -1.
        -11    1    3    3    0    0  0.90370334202E+01  0.77347442737E+01  0.26101969919E+02  0.28684613924E+02  0.51100000000E-03 0.  1.
        -12    1    3    3    0    0 -0.88514303260E+01 -0.29279992566E+00  0.43295601128E+01  0.98579227722E+01  0.00000000000E+00 0.  1.
</event>
<event>
 7    1  0.5946946E-013  0.5052886E+02  0.7816164E-02  0.1300439E+00
        -11   -1    0    0    0    0  0.00000000000E+00  0.00000000000E+00  0.45593999997E+02  0.45594000000E+02  0.51100000000E-03 0.  1.
         11   -1    0    0    0    0 -0.00000000000E+00 -0.00000000000E+00 -0.45593999997E+02  0.45594000000E+02  0.51100000000E-03 0. -1.
    9900012    2    1    2    0    0 -0.14385857972E+02 -0.31365748683E+02  0.21503554352E+02  0.50528856504E+02  0.29999989830E+02 0.  0.
         12    1    1    2    0    0  0.14385857972E+02  0.31365748683E+02 -0.21503554352E+02  0.40659143496E+02  0.00000000000E+00 0. -1.
         11    1    3    3    0    0 -0.11224065275E+01 -0.56939522447E+01  0.19621355725E+02  0.20461634571E+02  0.51100000000E-03 0. -1.
        -11    1    3    3    0    0 -0.41003405124E+01 -0.37463852631E+01 -0.21664127847E+01  0.59616725399E+01  0.51100000000E-03 0.  1.
         12    1    3    3    0    0 -0.91631109321E+01 -0.21925411176E+02  0.40486114113E+01  0.24105549393E+02  0.00000000000E+00 0. -1.
</event>
<event>
 7    1  0.5946946E-013  0.5052884E+02  0.7816164E-02  0.1300439E+00
        -11   -1    0    0    0    0  0.00000000000E+00  0.00000000000E+00  0.45593999997E+02  0.45594000000E+02  0.51100000000E-03 0. -1.
         11   -1    0    0    0    0 -0.00000000000E+00 -0.00000000000E+00 -0.45593999997E+02  0.45594000000E+02  0.51100000000E-03 0.  1.
    9900012    2    1    2    0    0 -0.29629670126E+02 -0.14607874972E+02 -0.23703587568E+02  0.50528838344E+02  0.29999934630E+02 0.  0.
         12    1    1    2    0    0  0.29629670126E+02  0.14607874972E+02  0.23703587568E+02  0.40659161656E+02  0.00000000000E+00 0. -1.
         11    1    3    3    0    0 -0.22591646547E+02  0.28583088253E+01 -0.40182057546E+01  0.23123546458E+02  0.51100000000E-03 0. -1.
        -11    1    3    3    0    0 -0.30824121626E+00 -0.25169185601E+01 -0.38646304097E+01  0.46222570407E+01  0.51100000000E-03 0.  1.
         12    1    3    3    0    0 -0.67297823630E+01 -0.14949265237E+02 -0.15820751404E+02  0.22783034846E+02  0.00000000000E+00 0. -1.
</event>
<event>
 7    1  0.5946946E-013  0.5052886E+02  0.7816164E-02  0.1300439E+00
        -11   -1    0    0    0    0  0.00000000000E+00  0.00000000000E+00  0.45593999997E+02  0.45594000000E+02  0.51100000000E-03 0.  1.
         11   -1    0    0    0    0 -0.00000000000E+00 -0.00000000000E+00 -0.45593999997E+02  0.45594000000E+02  0.51100000000E-03 0. -1.
    9900012    2    1    2    0    0  0.10185111486E+00  0.52485479908E+01  0.40318831536E+02  0.50528858272E+02  0.29999995203E+02 0.  0.
         12    1    1    2    0    0 -0.10185111486E+00 -0.52485479908E+01 -0.40318831536E+02  0.40659141728E+02  0.00000000000E+00 0. -1.
         11    1    3    3    0    0 -0.13889918381E+02 -0.11284149785E+01  0.14221731804E+02  0.19911323632E+02  0.51100000000E-03 0. -1.
        -11    1    3    3    0    0  0.10817636504E+02  0.54465284096E+01  0.23404147071E+02  0.26352230108E+02  0.51100000000E-03 0.  1.
         12    1    3    3    0    0  0.31741329918E+01  0.93043455975E+00  0.26929526612E+01  0.42653045325E+01  0.00000000000E+00 0. -1.
</event>
<event>
 7    1  0.5946946E-013  0.5052883E+02  0.7816164E-02  0.1300439E+00
        -11   -1    0    0    0    0  0.00000000000E+00  0.00000000000E+00  0.45593999997E+02  0.45594000000E+02  0.51100000000E-03 0.  1.
         11   -1    0    0    0    0 -0.00000000000E+00 -0.00000000000E+00 -0.45593999997E+02  0.45594000000E+02  0.51100000000E-03 0. -1.
    9900012    2    1    2    0    0  0.21563079118E+02 -0.14323150970E+02  0.31353617934E+02  0.50528826468E+02  0.29999898531E+02 0.  0.
         12    1    1    2    0    0 -0.21563079118E+02  0.14323150970E+02 -0.31353617934E+02  0.40659173532E+02  0.00000000000E+00 0. -1.
         11    1    3    3    0    0  0.60662046165E+01 -0.41364187329E+01 -0.45718472118E+01  0.86493112773E+01  0.51100000000E-03 0. -1.
        -11    1    3    3    0    0  0.11543555336E+02 -0.16801830284E+01  0.15464184372E+02  0.19370536475E+02  0.51100000000E-03 0.  1.
         12    1    3    3    0    0  0.39533191652E+01 -0.85065492088E+01  0.20461280775E+02  0.22508978715E+02  0.00000000000E+00 0. -1.
</event>
<event>
 7    1  0.5946946E-013  0.5052886E+02  0.7816164E-02  0.1300439E+00
        -11   -1    0    0    0    0  0.00000000000E+00  0.00000000000E+00  0.45593999997E+02  0.45594000000E+02  0.51100000000E-03 0.  1.
         11   -1    0    0    0    0 -0.00000000000E+00 -0.00000000000E+00 -0.45593999997E+02  0.45594000000E+02  0.51100000000E-03 0. -1.
    9900012    2    1    2    0    0 -0.33749929688E+02  0.13055972378E+02 -0.18537786316E+02  0.50528859697E+02  0.29999999536E+02 0.  0.
         12    1    1    2    0    0  0.33749929688E+02 -0.13055972378E+02  0.18537786316E+02  0.40659140303E+02  0.00000000000E+00 0. -1.
         11    1    3    3    0    0 -0.16294292019E+02 -0.33116229641E+01  0.33988624862E+00  0.16630884582E+02  0.51100000000E-03 0. -1.
        -11    1    3    3    0    0 -0.17872980402E+02  0.16582522060E+02 -0.12307646576E+02  0.27311199733E+02  0.51100000000E-03 0.  1.
         12    1    3    3    0    0  0.41734273341E+00 -0.21492671786E+00 -0.65700259886E+01  0.65867753827E+01  0.00000000000E+00 0. -1.
</event>
<event>
 7    1  0.5946946E-013  0.5052885E+02  0.7816164E-02  0.1300439E+00
        -11   -1    0    0    0    0  0.00000000000E+00  0.00000000000E+00  0.45593999997E+02  0.45594000000E+02  0.51100000000E-03 0.  1.
         11   -1    0    0    0    0 -0.00000000000E+00 -0.00000000000E+00 -0.45593999997E+02  0.45594000000E+02  0.51100000000E-03 0. -1.
    9900012    2    1    2    0    0  0.19477761552E+02  0.20394159844E+02  0.29289268013E+02  0.50528853777E+02  0.29999981541E+02 0.  0.
         12    1    1    2    0    0 -0.19477761552E+02 -0.20394159844E+02 -0.29289268013E+02  0.40659146223E+02  0.00000000000E+00 0. -1.
         11    1    3    3    0    0  0.92852730596E+01 -0.39694036567E+01  0.38017996044E+01  0.10790094609E+02  0.51100000000E-03 0. -1.
        -11    1    3    3    0    0 -0.24545396808E+01  0.48269628598E+01  0.11172806053E+02  0.12415954690E+02  0.51100000000E-03 0.  1.
         12    1    3    3    0    0  0.12647028173E+02  0.19536600641E+02  0.14314662356E+02  0.27322804478E+02  0.00000000000E+00 0. -1.
</event>
<event>
 7    1  0.5946946E-013  0.5052886E+02  0.7816164E-02  0.1300439E+00
        -11   -1    0    0    0    0  0.00000000000E+00  0.00000000000E+00  0.45593999997E+02  0.45594000000E+02  0.51100000000E-03 0.  1.
         11   -1    0    0    0    0 -0.00000000000E+00 -0.00000000000E+00 -0.45593999997E+02  0.45594000000E+02  0.51100000000E-03 0. -1.
    9900012    2    1    2    0    0 -0.15207982600E+02 -0.85205215640E+01  0.36732598748E+02  0.50528857937E+02  0.29999994187E+02 0.  0.
         12    1    1    2    0    0  0.15207982600E+02  0.85205215640E+01 -0.36732598748E+02  0.40659142063E+02  0.00000000000E+00 0. -1.
         11    1    3    3    0    0 -0.61842268019E+01  0.28128641531E+01 -0.28195901900E+01  0.73557429931E+01  0.51100000000E-03 0. -1.
        -11    1    3    3    0    0 -0.10208391875E+02 -0.11399383028E+02  0.31346479033E+02  0.34882071987E+02  0.51100000000E-03 0.  1.
         12    1    3    3    0    0  0.11846360765E+01  0.65997310445E-01  0.82057099045E+01  0.82910429570E+01  0.00000000000E+00 0. -1.
</event>
<event>
 7    1  0.5946946E-013  0.5052884E+02  0.7816164E-02  0.1300439E+00
        -11   -1    0    0    0    0  0.00000000000E+00  0.00000000000E+00  0.45593999997E+02  0.45594000000E+02  0.51100000000E-03 0.  1.
         11   -1    0    0    0    0 -0.00000000000E+00 -0.00000000000E+00 -0.45593999997E+02  0.45594000000E+02  0.51100000000E-03 0. -1.
    9900012    2    1    2    0    0  0.25318483567E+02 -0.27945951675E+02  0.15204138323E+02  0.50528835629E+02  0.29999926379E+02 0.  0.
         12    1    1    2    0    0 -0.25318483567E+02  0.27945951675E+02 -0.15204138323E+02  0.40659164371E+02  0.00000000000E+00 0. -1.
         11    1    3    3    0    0  0.10226905637E+02 -0.25002577606E+02  0.19063858724E+02  0.33062806831E+02  0.51100000000E-03 0. -1.
        -11    1    3    3    0    0  0.64030967656E+01 -0.47515318930E+00  0.19696102465E+01  0.67160094942E+01  0.51100000000E-03 0.  1.
         12    1    3    3    0    0  0.86884811642E+01 -0.24682208802E+01 -0.58293306468E+01  0.10750019304E+02  0.00000000000E+00 0. -1.
</event>
<event>
 7    1  0.5946946E-013  0.5052898E+02  0.7816164E-02  0.1300438E+00
        -11   -1    0    0    0    0  0.00000000000E+00  0.00000000000E+00  0.45593999997E+02  0.45594000000E+02  0.51100000000E-03 0.  1.
         11   -1    0    0    0    0 -0.00000000000E+00 -0.00000000000E+00 -0.45593999997E+02  0.45594000000E+02  0.51100000000E-03 0. -1.
    9900012    2    1    2    0    0 -0.31960083482E+02  0.15377559326E+02  0.19880634661E+02  0.50528980072E+02  0.30000365424E+02 0.  0.
         12    1    1    2    0    0  0.31960083482E+02 -0.15377559326E+02 -0.19880634661E+02  0.40659019928E+02  0.00000000000E+00 0. -1.
         11    1    3    3    0    0 -0.41722738171E+00  0.80328993811E+01 -0.51864257303E+01  0.95708183177E+01  0.51100000000E-03 0. -1.
        -11    1    3    3    0    0 -0.18356024178E+02  0.39993771100E+01  0.14634766857E+02  0.23814177335E+02  0.51100000000E-03 0.  1.
         12    1    3    3    0    0 -0.13186831922E+02  0.33452828348E+01  0.10432293534E+02  0.17143984419E+02  0.00000000000E+00 0. -1.
</event>
<event>
 7    1  0.5946946E-013  0.5052886E+02  0.7816164E-02  0.1300439E+00
        -11   -1    0    0    0    0  0.00000000000E+00  0.00000000000E+00  0.45593999997E+02  0.45594000000E+02  0.51100000000E-03 0.  1.
         11   -1    0    0    0    0 -0.00000000000E+00 -0.00000000000E+00 -0.45593999997E+02  0.45594000000E+02  0.51100000000E-03 0. -1.
    9900012    2    1    2    0    0 -0.42343137220E+00 -0.59065154140E+01  0.40225603499E+02  0.50528863323E+02  0.30000010555E+02 0.  0.
         12    1    1    2    0    0  0.42343137220E+00  0.59065154140E+01 -0.40225603499E+02  0.40659136677E+02  0.00000000000E+00 0. -1.
         11    1    3    3    0    0 -0.10925819479E+02 -0.11341530253E+02  0.21266049936E+02  0.26462213058E+02  0.51100000000E-03 0. -1.
        -11    1    3    3    0    0  0.11171507978E+02  0.20345271062E+01  0.14716656761E+02  0.18588218783E+02  0.51100000000E-03 0.  1.
         12    1    3    3    0    0 -0.66911987042E+00  0.34004877330E+01  0.42428968023E+01  0.54784314816E+01  0.00000000000E+00 0. -1.
</event>
<event>
 7    1  0.5946946E-013  0.5052886E+02  0.7816164E-02  0.1300439E+00
        -11   -1    0    0    0    0  0.00000000000E+00  0.00000000000E+00  0.45593999997E+02  0.45594000000E+02  0.51100000000E-03 0.  1.
         11   -1    0    0    0    0 -0.00000000000E+00 -0.00000000000E+00 -0.45593999997E+02  0.45594000000E+02  0.51100000000E-03 0. -1.
    9900012    2    1    2    0    0 -0.14913548617E+02  0.36626095727E+02 -0.94488686292E+01  0.50528856638E+02  0.29999990237E+02 0.  0.
         12    1    1    2    0    0  0.14913548617E+02 -0.36626095727E+02  0.94488686292E+01  0.40659143362E+02  0.00000000000E+00 0. -1.
         11    1    3    3    0    0  0.81067035489E+00  0.24622890958E+02 -0.15910773722E+02  0.29327404697E+02  0.51100000000E-03 0. -1.
        -11    1    3    3    0    0 -0.10832174898E+02  0.83876965138E+01  0.63924474448E+01  0.15117964493E+02  0.51100000000E-03 0.  1.
         12    1    3    3    0    0 -0.48920440739E+01  0.36155082553E+01  0.69457648317E-01  0.60834874480E+01  0.00000000000E+00 0. -1.
</event>
<event>
 7    1  0.5946946E-013  0.5052887E+02  0.7816164E-02  0.1300439E+00
        -11   -1    0    0    0    0  0.00000000000E+00  0.00000000000E+00  0.45593999997E+02  0.45594000000E+02  0.51100000000E-03 0.  1.
         11   -1    0    0    0    0 -0.00000000000E+00 -0.00000000000E+00 -0.45593999997E+02  0.45594000000E+02  0.51100000000E-03 0. -1.
    9900012    2    1    2    0    0 -0.35821456496E+02  0.17560785657E+02 -0.78490315506E+01  0.50528865298E+02  0.30000016561E+02 0.  0.
         12    1    1    2    0    0  0.35821456496E+02 -0.17560785657E+02  0.78490315506E+01  0.40659134702E+02  0.00000000000E+00 0. -1.
         11    1    3    3    0    0 -0.20702894095E+02  0.42629745607E+01  0.61279076481E+01  0.22007590246E+02  0.51100000000E-03 0. -1.
        -11    1    3    3    0    0 -0.34589846369E+01  0.91873811957E+01 -0.12758902516E+02  0.16098513646E+02  0.51100000000E-03 0.  1.
        -12    1    3    3    0    0 -0.11659577764E+02  0.41104299004E+01 -0.12180366831E+01  0.12422761406E+02  0.00000000000E+00 0.  1.
</event>
<event>
 7    1  0.5946946E-013  0.5052886E+02  0.7816164E-02  0.1300439E+00
        -11   -1    0    0    0    0  0.00000000000E+00  0.00000000000E+00  0.45593999997E+02  0.45594000000E+02  0.51100000000E-03 0. -1.
         11   -1    0    0    0    0 -0.00000000000E+00 -0.00000000000E+00 -0.45593999997E+02  0.45594000000E+02  0.51100000000E-03 0.  1.
    9900012    2    1    2    0    0 -0.27019163482E+02 -0.30238500782E+02 -0.29603329161E+01  0.50528859628E+02  0.29999999325E+02 0.  0.
         12    1    1    2    0    0  0.27019163482E+02  0.30238500782E+02  0.29603329161E+01  0.40659140372E+02  0.00000000000E+00 0. -1.
         11    1    3    3    0    0 -0.75151658360E+01 -0.92928422886E+01  0.76751961606E+01  0.14203635862E+02  0.51100000000E-03 0. -1.
        -11    1    3    3    0    0 -0.68396883674E+01 -0.16319904510E+01 -0.11198185954E+02  0.13222862728E+02  0.51100000000E-03 0.  1.
        -12    1    3    3    0    0 -0.12664309279E+02 -0.19313668042E+02  0.56265687742E+00  0.23102361038E+02  0.00000000000E+00 0.  1.
</event>
<event>
 7    1  0.5946946E-013  0.5052887E+02  0.7816164E-02  0.1300439E+00
        -11   -1    0    0    0    0  0.00000000000E+00  0.00000000000E+00  0.45593999997E+02  0.45594000000E+02  0.51100000000E-03 0.  1.
         11   -1    0    0    0    0 -0.00000000000E+00 -0.00000000000E+00 -0.45593999997E+02  0.45594000000E+02  0.51100000000E-03 0. -1.
    9900012    2    1    2    0    0 -0.13478899159E+02 -0.14232601229E+02  0.35621864508E+02  0.50528869521E+02  0.30000029396E+02 0.  0.
         12    1    1    2    0    0  0.13478899159E+02  0.14232601229E+02 -0.35621864508E+02  0.40659130479E+02  0.00000000000E+00 0. -1.
         11    1    3    3    0    0 -0.10179188092E+02  0.29216405409E+01  0.18361674064E+01  0.10748179598E+02  0.51100000000E-03 0. -1.
        -11    1    3    3    0    0 -0.20714462427E+01 -0.28072720911E+01  0.18320596405E+02  0.18649823565E+02  0.51100000000E-03 0.  1.
         12    1    3    3    0    0 -0.12282648240E+01 -0.14346969679E+02  0.15465100697E+02  0.21130866357E+02  0.00000000000E+00 0. -1.
</event>
<event>
 7    1  0.5946946E-013  0.5052886E+02  0.7816164E-02  0.1300439E+00
        -11   -1    0    0    0    0  0.00000000000E+00  0.00000000000E+00  0.45593999997E+02  0.45594000000E+02  0.51100000000E-03 0. -1.
         11   -1    0    0    0    0 -0.00000000000E+00 -0.00000000000E+00 -0.45593999997E+02  0.45594000000E+02  0.51100000000E-03 0.  1.
    9900012    2    1    2    0    0  0.36779713471E+02 -0.17063126935E+02  0.30443672366E+01  0.50528858400E+02  0.29999995593E+02 0.  0.
         12    1    1    2    0    0 -0.36779713471E+02  0.17063126935E+02 -0.30443672366E+01  0.40659141600E+02  0.00000000000E+00 0. -1.
         11    1    3    3    0    0  0.10742747524E+02 -0.62107642585E+00  0.13549159564E+02  0.17302372249E+02  0.51100000000E-03 0. -1.
        -11    1    3    3    0    0  0.68993084804E+01 -0.64073859266E+01 -0.59641658494E+01  0.11145686451E+02  0.51100000000E-03 0.  1.
        -12    1    3    3    0    0  0.19137657466E+02 -0.10034664582E+02 -0.45406264783E+01  0.22080799700E+02  0.00000000000E+00 0.  1.
</event>
<event>
 7    1  0.5946946E-013  0.5052886E+02  0.7816164E-02  0.1300439E+00
        -11   -1    0    0    0    0  0.00000000000E+00  0.00000000000E+00  0.45593999997E+02  0.45594000000E+02  0.51100000000E-03 0.  1.
         11   -1    0    0    0    0 -0.00000000000E+00 -0.00000000000E+00 -0.45593999997E+02  0.45594000000E+02  0.51100000000E-03 0. -1.
    9900012    2    1    2    0    0 -0.30365090990E+02 -0.19028788033E+02  0.19210210954E+02  0.50528859210E+02  0.29999998056E+02 0.  0.
         12    1    1    2    0    0  0.30365090990E+02  0.19028788033E+02 -0.19210210954E+02  0.40659140790E+02  0.00000000000E+00 0. -1.
         11    1    3    3    0    0 -0.14401486596E+02 -0.17230471478E+02  0.30077899786E+01  0.22656980477E+02  0.51100000000E-03 0. -1.
        -11    1    3    3    0    0 -0.14499589456E+02 -0.39479142068E+01  0.18885776139E+02  0.24134967611E+02  0.51100000000E-03 0.  1.
         12    1    3    3    0    0 -0.14640149388E+01  0.21495976512E+01 -0.26833551636E+01  0.37369111224E+01  0.00000000000E+00 0. -1.
</event>
<event>
 7    1  0.5946946E-013  0.5052887E+02  0.7816164E-02  0.1300439E+00
        -11   -1    0    0    0    0  0.00000000000E+00  0.00000000000E+00  0.45593999997E+02  0.45594000000E+02  0.51100000000E-03 0.  1.
         11   -1    0    0    0    0 -0.00000000000E+00 -0.00000000000E+00 -0.45593999997E+02  0.45594000000E+02  0.51100000000E-03 0. -1.
    9900012    2    1    2    0    0  0.59882902243E+01  0.39757982309E+02  0.60504823737E+01  0.50528866782E+02  0.30000021072E+02 0.  0.
         12    1    1    2    0    0 -0.59882902243E+01 -0.39757982309E+02 -0.60504823737E+01  0.40659133218E+02  0.00000000000E+00 0. -1.
         11    1    3    3    0    0  0.87521621610E+01  0.69613801035E+01 -0.75819233377E+01  0.13510985057E+02  0.51100000000E-03 0. -1.
        -11    1    3    3    0    0 -0.62557835568E+01  0.14983890719E+02  0.57030483026E+01  0.17209781207E+02  0.51100000000E-03 0.  1.
         12    1    3    3    0    0  0.34919116202E+01  0.17812711486E+02  0.79293574087E+01  0.19808100519E+02  0.00000000000E+00 0. -1.
</event>
<event>
 7    1  0.5946946E-013  0.5052886E+02  0.7816164E-02  0.1300439E+00
        -11   -1    0    0    0    0  0.00000000000E+00  0.00000000000E+00  0.45593999997E+02  0.45594000000E+02  0.51100000000E-03 0. -1.
         11   -1    0    0    0    0 -0.00000000000E+00 -0.00000000000E+00 -0.45593999997E+02  0.45594000000E+02  0.51100000000E-03 0.  1.
    9900012    2    1    2    0    0 -0.26475357077E+02 -0.22417828182E+02 -0.21205245329E+02  0.50528856106E+02  0.29999988619E+02 0.  0.
         12    1    1    2    0    0  0.26475357077E+02  0.22417828182E+02  0.21205245329E+02  0.40659143894E+02  0.00000000000E+00 0. -1.
         11    1    3    3    0    0 -0.13932943920E+02 -0.25236132229E+01 -0.11499968006E+02  0.18241294208E+02  0.51100000000E-03 0. -1.
        -11    1    3    3    0    0 -0.87516406245E+00 -0.14420374400E+02 -0.12495971367E+02  0.19101371957E+02  0.51100000000E-03 0.  1.
        -12    1    3    3    0    0 -0.11667249095E+02 -0.54738405586E+01  0.27906940446E+01  0.13186189941E+02  0.00000000000E+00 0.  1.
</event>
<event>
 7    1  0.5946946E-013  0.5052887E+02  0.7816164E-02  0.1300439E+00
        -11   -1    0    0    0    0  0.00000000000E+00  0.00000000000E+00  0.45593999997E+02  0.45594000000E+02  0.51100000000E-03 0.  1.
         11   -1    0    0    0    0 -0.00000000000E+00 -0.00000000000E+00 -0.45593999997E+02  0.45594000000E+02  0.51100000000E-03 0. -1.
    9900012    2    1    2    0    0  0.13568934603E+02 -0.36454500785E+02  0.11837155506E+02  0.50528869855E+02  0.30000030410E+02 0.  0.
         12    1    1    2    0    0 -0.13568934603E+02  0.36454500785E+02 -0.11837155506E+02  0.40659130145E+02  0.00000000000E+00 0. -1.
         11    1    3    3    0    0 -0.45837628058E+01 -0.14141382068E+02  0.12878483265E+02  0.19668373083E+02  0.51100000000E-03 0. -1.
        -11    1    3    3    0    0  0.14922664809E+02 -0.10591445096E+02  0.17588797924E+01  0.18383641984E+02  0.51100000000E-03 0.  1.
         12    1    3    3    0    0  0.32300325994E+01 -0.11721673620E+02 -0.28002075510E+01  0.12476854787E+02  0.00000000000E+00 0. -1.
</event>
<event>
 7    1  0.5946946E-013  0.5052886E+02  0.7816164E-02  0.1300439E+00
        -11   -1    0    0    0    0  0.00000000000E+00  0.00000000000E+00  0.45593999997E+02  0.45594000000E+02  0.51100000000E-03 0.  1.
         11   -1    0    0    0    0 -0.00000000000E+00 -0.00000000000E+00 -0.45593999997E+02  0.45594000000E+02  0.51100000000E-03 0. -1.
    9900012    2    1    2    0    0  0.88076113738E+01 -0.39357671800E+02 -0.51541860393E+01  0.50528856116E+02  0.29999988650E+02 0.  0.
         12    1    1    2    0    0 -0.88076113738E+01  0.39357671800E+02  0.51541860393E+01  0.40659143884E+02  0.00000000000E+00 0. -1.
         11    1    3    3    0    0 -0.84551090926E+00 -0.38779333145E+01  0.30583784821E+01  0.50106820584E+01  0.51100000000E-03 0. -1.
        -11    1    3    3    0    0  0.77393873680E+01 -0.27490338979E+02 -0.17202524588E+02  0.33339821632E+02  0.51100000000E-03 0.  1.
        -12    1    3    3    0    0  0.19137349151E+01 -0.79893995073E+01  0.89899600663E+01  0.12178352426E+02  0.00000000000E+00 0.  1.
</event>
<event>
 7    1  0.5946946E-013  0.5052886E+02  0.7816164E-02  0.1300439E+00
        -11   -1    0    0    0    0  0.00000000000E+00  0.00000000000E+00  0.45593999997E+02  0.45594000000E+02  0.51100000000E-03 0.  1.
         11   -1    0    0    0    0 -0.00000000000E+00 -0.00000000000E+00 -0.45593999997E+02  0.45594000000E+02  0.51100000000E-03 0. -1.
    9900012    2    1    2    0    0 -0.15843510163E+02  0.31195101402E+02  0.20712672156E+02  0.50528856457E+02  0.29999989688E+02 0.  0.
         12    1    1    2    0    0  0.15843510163E+02 -0.31195101402E+02 -0.20712672156E+02  0.40659143543E+02  0.00000000000E+00 0. -1.
         11    1    3    3    0    0  0.77860504255E+01  0.64459453288E+01  0.26118379945E+01  0.10440042643E+02  0.51100000000E-03 0. -1.
        -11    1    3    3    0    0 -0.20933156314E+02  0.17070990457E+02  0.16900576495E+02  0.31862913153E+02  0.51100000000E-03 0.  1.
         12    1    3    3    0    0 -0.26964042753E+01  0.76781656157E+01  0.12002576665E+01  0.82259006622E+01  0.00000000000E+00 0. -1.
</event>
<event>
 7    1  0.6002401E-013  0.5052891E+02  0.7816164E-02  0.1300439E+00
        -11   -1    0    0    0    0  0.00000000000E+00  0.00000000000E+00  0.45593999997E+02  0.45594000000E+02  0.51100000000E-03 0. -1.
         11   -1    0    0    0    0 -0.00000000000E+00 -0.00000000000E+00 -0.45593999997E+02  0.45594000000E+02  0.51100000000E-03 0.  1.
    9900012    2    1    2    0    0 -0.84610140983E+00  0.16343343836E+02 -0.37220164493E+02  0.50528912207E+02  0.30000159143E+02 0.  0.
         12    1    1    2    0    0  0.84610140983E+00 -0.16343343836E+02  0.37220164493E+02  0.40659087793E+02  0.00000000000E+00 0. -1.
         11    1    3    3    0    0 -0.35544978148E+01  0.79263327992E+01 -0.34846953827E+00  0.86938275598E+01  0.51100000000E-03 0. -1.
        -11    1    3    3    0    0 -0.51688514225E+01 -0.35477264902E-02 -0.24015714559E+02  0.24565658625E+02  0.51100000000E-03 0.  1.
        -12    1    3    3    0    0  0.78772478275E+01  0.84205587629E+01 -0.12855980395E+02  0.17269426022E+02  0.00000000000E+00 0.  1.
</event>
<event>
 7    1  0.5946946E-013  0.5052888E+02  0.7816164E-02  0.1300439E+00
        -11   -1    0    0    0    0  0.00000000000E+00  0.00000000000E+00  0.45593999997E+02  0.45594000000E+02  0.51100000000E-03 0.  1.
         11   -1    0    0    0    0 -0.00000000000E+00 -0.00000000000E+00 -0.45593999997E+02  0.45594000000E+02  0.51100000000E-03 0. -1.
    9900012    2    1    2    0    0  0.22600186517E+02 -0.20982718643E+02  0.26497575781E+02  0.50528875138E+02  0.30000046470E+02 0.  0.
         12    1    1    2    0    0 -0.22600186517E+02  0.20982718643E+02 -0.26497575781E+02  0.40659124862E+02  0.00000000000E+00 0. -1.
         11    1    3    3    0    0  0.20406363698E+02 -0.28095548594E+02  0.18337987526E+02  0.39269088568E+02  0.51100000000E-03 0. -1.
        -11    1    3    3    0    0  0.13049497885E+01  0.24804891653E+01  0.44494215112E+01  0.52586188772E+01  0.51100000000E-03 0.  1.
         12    1    3    3    0    0  0.88887303094E+00  0.46323407855E+01  0.37101667437E+01  0.60011676934E+01  0.00000000000E+00 0. -1.
</event>
<event>
 7    1  0.5946946E-013  0.5052886E+02  0.7816164E-02  0.1300439E+00
        -11   -1    0    0    0    0  0.00000000000E+00  0.00000000000E+00  0.45593999997E+02  0.45594000000E+02  0.51100000000E-03 0. -1.
         11   -1    0    0    0    0 -0.00000000000E+00 -0.00000000000E+00 -0.45593999997E+02  0.45594000000E+02  0.51100000000E-03 0.  1.
    9900012    2    1    2    0    0  0.33806982895E+02 -0.13253648848E+02 -0.18291928316E+02  0.50528856603E+02  0.29999990131E+02 0.  0.
         12    1    1    2    0    0 -0.33806982895E+02  0.13253648848E+02  0.18291928316E+02  0.40659143397E+02  0.00000000000E+00 0. -1.
         11    1    3    3    0    0  0.30421593438E+02 -0.72531871315E+01 -0.82673926491E+01  0.32348598924E+02  0.51100000000E-03 0.  1.
        -11    1    3    3    0    0  0.44975732594E+01 -0.95440073246E+01 -0.98939619965E+01  0.14463980271E+02  0.51100000000E-03 0. -1.
         12    1    3    3    0    0 -0.11121838026E+01  0.35435456081E+01 -0.13057367006E+00  0.37162774077E+01  0.00000000000E+00 0. -1.
</event>
<event>
 7    1  0.5946946E-013  0.5052886E+02  0.7816164E-02  0.1300439E+00
        -11   -1    0    0    0    0  0.00000000000E+00  0.00000000000E+00  0.45593999997E+02  0.45594000000E+02  0.51100000000E-03 0.  1.
         11   -1    0    0    0    0 -0.00000000000E+00 -0.00000000000E+00 -0.45593999997E+02  0.45594000000E+02  0.51100000000E-03 0. -1.
    9900012    2    1    2    0    0  0.24559417837E+02  0.28493310607E+02  0.15431527940E+02  0.50528858243E+02  0.29999995115E+02 0.  0.
         12    1    1    2    0    0 -0.24559417837E+02 -0.28493310607E+02 -0.15431527940E+02  0.40659141757E+02  0.00000000000E+00 0. -1.
         11    1    3    3    0    0  0.86101067211E+01  0.16645728530E+02  0.18358772777E+01  0.18830418521E+02  0.51100000000E-03 0. -1.
        -11    1    3    3    0    0  0.97168862699E+01 -0.42242852310E+01  0.16432348796E+01  0.10722065362E+02  0.51100000000E-03 0.  1.
        -12    1    3    3    0    0  0.62324248462E+01  0.16071867309E+02  0.11952415783E+02  0.20976374360E+02  0.00000000000E+00 0.  1.
</event>
<event>
 7    1  0.5946946E-013  0.5052884E+02  0.7816164E-02  0.1300439E+00
        -11   -1    0    0    0    0  0.00000000000E+00  0.00000000000E+00  0.45593999997E+02  0.45594000000E+02  0.51100000000E-03 0. -1.
         11   -1    0    0    0    0 -0.00000000000E+00 -0.00000000000E+00 -0.45593999997E+02  0.45594000000E+02  0.51100000000E-03 0.  1.
    9900012    2    1    2    0    0  0.66503042731E+01  0.13736484945E+02 -0.37686199206E+02  0.50528841423E+02  0.29999943989E+02 0.  0.
         12    1    1    2    0    0 -0.66503042731E+01 -0.13736484945E+02  0.37686199206E+02  0.40659158577E+02  0.00000000000E+00 0. -1.
         11    1    3    3    0    0  0.12210740257E+02  0.18245253137E+02 -0.19962947156E+02  0.29673400531E+02  0.51100000000E-03 0. -1.
        -11    1    3    3    0    0 -0.16488604126E+01 -0.17161020721E+01 -0.15279368565E+02  0.15463597608E+02  0.51100000000E-03 0.  1.
         12    1    3    3    0    0 -0.39115755717E+01 -0.27926661196E+01 -0.24438834855E+01  0.53918432840E+01  0.00000000000E+00 0. -1.
</event>
<event>
 7    1  0.5946946E-013  0.5052886E+02  0.7816164E-02  0.1300439E+00
        -11   -1    0    0    0    0  0.00000000000E+00  0.00000000000E+00  0.45593999997E+02  0.45594000000E+02  0.51100000000E-03 0.  1.
         11   -1    0    0    0    0 -0.00000000000E+00 -0.00000000000E+00 -0.45593999997E+02  0.45594000000E+02  0.51100000000E-03 0. -1.
    9900012    2    1    2    0    0 -0.12754491554E+02  0.79021514639E+01  0.37789474214E+02  0.50528863094E+02  0.30000009861E+02 0.  0.
         12    1    1    2    0    0  0.12754491554E+02 -0.79021514639E+01 -0.37789474214E+02  0.40659136906E+02  0.00000000000E+00 0. -1.
         11    1    3    3    0    0  0.47822677080E+01  0.31710211697E+00  0.52589678407E+01  0.71152920667E+01  0.51100000000E-03 0. -1.
        -11    1    3    3    0    0 -0.19863188063E+02  0.23107308914E+01  0.31852255117E+02  0.37609199321E+02  0.51100000000E-03 0.  1.
        -12    1    3    3    0    0  0.23264288014E+01  0.52743184555E+01  0.67825125635E+00  0.58043717063E+01  0.00000000000E+00 0.  1.
</event>
<event>
 7    1  0.5946946E-013  0.5052885E+02  0.7816164E-02  0.1300439E+00
        -11   -1    0    0    0    0  0.00000000000E+00  0.00000000000E+00  0.45593999997E+02  0.45594000000E+02  0.51100000000E-03 0. -1.
         11   -1    0    0    0    0 -0.00000000000E+00 -0.00000000000E+00 -0.45593999997E+02  0.45594000000E+02  0.51100000000E-03 0.  1.
    9900012    2    1    2    0    0  0.15805604787E+02 -0.25700618962E+02 -0.27254867448E+02  0.50528846574E+02  0.29999959647E+02 0.  0.
         12    1    1    2    0    0 -0.15805604787E+02  0.25700618962E+02  0.27254867448E+02  0.40659153426E+02  0.00000000000E+00 0. -1.
         11    1    3    3    0    0 -0.70016426853E+01 -0.57105864839E+01 -0.14089625337E+02  0.16737722087E+02  0.51100000000E-03 0. -1.
        -11    1    3    3    0    0  0.14181507508E+02 -0.14130323448E+02 -0.11893658768E+02  0.23286054090E+02  0.51100000000E-03 0.  1.
         12    1    3    3    0    0  0.86257399640E+01 -0.58597090300E+01 -0.12715833438E+01  0.10505070397E+02  0.00000000000E+00 0. -1.
</event>
<event>
 7    1  0.5946946E-013  0.5052886E+02  0.7816164E-02  0.1300439E+00
        -11   -1    0    0    0    0  0.00000000000E+00  0.00000000000E+00  0.45593999997E+02  0.45594000000E+02  0.51100000000E-03 0. -1.
         11   -1    0    0    0    0 -0.00000000000E+00 -0.00000000000E+00 -0.45593999997E+02  0.45594000000E+02  0.51100000000E-03 0.  1.
    9900012    2    1    2    0    0 -0.13858319189E+02  0.23959693126E+02 -0.29783307648E+02  0.50528864251E+02  0.30000013376E+02 0.  0.
         12    1    1    2    0    0  0.13858319189E+02 -0.23959693126E+02  0.29783307648E+02  0.40659135749E+02  0.00000000000E+00 0. -1.
         11    1    3    3    0    0  0.68086576252E+01  0.11485831922E+02 -0.13648134960E+02  0.19093290490E+02  0.51100000000E-03 0. -1.
        -11    1    3    3    0    0 -0.37512570672E+01 -0.18820797915E+01 -0.52542062782E+01  0.67246440650E+01  0.51100000000E-03 0.  1.
         12    1    3    3    0    0 -0.16915719747E+02  0.14355940995E+02 -0.10880966410E+02  0.24710929696E+02  0.00000000000E+00 0. -1.
</event>
<event>
 7    1  0.5946946E-013  0.5052886E+02  0.7816164E-02  0.1300439E+00
        -11   -1    0    0    0    0  0.00000000000E+00  0.00000000000E+00  0.45593999997E+02  0.45594000000E+02  0.51100000000E-03 0. -1.
         11   -1    0    0    0    0 -0.00000000000E+00 -0.00000000000E+00 -0.45593999997E+02  0.45594000000E+02  0.51100000000E-03 0.  1.
    9900012    2    1    2    0    0 -0.84861888030E+01  0.18115024645E+02 -0.35397684374E+02  0.50528861084E+02  0.30000003752E+02 0.  0.
         12    1    1    2    0    0  0.84861888030E+01 -0.18115024645E+02  0.35397684374E+02  0.40659138916E+02  0.00000000000E+00 0. -1.
         11    1    3    3    0    0 -0.58710761510E+01  0.71371804971E+00 -0.28456181644E+02  0.29064294292E+02  0.51100000000E-03 0. -1.
        -11    1    3    3    0    0 -0.25125302224E+01  0.11008631656E+02  0.92270770242E+00  0.11329349886E+02  0.51100000000E-03 0.  1.
         12    1    3    3    0    0 -0.10258242963E+00  0.63926749390E+01 -0.78642104323E+01  0.10135216907E+02  0.00000000000E+00 0. -1.
</event>
<event>
 7    1  0.5946946E-013  0.5052886E+02  0.7816164E-02  0.1300439E+00
        -11   -1    0    0    0    0  0.00000000000E+00  0.00000000000E+00  0.45593999997E+02  0.45594000000E+02  0.51100000000E-03 0. -1.
         11   -1    0    0    0    0 -0.00000000000E+00 -0.00000000000E+00 -0.45593999997E+02  0.45594000000E+02  0.51100000000E-03 0.  1.
    9900012    2    1    2    0    0  0.18595485937E+02 -0.36148761325E+02 -0.80013850410E+00  0.50528864935E+02  0.30000015458E+02 0.  0.
         12    1    1    2    0    0 -0.18595485937E+02  0.36148761325E+02  0.80013850410E+00  0.40659135065E+02  0.00000000000E+00 0. -1.
         11    1    3    3    0    0 -0.51796836269E+01 -0.61943555668E+00 -0.22171230991E+01  0.56681970662E+01  0.51100000000E-03 0. -1.
        -11    1    3    3    0    0  0.17510513216E+02 -0.26602513931E+02 -0.49527175208E+01  0.32231060046E+02  0.51100000000E-03 0.  1.
        -12    1    3    3    0    0  0.62646563483E+01 -0.89268118369E+01  0.63697021158E+01  0.12629607824E+02  0.00000000000E+00 0.  1.
</event>
<event>
 7    1  0.5946946E-013  0.5052886E+02  0.7816164E-02  0.1300439E+00
        -11   -1    0    0    0    0  0.00000000000E+00  0.00000000000E+00  0.45593999997E+02  0.45594000000E+02  0.51100000000E-03 0. -1.
         11   -1    0    0    0    0 -0.00000000000E+00 -0.00000000000E+00 -0.45593999997E+02  0.45594000000E+02  0.51100000000E-03 0.  1.
    9900012    2    1    2    0    0 -0.34249519703E+02  0.10783701463E+01 -0.21885460607E+02  0.50528857510E+02  0.29999992887E+02 0.  0.
         12    1    1    2    0    0  0.34249519703E+02 -0.10783701463E+01  0.21885460607E+02  0.40659142490E+02  0.00000000000E+00 0. -1.
         11    1    3    3    0    0 -0.86745208326E+01  0.17578801736E+01  0.57447920718E+01  0.10551781394E+02  0.51100000000E-03 0. -1.
        -11    1    3    3    0    0 -0.11602656366E+02 -0.68270420088E+01 -0.15084961722E+02  0.20218462052E+02  0.51100000000E-03 0.  1.
         12    1    3    3    0    0 -0.13972342504E+02  0.61475319815E+01 -0.12545290957E+02  0.19758614063E+02  0.00000000000E+00 0. -1.
</event>
<event>
 7    1  0.5946946E-013  0.5052886E+02  0.7816164E-02  0.1300439E+00
        -11   -1    0    0    0    0  0.00000000000E+00  0.00000000000E+00  0.45593999997E+02  0.45594000000E+02  0.51100000000E-03 0.  1.
         11   -1    0    0    0    0 -0.00000000000E+00 -0.00000000000E+00 -0.45593999997E+02  0.45594000000E+02  0.51100000000E-03 0. -1.
    9900012    2    1    2    0    0  0.12922882425E+02 -0.32874147595E+02  0.20135911051E+02  0.50528863460E+02  0.30000010974E+02 0.  0.
         12    1    1    2    0    0 -0.12922882425E+02  0.32874147595E+02 -0.20135911051E+02  0.40659136540E+02  0.00000000000E+00 0. -1.
         11    1    3    3    0    0 -0.40306160348E+01 -0.11509201779E+02  0.18747041057E+02  0.22364237968E+02  0.51100000000E-03 0. -1.
        -11    1    3    3    0    0  0.48775860743E+01 -0.29025607671E+01 -0.16122736411E+01  0.59004348547E+01  0.51100000000E-03 0.  1.
         12    1    3    3    0    0  0.12075912385E+02 -0.18462385049E+02  0.30011436350E+01  0.22264190638E+02  0.00000000000E+00 0. -1.
</event>
<event>
 7    1  0.5946946E-013  0.5052886E+02  0.7816164E-02  0.1300439E+00
        -11   -1    0    0    0    0  0.00000000000E+00  0.00000000000E+00  0.45593999997E+02  0.45594000000E+02  0.51100000000E-03 0. -1.
         11   -1    0    0    0    0 -0.00000000000E+00 -0.00000000000E+00 -0.45593999997E+02  0.45594000000E+02  0.51100000000E-03 0.  1.
    9900012    2    1    2    0    0 -0.36429044574E+02 -0.10993705563E+02 -0.14325820884E+02  0.50528855953E+02  0.29999988156E+02 0.  0.
         12    1    1    2    0    0  0.36429044574E+02  0.10993705563E+02  0.14325820884E+02  0.40659144047E+02  0.00000000000E+00 0. -1.
         11    1    3    3    0    0 -0.26917860874E+02 -0.34209999539E+01  0.41375166880E+01  0.27448014852E+02  0.51100000000E-03 0. -1.
        -11    1    3    3    0    0 -0.41171788568E+01 -0.10603858528E+01 -0.11033822837E+02  0.11824585682E+02  0.51100000000E-03 0.  1.
         12    1    3    3    0    0 -0.53940048431E+01 -0.65123197564E+01 -0.74295147354E+01  0.11256255419E+02  0.00000000000E+00 0. -1.
</event>
<event>
 7    1  0.5946946E-013  0.5052886E+02  0.7816164E-02  0.1300439E+00
        -11   -1    0    0    0    0  0.00000000000E+00  0.00000000000E+00  0.45593999997E+02  0.45594000000E+02  0.51100000000E-03 0. -1.
         11   -1    0    0    0    0 -0.00000000000E+00 -0.00000000000E+00 -0.45593999997E+02  0.45594000000E+02  0.51100000000E-03 0.  1.
    9900012    2    1    2    0    0 -0.82211303733E+01 -0.26983611495E+02 -0.29282478787E+02  0.50528857881E+02  0.29999994014E+02 0.  0.
         12    1    1    2    0    0  0.82211303733E+01  0.26983611495E+02  0.29282478787E+02  0.40659142119E+02  0.00000000000E+00 0. -1.
         11    1    3    3    0    0  0.83889516490E+01 -0.11214379900E+02 -0.15604766008E+02  0.20967726360E+02  0.51100000000E-03 0. -1.
        -11    1    3    3    0    0 -0.79072210312E+01 -0.10724226161E+02 -0.14220190474E+02  0.19487098003E+02  0.51100000000E-03 0.  1.
         12    1    3    3    0    0 -0.87028609911E+01 -0.50450054347E+01  0.54247769403E+00  0.10074033518E+02  0.00000000000E+00 0. -1.
</event>
<event>
 7    1  0.5946946E-013  0.5052885E+02  0.7816164E-02  0.1300439E+00
        -11   -1    0    0    0    0  0.00000000000E+00  0.00000000000E+00  0.45593999997E+02  0.45594000000E+02  0.51100000000E-03 0.  1.
         11   -1    0    0    0    0 -0.00000000000E+00 -0.00000000000E+00 -0.45593999997E+02  0.45594000000E+02  0.51100000000E-03 0. -1.
    9900012    2    1    2    0    0 -0.83941332350E+00 -0.36398979218E+02  0.18099071021E+02  0.50528847591E+02  0.29999962737E+02 0.  0.
         12    1    1    2    0    0  0.83941332350E+00  0.36398979218E+02 -0.18099071021E+02  0.40659152409E+02  0.00000000000E+00 0. -1.
         11    1    3    3    0    0 -0.53821749332E+01 -0.33784359367E+02  0.15662406231E+02  0.37625280253E+02  0.51100000000E-03 0.  1.
        -11    1    3    3    0    0  0.23847728626E+01 -0.14221393388E+01 -0.46413123425E+01  0.54084565661E+01  0.51100000000E-03 0. -1.
        -12    1    3    3    0    0  0.21579887472E+01 -0.11924805115E+01  0.70779771322E+01  0.74951107722E+01  0.00000000000E+00 0.  1.
</event>
<event>
 7    1  0.5946946E-013  0.5052886E+02  0.7816164E-02  0.1300439E+00
        -11   -1    0    0    0    0  0.00000000000E+00  0.00000000000E+00  0.45593999997E+02  0.45594000000E+02  0.51100000000E-03 0. -1.
         11   -1    0    0    0    0 -0.00000000000E+00 -0.00000000000E+00 -0.45593999997E+02  0.45594000000E+02  0.51100000000E-03 0.  1.
    9900012    2    1    2    0    0 -0.31560368512E+02 -0.25625602106E+02  0.66108351337E+00  0.50528863569E+02  0.30000011304E+02 0.  0.
         12    1    1    2    0    0  0.31560368512E+02  0.25625602106E+02 -0.66108351337E+00  0.40659136431E+02  0.00000000000E+00 0. -1.
         11    1    3    3    0    0 -0.30372243340E+02 -0.92617367744E+01  0.44135886728E+01  0.32058270365E+02  0.51100000000E-03 0.  1.
        -11    1    3    3    0    0  0.46046828643E+00 -0.14848393518E+02 -0.95356929184E+00  0.14886104788E+02  0.51100000000E-03 0. -1.
        -12    1    3    3    0    0 -0.16485934585E+01 -0.15154718135E+01 -0.27989358676E+01  0.35844884154E+01  0.00000000000E+00 0.  1.
</event>
<event>
 7    1  0.5946946E-013  0.5052883E+02  0.7816164E-02  0.1300439E+00
        -11   -1    0    0    0    0  0.00000000000E+00  0.00000000000E+00  0.45593999997E+02  0.45594000000E+02  0.51100000000E-03 0.  1.
         11   -1    0    0    0    0 -0.00000000000E+00 -0.00000000000E+00 -0.45593999997E+02  0.45594000000E+02  0.51100000000E-03 0. -1.
    9900012    2    1    2    0    0  0.18672938298E+01 -0.20613469652E+02  0.34996658885E+02  0.50528830672E+02  0.29999911310E+02 0.  0.
         12    1    1    2    0    0 -0.18672938298E+01  0.20613469652E+02 -0.34996658885E+02  0.40659169328E+02  0.00000000000E+00 0. -1.
         11    1    3    3    0    0  0.60062069058E+01 -0.73199982535E+01 -0.27221178404E+01  0.98522495718E+01  0.51100000000E-03 0. -1.
        -11    1    3    3    0    0 -0.43442108954E+01 -0.93288580579E+01  0.19702483086E+02  0.22228081361E+02  0.51100000000E-03 0.  1.
         12    1    3    3    0    0  0.20529781937E+00 -0.39646133404E+01  0.18016293639E+02  0.18448499739E+02  0.00000000000E+00 0. -1.
</event>
<event>
 7    1  0.5946946E-013  0.5052885E+02  0.7816164E-02  0.1300439E+00
        -11   -1    0    0    0    0  0.00000000000E+00  0.00000000000E+00  0.45593999997E+02  0.45594000000E+02  0.51100000000E-03 0.  1.
         11   -1    0    0    0    0 -0.00000000000E+00 -0.00000000000E+00 -0.45593999997E+02  0.45594000000E+02  0.51100000000E-03 0. -1.
    9900012    2    1    2    0    0  0.35620054298E+02  0.13824289857E+02  0.13902044978E+02  0.50528854500E+02  0.29999983737E+02 0.  0.
         12    1    1    2    0    0 -0.35620054298E+02 -0.13824289857E+02 -0.13902044978E+02  0.40659145500E+02  0.00000000000E+00 0. -1.
         11    1    3    3    0    0  0.87082399014E+00  0.44246809069E+01  0.18355306272E+01  0.48688097616E+01  0.51100000000E-03 0. -1.
        -11    1    3    3    0    0  0.31644600736E+02 -0.21382377116E+01  0.60734924204E+01  0.32293035266E+02  0.51100000000E-03 0.  1.
        -12    1    3    3    0    0  0.31046295715E+01  0.11537846662E+02  0.59930219302E+01  0.13367009472E+02  0.00000000000E+00 0.  1.
</event>
<event>
 7    1  0.5946946E-013  0.5052886E+02  0.7816164E-02  0.1300439E+00
        -11   -1    0    0    0    0  0.00000000000E+00  0.00000000000E+00  0.45593999997E+02  0.45594000000E+02  0.51100000000E-03 0. -1.
         11   -1    0    0    0    0 -0.00000000000E+00 -0.00000000000E+00 -0.45593999997E+02  0.45594000000E+02  0.51100000000E-03 0.  1.
    9900012    2    1    2    0    0  0.18241659591E+02 -0.12083797467E+02  0.34269364585E+02  0.50528860131E+02  0.30000000853E+02 0.  0.
         12    1    1    2    0    0 -0.18241659591E+02  0.12083797467E+02 -0.34269364585E+02  0.40659139869E+02  0.00000000000E+00 0. -1.
         11    1    3    3    0    0  0.35545187951E+01 -0.15650617632E+02  0.30386668925E+02  0.34364605115E+02  0.51100000000E-03 0. -1.
        -11    1    3    3    0    0  0.88288012408E+01  0.33461086419E+00  0.10457178984E+01  0.88968096508E+01  0.51100000000E-03 0.  1.
         12    1    3    3    0    0  0.58583395555E+01  0.32322093004E+01  0.28369777617E+01  0.72674453647E+01  0.00000000000E+00 0. -1.
</event>
<event>
 7    1  0.5946946E-013  0.5052886E+02  0.7816164E-02  0.1300439E+00
        -11   -1    0    0    0    0  0.00000000000E+00  0.00000000000E+00  0.45593999997E+02  0.45594000000E+02  0.51100000000E-03 0.  1.
         11   -1    0    0    0    0 -0.00000000000E+00 -0.00000000000E+00 -0.45593999997E+02  0.45594000000E+02  0.51100000000E-03 0. -1.
    9900012    2    1    2    0    0  0.24715121251E+02 -0.73302650500E+01  0.31441936961E+02  0.50528863216E+02  0.30000010232E+02 0.  0.
         12    1    1    2    0    0 -0.24715121251E+02  0.73302650500E+01 -0.31441936961E+02  0.40659136784E+02  0.00000000000E+00 0. -1.
         11    1    3    3    0    0 -0.37477650122E+01 -0.68508676470E+01  0.95379981883E+00  0.78670111516E+01  0.51100000000E-03 0. -1.
        -11    1    3    3    0    0  0.22693338343E+01 -0.12113883044E+01  0.70523083735E+01  0.75068229853E+01  0.51100000000E-03 0.  1.
         12    1    3    3    0    0  0.26193552429E+02  0.73199090140E+00  0.23435828769E+02  0.35155029079E+02  0.00000000000E+00 0. -1.
</event>
<event>
 7    1  0.5946946E-013  0.5052886E+02  0.7816164E-02  0.1300439E+00
        -11   -1    0    0    0    0  0.00000000000E+00  0.00000000000E+00  0.45593999997E+02  0.45594000000E+02  0.51100000000E-03 0.  1.
         11   -1    0    0    0    0 -0.00000000000E+00 -0.00000000000E+00 -0.45593999997E+02  0.45594000000E+02  0.51100000000E-03 0. -1.
    9900012    2    1    2    0    0  0.10639161657E+01 -0.22827798348E+02  0.33629235908E+02  0.50528858313E+02  0.29999995327E+02 0.  0.
         12    1    1    2    0    0 -0.10639161657E+01  0.22827798348E+02 -0.33629235908E+02  0.40659141687E+02  0.00000000000E+00 0. -1.
         11    1    3    3    0    0  0.19541070879E+01 -0.10868807213E+02  0.71325228942E+01  0.13146192903E+02  0.51100000000E-03 0. -1.
        -11    1    3    3    0    0  0.59796352675E+01 -0.46044801956E+01  0.26252473246E+02  0.27315739558E+02  0.51100000000E-03 0.  1.
        -12    1    3    3    0    0 -0.68698261896E+01 -0.73545109388E+01  0.24423976714E+00  0.10066925851E+02  0.00000000000E+00 0.  1.
</event>
<event>
 7    1  0.5946946E-013  0.5052886E+02  0.7816164E-02  0.1300439E+00
        -11   -1    0    0    0    0  0.00000000000E+00  0.00000000000E+00  0.45593999997E+02  0.45594000000E+02  0.51100000000E-03 0.  1.
         11   -1    0    0    0    0 -0.00000000000E+00 -0.00000000000E+00 -0.45593999997E+02  0.45594000000E+02  0.51100000000E-03 0. -1.
    9900012    2    1    2    0    0  0.22826721227E+02  0.17412022337E+02  0.28791109880E+02  0.50528859183E+02  0.29999997973E+02 0.  0.
         12    1    1    2    0    0 -0.22826721227E+02 -0.17412022337E+02 -0.28791109880E+02  0.40659140817E+02  0.00000000000E+00 0. -1.
         11    1    3    3    0    0  0.32561639816E+00  0.40029178528E+01  0.10326524906E+02  0.11080004255E+02  0.51100000000E-03 0. -1.
        -11    1    3    3    0    0  0.14617591316E+02 -0.44888412189E+01  0.75852363511E+01  0.17069255465E+02  0.51100000000E-03 0.  1.
        -12    1    3    3    0    0  0.78835135129E+01  0.17897945703E+02  0.10879348622E+02  0.22379599463E+02  0.00000000000E+00 0.  1.
</event>
<event>
 7    1  0.5946946E-013  0.5052886E+02  0.7816164E-02  0.1300439E+00
        -11   -1    0    0    0    0  0.00000000000E+00  0.00000000000E+00  0.45593999997E+02  0.45594000000E+02  0.51100000000E-03 0.  1.
         11   -1    0    0    0    0 -0.00000000000E+00 -0.00000000000E+00 -0.45593999997E+02  0.45594000000E+02  0.51100000000E-03 0. -1.
    9900012    2    1    2    0    0  0.12747584697E+02 -0.26759230204E+02  0.27831788284E+02  0.50528858890E+02  0.29999997082E+02 0.  0.
         12    1    1    2    0    0 -0.12747584697E+02  0.26759230204E+02 -0.27831788284E+02  0.40659141110E+02  0.00000000000E+00 0. -1.
         11    1    3    3    0    0  0.12614982675E+01 -0.67562671962E+01  0.17321177719E+02  0.18634959677E+02  0.51100000000E-03 0. -1.
        -11    1    3    3    0    0  0.27230088896E+01 -0.11297653586E+02 -0.44933209223E+01  0.12459602206E+02  0.51100000000E-03 0.  1.
        -12    1    3    3    0    0  0.87630775396E+01 -0.87053094219E+01  0.15003931487E+02  0.19434297007E+02  0.00000000000E+00 0.  1.
</event>
<event>
 7    1  0.5946946E-013  0.5052885E+02  0.7816164E-02  0.1300439E+00
        -11   -1    0    0    0    0  0.00000000000E+00  0.00000000000E+00  0.45593999997E+02  0.45594000000E+02  0.51100000000E-03 0.  1.
         11   -1    0    0    0    0 -0.00000000000E+00 -0.00000000000E+00 -0.45593999997E+02  0.45594000000E+02  0.51100000000E-03 0. -1.
    9900012    2    1    2    0    0 -0.52518432987E+00  0.12795765202E+01  0.40635616890E+02  0.50528849804E+02  0.29999969463E+02 0.  0.
         12    1    1    2    0    0  0.52518432987E+00 -0.12795765202E+01 -0.40635616890E+02  0.40659150196E+02  0.00000000000E+00 0. -1.
         11    1    3    3    0    0 -0.79659837700E+01  0.39568602081E+01  0.10878533213E+02  0.14051908243E+02  0.51100000000E-03 0. -1.
        -11    1    3    3    0    0  0.52663323548E+01 -0.79161169107E+01  0.43702230221E+01  0.10464129822E+02  0.51100000000E-03 0.  1.
        -12    1    3    3    0    0  0.21744670853E+01  0.52388332228E+01  0.25386860655E+02  0.26012811738E+02  0.00000000000E+00 0.  1.
</event>
<event>
 7    1  0.5946946E-013  0.5052886E+02  0.7816164E-02  0.1300439E+00
        -11   -1    0    0    0    0  0.00000000000E+00  0.00000000000E+00  0.45593999997E+02  0.45594000000E+02  0.51100000000E-03 0.  1.
         11   -1    0    0    0    0 -0.00000000000E+00 -0.00000000000E+00 -0.45593999997E+02  0.45594000000E+02  0.51100000000E-03 0. -1.
    9900012    2    1    2    0    0 -0.38431801603E+02 -0.27587088848E+00  0.13269739512E+02  0.50528862455E+02  0.30000007919E+02 0.  0.
         12    1    1    2    0    0  0.38431801603E+02  0.27587088848E+00 -0.13269739512E+02  0.40659137545E+02  0.00000000000E+00 0. -1.
         11    1    3    3    0    0 -0.33121404557E+02  0.72537631407E+01  0.83945914823E+01  0.34930125765E+02  0.51100000000E-03 0.  1.
        -11    1    3    3    0    0 -0.16338543527E+01 -0.37107605687E+01 -0.37185877891E+01  0.55015560935E+01  0.51100000000E-03 0. -1.
        -12    1    3    3    0    0 -0.36765426927E+01 -0.38188734605E+01  0.85937358190E+01  0.10097180597E+02  0.00000000000E+00 0.  1.
</event>
<event>
 7    1  0.5946946E-013  0.5052886E+02  0.7816164E-02  0.1300439E+00
        -11   -1    0    0    0    0  0.00000000000E+00  0.00000000000E+00  0.45593999997E+02  0.45594000000E+02  0.51100000000E-03 0. -1.
         11   -1    0    0    0    0 -0.00000000000E+00 -0.00000000000E+00 -0.45593999997E+02  0.45594000000E+02  0.51100000000E-03 0.  1.
    9900012    2    1    2    0    0  0.39579228749E+02 -0.69258892749E+01 -0.62195076966E+01  0.50528861217E+02  0.30000004155E+02 0.  0.
         12    1    1    2    0    0 -0.39579228749E+02  0.69258892749E+01  0.62195076966E+01  0.40659138783E+02  0.00000000000E+00 0. -1.
         11    1    3    3    0    0  0.36595608684E+01  0.73885321696E+01  0.46738004042E+01  0.94777214482E+01  0.51100000000E-03 0. -1.
        -11    1    3    3    0    0  0.15602919724E+02 -0.68004457112E+01 -0.50680651412E+00  0.17028036261E+02  0.51100000000E-03 0.  1.
         12    1    3    3    0    0  0.20316748156E+02 -0.75139757333E+01 -0.10386501587E+02  0.24023103508E+02  0.00000000000E+00 0. -1.
</event>
<event>
 7    1  0.5946946E-013  0.5052885E+02  0.7816164E-02  0.1300439E+00
        -11   -1    0    0    0    0  0.00000000000E+00  0.00000000000E+00  0.45593999997E+02  0.45594000000E+02  0.51100000000E-03 0.  1.
         11   -1    0    0    0    0 -0.00000000000E+00 -0.00000000000E+00 -0.45593999997E+02  0.45594000000E+02  0.51100000000E-03 0. -1.
    9900012    2    1    2    0    0  0.80796474077E+01  0.39769090941E+02 -0.25110531319E+01  0.50528847471E+02  0.29999962374E+02 0.  0.
         12    1    1    2    0    0 -0.80796474077E+01 -0.39769090941E+02  0.25110531319E+01  0.40659152529E+02  0.00000000000E+00 0. -1.
         11    1    3    3    0    0  0.98998480124E+01  0.32913097452E+02 -0.90633592883E+01  0.35544668467E+02  0.51100000000E-03 0. -1.
        -11    1    3    3    0    0  0.22478135596E+01 -0.23719209791E+01  0.25052263424E+01  0.41176248272E+01  0.51100000000E-03 0.  1.
        -12    1    3    3    0    0 -0.40680141642E+01  0.92279144677E+01  0.40470798140E+01  0.10866554177E+02  0.00000000000E+00 0.  1.
</event>
<event>
 7    1  0.5946946E-013  0.5052886E+02  0.7816164E-02  0.1300439E+00
        -11   -1    0    0    0    0  0.00000000000E+00  0.00000000000E+00  0.45593999997E+02  0.45594000000E+02  0.51100000000E-03 0. -1.
         11   -1    0    0    0    0 -0.00000000000E+00 -0.00000000000E+00 -0.45593999997E+02  0.45594000000E+02  0.51100000000E-03 0.  1.
    9900012    2    1    2    0    0 -0.53634084636E+01 -0.33762043588E+02 -0.22011901495E+02  0.50528861482E+02  0.30000004961E+02 0.  0.
         12    1    1    2    0    0  0.53634084636E+01  0.33762043588E+02  0.22011901495E+02  0.40659138518E+02  0.00000000000E+00 0. -1.
         11    1    3    3    0    0 -0.93729967219E+01 -0.90317496886E+01 -0.66783725465E+01  0.14629635338E+02  0.51100000000E-03 0. -1.
        -11    1    3    3    0    0  0.65414138325E+01 -0.65605704441E+00 -0.85008693715E+01  0.10746408056E+02  0.51100000000E-03 0.  1.
        -12    1    3    3    0    0 -0.25318255742E+01 -0.24074236855E+02 -0.68326595769E+01  0.25152818088E+02  0.00000000000E+00 0.  1.
</event>
<event>
 7    1  0.5946946E-013  0.5052885E+02  0.7816164E-02  0.1300439E+00
        -11   -1    0    0    0    0  0.00000000000E+00  0.00000000000E+00  0.45593999997E+02  0.45594000000E+02  0.51100000000E-03 0.  1.
         11   -1    0    0    0    0 -0.00000000000E+00 -0.00000000000E+00 -0.45593999997E+02  0.45594000000E+02  0.51100000000E-03 0. -1.
    9900012    2    1    2    0    0 -0.39728769030E+02 -0.86420143408E+01 -0.32664964169E+00  0.50528853422E+02  0.29999980460E+02 0.  0.
         12    1    1    2    0    0  0.39728769030E+02  0.86420143408E+01  0.32664964169E+00  0.40659146578E+02  0.00000000000E+00 0. -1.
         11    1    3    3    0    0 -0.24676778701E+02 -0.81733331732E+01  0.12244128404E+02  0.28734395119E+02  0.51100000000E-03 0.  1.
        -11    1    3    3    0    0 -0.10086240020E+02 -0.20553202069E+01 -0.27160252386E+01  0.10645814776E+02  0.51100000000E-03 0. -1.
         12    1    3    3    0    0 -0.49657503091E+01  0.15866390394E+01 -0.98547528076E+01  0.11148643526E+02  0.00000000000E+00 0. -1.
</event>
<event>
 7    1  0.5946946E-013  0.5052888E+02  0.7816164E-02  0.1300439E+00
        -11   -1    0    0    0    0  0.00000000000E+00  0.00000000000E+00  0.45593999997E+02  0.45594000000E+02  0.51100000000E-03 0. -1.
         11   -1    0    0    0    0 -0.00000000000E+00 -0.00000000000E+00 -0.45593999997E+02  0.45594000000E+02  0.51100000000E-03 0.  1.
    9900012    2    1    2    0    0  0.36705194642E+02  0.16378117338E+02 -0.61359304762E+01  0.50528884367E+02  0.30000074522E+02 0.  0.
         12    1    1    2    0    0 -0.36705194642E+02 -0.16378117338E+02  0.61359304762E+01  0.40659115633E+02  0.00000000000E+00 0. -1.
         11    1    3    3    0    0  0.56796029009E+01  0.17618922396E+02 -0.49363721280E+01  0.19158603435E+02  0.51100000000E-03 0. -1.
        -11    1    3    3    0    0  0.14754514118E+02  0.13702047467E+01 -0.14532135743E+01  0.14889089222E+02  0.51100000000E-03 0.  1.
         12    1    3    3    0    0  0.16271077623E+02 -0.26110098054E+01  0.25365522610E+00  0.16481191711E+02  0.00000000000E+00 0. -1.
</event>
<event>
 7    1  0.5946946E-013  0.5052885E+02  0.7816164E-02  0.1300439E+00
        -11   -1    0    0    0    0  0.00000000000E+00  0.00000000000E+00  0.45593999997E+02  0.45594000000E+02  0.51100000000E-03 0.  1.
         11   -1    0    0    0    0 -0.00000000000E+00 -0.00000000000E+00 -0.45593999997E+02  0.45594000000E+02  0.51100000000E-03 0. -1.
    9900012    2    1    2    0    0  0.19027197891E+02  0.11765458975E+02  0.33951522287E+02  0.50528854042E+02  0.29999982346E+02 0.  0.
         12    1    1    2    0    0 -0.19027197891E+02 -0.11765458975E+02 -0.33951522287E+02  0.40659145958E+02  0.00000000000E+00 0. -1.
         11    1    3    3    0    0  0.22828982290E+02  0.76338925012E+01  0.28204189778E+02  0.37079847200E+02  0.51100000000E-03 0. -1.
        -11    1    3    3    0    0  0.29264120449E+01  0.26850716807E+01  0.52029934992E+01  0.65455816396E+01  0.51100000000E-03 0.  1.
         12    1    3    3    0    0 -0.67281964435E+01  0.14464947931E+01  0.54433900983E+00  0.69034252025E+01  0.00000000000E+00 0. -1.
</event>
<event>
 7    1  0.5946946E-013  0.5052886E+02  0.7816164E-02  0.1300439E+00
        -11   -1    0    0    0    0  0.00000000000E+00  0.00000000000E+00  0.45593999997E+02  0.45594000000E+02  0.51100000000E-03 0.  1.
         11   -1    0    0    0    0 -0.00000000000E+00 -0.00000000000E+00 -0.45593999997E+02  0.45594000000E+02  0.51100000000E-03 0. -1.
    9900012    2    1    2    0    0  0.14216956966E+02  0.21430326324E+02  0.31492614724E+02  0.50528861619E+02  0.30000005378E+02 0.  0.
         12    1    1    2    0    0 -0.14216956966E+02 -0.21430326324E+02 -0.31492614724E+02  0.40659138381E+02  0.00000000000E+00 0. -1.
         11    1    3    3    0    0  0.46167509103E+01  0.12627796162E+01  0.22362675621E+02  0.22869155265E+02  0.51100000000E-03 0. -1.
        -11    1    3    3    0    0  0.60163433626E+00  0.15847807430E+02  0.36544373579E+01  0.16274823405E+02  0.51100000000E-03 0.  1.
        -12    1    3    3    0    0  0.89985717196E+01  0.43197392781E+01  0.54755017448E+01  0.11384882950E+02  0.00000000000E+00 0.  1.
</event>
<event>
 7    1  0.5946946E-013  0.5052886E+02  0.7816164E-02  0.1300439E+00
        -11   -1    0    0    0    0  0.00000000000E+00  0.00000000000E+00  0.45593999997E+02  0.45594000000E+02  0.51100000000E-03 0. -1.
         11   -1    0    0    0    0 -0.00000000000E+00 -0.00000000000E+00 -0.45593999997E+02  0.45594000000E+02  0.51100000000E-03 0.  1.
    9900012    2    1    2    0    0 -0.45207025912E+01  0.40398611904E+02 -0.82535110529E+00  0.50528858345E+02  0.29999995425E+02 0.  0.
         12    1    1    2    0    0  0.45207025912E+01 -0.40398611904E+02  0.82535110529E+00  0.40659141655E+02  0.00000000000E+00 0. -1.
         11    1    3    3    0    0 -0.14057633948E+02  0.15513141666E+02 -0.20686849935E+01  0.21036969706E+02  0.51100000000E-03 0. -1.
        -11    1    3    3    0    0  0.49643593869E+01  0.17433467539E+02  0.65392364448E+01  0.19269983604E+02  0.51100000000E-03 0.  1.
         12    1    3    3    0    0  0.45725719697E+01  0.74520026991E+01 -0.52959025566E+01  0.10221905034E+02  0.00000000000E+00 0. -1.
</event>
<event>
 7    1  0.5946946E-013  0.5052882E+02  0.7816164E-02  0.1300439E+00
        -11   -1    0    0    0    0  0.00000000000E+00  0.00000000000E+00  0.45593999997E+02  0.45594000000E+02  0.51100000000E-03 0.  1.
         11   -1    0    0    0    0 -0.00000000000E+00 -0.00000000000E+00 -0.45593999997E+02  0.45594000000E+02  0.51100000000E-03 0. -1.
    9900012    2    1    2    0    0  0.33849977589E+02  0.17010346450E+02  0.14764675524E+02  0.50528824990E+02  0.29999894040E+02 0.  0.
         12    1    1    2    0    0 -0.33849977589E+02 -0.17010346450E+02 -0.14764675524E+02  0.40659175010E+02  0.00000000000E+00 0. -1.
         11    1    3    3    0    0 -0.12055649299E+01  0.41810056143E+01  0.15673267070E+01  0.46250089745E+01  0.51100000000E-03 0. -1.
        -11    1    3    3    0    0  0.11890075658E+02  0.16425271477E+02  0.37092877160E+01  0.20613642518E+02  0.51100000000E-03 0.  1.
         12    1    3    3    0    0  0.23165466861E+02 -0.35959306411E+01  0.94880611014E+01  0.25290173498E+02  0.00000000000E+00 0. -1.
</event>
<event>
 7    1  0.5946946E-013  0.5052886E+02  0.7816164E-02  0.1300439E+00
        -11   -1    0    0    0    0  0.00000000000E+00  0.00000000000E+00  0.45593999997E+02  0.45594000000E+02  0.51100000000E-03 0. -1.
         11   -1    0    0    0    0 -0.00000000000E+00 -0.00000000000E+00 -0.45593999997E+02  0.45594000000E+02  0.51100000000E-03 0.  1.
    9900012    2    1    2    0    0  0.66220276073E+01 -0.38785977666E+02  0.10245120854E+02  0.50528858169E+02  0.29999994890E+02 0.  0.
         12    1    1    2    0    0 -0.66220276073E+01  0.38785977666E+02 -0.10245120854E+02  0.40659141831E+02  0.00000000000E+00 0. -1.
         11    1    3    3    0    0 -0.63498056081E-01 -0.27685977644E+02 -0.26551792078E+01  0.27813079064E+02  0.51100000000E-03 0. -1.
        -11    1    3    3    0    0  0.37622651814E+01  0.20489347519E+01  0.33853693699E+00  0.42973690127E+01  0.51100000000E-03 0.  1.
         12    1    3    3    0    0  0.29232604820E+01 -0.13148934773E+02  0.12561763125E+02  0.18418410092E+02  0.00000000000E+00 0. -1.
</event>
<event>
 7    1  0.5946946E-013  0.5052887E+02  0.7816164E-02  0.1300439E+00
        -11   -1    0    0    0    0  0.00000000000E+00  0.00000000000E+00  0.45593999997E+02  0.45594000000E+02  0.51100000000E-03 0.  1.
         11   -1    0    0    0    0 -0.00000000000E+00 -0.00000000000E+00 -0.45593999997E+02  0.45594000000E+02  0.51100000000E-03 0. -1.
    9900012    2    1    2    0    0  0.56394053910E+01  0.31351948545E+02  0.25266928614E+02  0.50528865082E+02  0.30000015903E+02 0.  0.
         12    1    1    2    0    0 -0.56394053910E+01 -0.31351948545E+02 -0.25266928614E+02  0.40659134918E+02  0.00000000000E+00 0. -1.
         11    1    3    3    0    0  0.92158213840E+01  0.99134712255E+01  0.24940930746E+01  0.13763312684E+02  0.51100000000E-03 0. -1.
        -11    1    3    3    0    0 -0.75344563117E+01  0.21622108622E+02  0.13257872385E+02  0.26458548592E+02  0.51100000000E-03 0.  1.
        -12    1    3    3    0    0  0.39580403186E+01 -0.18363130278E+00  0.95149631544E+01  0.10307003806E+02  0.00000000000E+00 0.  1.
</event>
<event>
 7    1  0.5946946E-013  0.5052886E+02  0.7816164E-02  0.1300439E+00
        -11   -1    0    0    0    0  0.00000000000E+00  0.00000000000E+00  0.45593999997E+02  0.45594000000E+02  0.51100000000E-03 0.  1.
         11   -1    0    0    0    0 -0.00000000000E+00 -0.00000000000E+00 -0.45593999997E+02  0.45594000000E+02  0.51100000000E-03 0. -1.
    9900012    2    1    2    0    0 -0.17776377375E+02  0.20716458846E+02  0.30132948531E+02  0.50528857770E+02  0.29999993677E+02 0.  0.
         12    1    1    2    0    0  0.17776377375E+02 -0.20716458846E+02 -0.30132948531E+02  0.40659142230E+02  0.00000000000E+00 0. -1.
         11    1    3    3    0    0  0.38808303312E+01  0.16934292468E+02  0.97567748500E+01  0.19925505293E+02  0.51100000000E-03 0. -1.
        -11    1    3    3    0    0 -0.19144904565E+02  0.46460486993E+01  0.19703359462E+02  0.27862798023E+02  0.51100000000E-03 0.  1.
        -12    1    3    3    0    0 -0.25123031416E+01 -0.86388232109E+00  0.67281421895E+00  0.27405544536E+01  0.00000000000E+00 0.  1.
</event>
<event>
 7    1  0.5946946E-013  0.5052886E+02  0.7816164E-02  0.1300439E+00
        -11   -1    0    0    0    0  0.00000000000E+00  0.00000000000E+00  0.45593999997E+02  0.45594000000E+02  0.51100000000E-03 0.  1.
         11   -1    0    0    0    0 -0.00000000000E+00 -0.00000000000E+00 -0.45593999997E+02  0.45594000000E+02  0.51100000000E-03 0. -1.
    9900012    2    1    2    0    0  0.61068830518E+01 -0.23879486762E+02  0.32336383739E+02  0.50528860536E+02  0.30000002086E+02 0.  0.
         12    1    1    2    0    0 -0.61068830518E+01  0.23879486762E+02 -0.32336383739E+02  0.40659139464E+02  0.00000000000E+00 0. -1.
         11    1    3    3    0    0 -0.35374936608E+01 -0.63129780782E+00  0.15243087939E+02  0.15660910845E+02  0.51100000000E-03 0. -1.
        -11    1    3    3    0    0  0.14493717330E+02 -0.16737736307E+02  0.11034439060E+02  0.24738199295E+02  0.51100000000E-03 0.  1.
        -12    1    3    3    0    0 -0.48493406173E+01 -0.65104526465E+01  0.60588567398E+01  0.10129750396E+02  0.00000000000E+00 0.  1.
</event>
<event>
 7    1  0.5946946E-013  0.5052886E+02  0.7816164E-02  0.1300439E+00
        -11   -1    0    0    0    0  0.00000000000E+00  0.00000000000E+00  0.45593999997E+02  0.45594000000E+02  0.51100000000E-03 0. -1.
         11   -1    0    0    0    0 -0.00000000000E+00 -0.00000000000E+00 -0.45593999997E+02  0.45594000000E+02  0.51100000000E-03 0.  1.
    9900012    2    1    2    0    0 -0.30464878648E+02 -0.26298172431E+02  0.57846840788E+01  0.50528864813E+02  0.30000015086E+02 0.  0.
         12    1    1    2    0    0  0.30464878648E+02  0.26298172431E+02 -0.57846840788E+01  0.40659135187E+02  0.00000000000E+00 0. -1.
         11    1    3    3    0    0 -0.31109032353E+01  0.61828680158E+00 -0.50984465211E+01  0.60045111956E+01  0.51100000000E-03 0. -1.
        -11    1    3    3    0    0 -0.10413357505E+02 -0.23615432868E+02  0.80383733628E+01  0.27032242427E+02  0.51100000000E-03 0.  1.
         12    1    3    3    0    0 -0.16940617907E+02 -0.33010263649E+01  0.28447572370E+01  0.17492111190E+02  0.00000000000E+00 0. -1.
</event>
<event>
 7    1  0.5946946E-013  0.5052885E+02  0.7816164E-02  0.1300439E+00
        -11   -1    0    0    0    0  0.00000000000E+00  0.00000000000E+00  0.45593999997E+02  0.45594000000E+02  0.51100000000E-03 0.  1.
         11   -1    0    0    0    0 -0.00000000000E+00 -0.00000000000E+00 -0.45593999997E+02  0.45594000000E+02  0.51100000000E-03 0. -1.
    9900012    2    1    2    0    0 -0.20332603411E+02  0.19311081527E+02  0.29442046831E+02  0.50528846630E+02  0.29999959815E+02 0.  0.
         12    1    1    2    0    0  0.20332603411E+02 -0.19311081527E+02 -0.29442046831E+02  0.40659153370E+02  0.00000000000E+00 0. -1.
         11    1    3    3    0    0 -0.91923920613E+01 -0.33019233647E+01  0.36515808515E+01  0.10427694505E+02  0.51100000000E-03 0. -1.
        -11    1    3    3    0    0  0.41148891017E+01  0.97619502626E+01  0.69989617387E+01  0.12696985899E+02  0.51100000000E-03 0.  1.
        -12    1    3    3    0    0 -0.15255100452E+02  0.12851054629E+02  0.18791504241E+02  0.27404166225E+02  0.00000000000E+00 0.  1.
</event>
<event>
 7    1  0.5946946E-013  0.5052885E+02  0.7816164E-02  0.1300439E+00
        -11   -1    0    0    0    0  0.00000000000E+00  0.00000000000E+00  0.45593999997E+02  0.45594000000E+02  0.51100000000E-03 0.  1.
         11   -1    0    0    0    0 -0.00000000000E+00 -0.00000000000E+00 -0.45593999997E+02  0.45594000000E+02  0.51100000000E-03 0. -1.
    9900012    2    1    2    0    0  0.64750967967E+01  0.24038970497E+02  0.32146030598E+02  0.50528852637E+02  0.29999978076E+02 0.  0.
         12    1    1    2    0    0 -0.64750967967E+01 -0.24038970497E+02 -0.32146030598E+02  0.40659147363E+02  0.00000000000E+00 0. -1.
         11    1    3    3    0    0 -0.45289642392E+01  0.12684804504E+02  0.25790858605E+02  0.29096119505E+02  0.51100000000E-03 0. -1.
        -11    1    3    3    0    0  0.12093358958E+02  0.38291643782E+01  0.25846605678E+01  0.12945744523E+02  0.51100000000E-03 0.  1.
        -12    1    3    3    0    0 -0.10892979226E+01  0.75250016142E+01  0.37705114250E+01  0.84869886099E+01  0.00000000000E+00 0.  1.
</event>
<event>
 7    1  0.5946946E-013  0.5052885E+02  0.7816164E-02  0.1300439E+00
        -11   -1    0    0    0    0  0.00000000000E+00  0.00000000000E+00  0.45593999997E+02  0.45594000000E+02  0.51100000000E-03 0.  1.
         11   -1    0    0    0    0 -0.00000000000E+00 -0.00000000000E+00 -0.45593999997E+02  0.45594000000E+02  0.51100000000E-03 0. -1.
    9900012    2    1    2    0    0 -0.32259697744E+02 -0.18489305183E+02 -0.16450641643E+02  0.50528854471E+02  0.29999983650E+02 0.  0.
         12    1    1    2    0    0  0.32259697744E+02  0.18489305183E+02  0.16450641643E+02  0.40659145529E+02  0.00000000000E+00 0. -1.
         11    1    3    3    0    0 -0.28370871398E+01 -0.60032865005E+01  0.94219958708E-01  0.66405865635E+01  0.51100000000E-03 0. -1.
        -11    1    3    3    0    0 -0.50451653323E+01  0.74163505795E+01 -0.55749194934E+01  0.10561045250E+02  0.51100000000E-03 0.  1.
        -12    1    3    3    0    0 -0.24377445272E+02 -0.19902369262E+02 -0.10969942108E+02  0.33327222658E+02  0.00000000000E+00 0.  1.
</event>
<event>
 7    1  0.5946946E-013  0.5052887E+02  0.7816164E-02  0.1300439E+00
        -11   -1    0    0    0    0  0.00000000000E+00  0.00000000000E+00  0.45593999997E+02  0.45594000000E+02  0.51100000000E-03 0.  1.
         11   -1    0    0    0    0 -0.00000000000E+00 -0.00000000000E+00 -0.45593999997E+02  0.45594000000E+02  0.51100000000E-03 0. -1.
    9900012    2    1    2    0    0 -0.64987429691E+01  0.18829785067E+02  0.35445316350E+02  0.50528869205E+02  0.30000028437E+02 0.  0.
         12    1    1    2    0    0  0.64987429691E+01 -0.18829785067E+02 -0.35445316350E+02  0.40659130795E+02  0.00000000000E+00 0. -1.
         11    1    3    3    0    0 -0.59079092003E+01  0.35192017671E+01  0.32462041739E+02  0.33182409894E+02  0.51100000000E-03 0.  1.
        -11    1    3    3    0    0 -0.28942514762E+01  0.14059140705E+02  0.17862665803E+01  0.14464676890E+02  0.51100000000E-03 0. -1.
        -12    1    3    3    0    0  0.23034177074E+01  0.12514425943E+01  0.11970080301E+01  0.28817824217E+01  0.00000000000E+00 0.  1.
</event>
<event>
 7    1  0.5946946E-013  0.5052886E+02  0.7816164E-02  0.1300439E+00
        -11   -1    0    0    0    0  0.00000000000E+00  0.00000000000E+00  0.45593999997E+02  0.45594000000E+02  0.51100000000E-03 0.  1.
         11   -1    0    0    0    0 -0.00000000000E+00 -0.00000000000E+00 -0.45593999997E+02  0.45594000000E+02  0.51100000000E-03 0. -1.
    9900012    2    1    2    0    0 -0.92218250426E+01 -0.20904865343E+02  0.33631985007E+02  0.50528857515E+02  0.29999992903E+02 0.  0.
         12    1    1    2    0    0  0.92218250426E+01  0.20904865343E+02 -0.33631985007E+02  0.40659142485E+02  0.00000000000E+00 0. -1.
         11    1    3    3    0    0 -0.50820742378E+01  0.13049297763E+01  0.39529933140E+01  0.65693589246E+01  0.51100000000E-03 0. -1.
        -11    1    3    3    0    0 -0.68899902836E+00 -0.20756383822E+02  0.32975822571E+02  0.38970592291E+02  0.51100000000E-03 0.  1.
        -12    1    3    3    0    0 -0.34507517765E+01 -0.14534112978E+01 -0.32968308785E+01  0.49889062995E+01  0.00000000000E+00 0.  1.
</event>
<event>
 7    1  0.5946946E-013  0.5052886E+02  0.7816164E-02  0.1300439E+00
        -11   -1    0    0    0    0  0.00000000000E+00  0.00000000000E+00  0.45593999997E+02  0.45594000000E+02  0.51100000000E-03 0.  1.
         11   -1    0    0    0    0 -0.00000000000E+00 -0.00000000000E+00 -0.45593999997E+02  0.45594000000E+02  0.51100000000E-03 0. -1.
    9900012    2    1    2    0    0  0.15454961343E+02 -0.24573262303E+02  0.28468656409E+02  0.50528862674E+02  0.30000008585E+02 0.  0.
         12    1    1    2    0    0 -0.15454961343E+02  0.24573262303E+02 -0.28468656409E+02  0.40659137326E+02  0.00000000000E+00 0. -1.
         11    1    3    3    0    0  0.18180643841E+02 -0.89943587816E+01  0.15912113817E+02  0.25780412463E+02  0.51100000000E-03 0. -1.
        -11    1    3    3    0    0 -0.68232389210E+01 -0.11856595364E+02  0.13399326692E+02  0.19148822394E+02  0.51100000000E-03 0.  1.
        -12    1    3    3    0    0  0.40975564226E+01 -0.37223081579E+01 -0.84278410007E+00  0.55996278178E+01  0.00000000000E+00 0.  1.
</event>
<event>
 7    1  0.5946946E-013  0.5052886E+02  0.7816164E-02  0.1300439E+00
        -11   -1    0    0    0    0  0.00000000000E+00  0.00000000000E+00  0.45593999997E+02  0.45594000000E+02  0.51100000000E-03 0.  1.
         11   -1    0    0    0    0 -0.00000000000E+00 -0.00000000000E+00 -0.45593999997E+02  0.45594000000E+02  0.51100000000E-03 0. -1.
    9900012    2    1    2    0    0  0.38415344418E+02 -0.12917753820E+02  0.32493816384E+01  0.50528861648E+02  0.30000005466E+02 0.  0.
         12    1    1    2    0    0 -0.38415344418E+02  0.12917753820E+02 -0.32493816384E+01  0.40659138352E+02  0.00000000000E+00 0. -1.
         11    1    3    3    0    0  0.29708076453E+02  0.25423998969E+01 -0.60783843628E+01  0.30429925411E+02  0.51100000000E-03 0. -1.
        -11    1    3    3    0    0  0.36525533111E+01 -0.67883329652E+01  0.32570308696E+01  0.83684443287E+01  0.51100000000E-03 0.  1.
         12    1    3    3    0    0  0.50547146530E+01 -0.86718207519E+01  0.60707351315E+01  0.11730491908E+02  0.00000000000E+00 0. -1.
</event>
<event>
 7    1  0.5946946E-013  0.5052887E+02  0.7816164E-02  0.1300439E+00
        -11   -1    0    0    0    0  0.00000000000E+00  0.00000000000E+00  0.45593999997E+02  0.45594000000E+02  0.51100000000E-03 0.  1.
         11   -1    0    0    0    0 -0.00000000000E+00 -0.00000000000E+00 -0.45593999997E+02  0.45594000000E+02  0.51100000000E-03 0. -1.
    9900012    2    1    2    0    0  0.10120594480E+02  0.26012771709E+02  0.29564745189E+02  0.50528869627E+02  0.30000029717E+02 0.  0.
         12    1    1    2    0    0 -0.10120594480E+02 -0.26012771709E+02 -0.29564745189E+02  0.40659130373E+02  0.00000000000E+00 0. -1.
         11    1    3    3    0    0  0.87726370504E+01  0.86060905618E+00  0.17666611174E+02  0.19743580208E+02  0.51100000000E-03 0. -1.
        -11    1    3    3    0    0  0.53123821542E+01  0.20085388278E+02  0.12624575110E+02  0.24310987709E+02  0.51100000000E-03 0.  1.
         12    1    3    3    0    0 -0.39644247246E+01  0.50667743750E+01 -0.72644109527E+00  0.64743017097E+01  0.00000000000E+00 0. -1.
</event>
<event>
 7    1  0.5946946E-013  0.5052886E+02  0.7816164E-02  0.1300439E+00
        -11   -1    0    0    0    0  0.00000000000E+00  0.00000000000E+00  0.45593999997E+02  0.45594000000E+02  0.51100000000E-03 0.  1.
         11   -1    0    0    0    0 -0.00000000000E+00 -0.00000000000E+00 -0.45593999997E+02  0.45594000000E+02  0.51100000000E-03 0. -1.
    9900012    2    1    2    0    0  0.18166965032E+02 -0.15263396800E+02  0.33017504947E+02  0.50528861626E+02  0.30000005399E+02 0.  0.
         12    1    1    2    0    0 -0.18166965032E+02  0.15263396800E+02 -0.33017504947E+02  0.40659138374E+02  0.00000000000E+00 0. -1.
         11    1    3    3    0    0 -0.26379933280E+01  0.55706248448E+01  0.14200075001E+02  0.15480083987E+02  0.51100000000E-03 0. -1.
        -11    1    3    3    0    0  0.12800546904E+02 -0.14562744670E+02  0.11876776442E+02  0.22737311897E+02  0.51100000000E-03 0.  1.
         12    1    3    3    0    0  0.80044114567E+01 -0.62712769742E+01  0.69406535042E+01  0.12311465742E+02  0.00000000000E+00 0. -1.
</event>
<event>
 7    1  0.5946946E-013  0.5052886E+02  0.7816164E-02  0.1300439E+00
        -11   -1    0    0    0    0  0.00000000000E+00  0.00000000000E+00  0.45593999997E+02  0.45594000000E+02  0.51100000000E-03 0. -1.
         11   -1    0    0    0    0 -0.00000000000E+00 -0.00000000000E+00 -0.45593999997E+02  0.45594000000E+02  0.51100000000E-03 0.  1.
    9900012    2    1    2    0    0 -0.13529620208E+02  0.26700164922E+02 -0.27517556797E+02  0.50528863734E+02  0.30000011807E+02 0.  0.
         12    1    1    2    0    0  0.13529620208E+02 -0.26700164922E+02  0.27517556797E+02  0.40659136266E+02  0.00000000000E+00 0. -1.
         11    1    3    3    0    0 -0.59271749207E+01  0.30061402998E+01 -0.13978339686E+02  0.15477799026E+02  0.51100000000E-03 0. -1.
        -11    1    3    3    0    0  0.46822988205E+01  0.15954904613E+02 -0.25064230666E+01  0.16815619534E+02  0.51100000000E-03 0.  1.
        -12    1    3    3    0    0 -0.12284744107E+02  0.77391200092E+01 -0.11032794044E+02  0.18235445175E+02  0.00000000000E+00 0.  1.
</event>
<event>
 7    1  0.5946946E-013  0.5052886E+02  0.7816164E-02  0.1300439E+00
        -11   -1    0    0    0    0  0.00000000000E+00  0.00000000000E+00  0.45593999997E+02  0.45594000000E+02  0.51100000000E-03 0.  1.
         11   -1    0    0    0    0 -0.00000000000E+00 -0.00000000000E+00 -0.45593999997E+02  0.45594000000E+02  0.51100000000E-03 0. -1.
    9900012    2    1    2    0    0  0.15084232647E+01  0.29983947469E+02  0.27419943830E+02  0.50528858762E+02  0.29999996694E+02 0.  0.
         12    1    1    2    0    0 -0.15084232647E+01 -0.29983947469E+02 -0.27419943830E+02  0.40659141238E+02  0.00000000000E+00 0. -1.
         11    1    3    3    0    0  0.50347828414E+00  0.21643690854E+00 -0.42207442717E+00  0.69172422335E+00  0.51100000000E-03 0. -1.
        -11    1    3    3    0    0  0.26326665095E+01  0.19095427890E+02  0.32731678756E+02  0.37985906514E+02  0.51100000000E-03 0.  1.
        -12    1    3    3    0    0 -0.16277215289E+01  0.10672082670E+02 -0.48896604990E+01  0.11851228025E+02  0.00000000000E+00 0.  1.
</event>
<event>
 7    1  0.5946946E-013  0.5052886E+02  0.7816164E-02  0.1300439E+00
        -11   -1    0    0    0    0  0.00000000000E+00  0.00000000000E+00  0.45593999997E+02  0.45594000000E+02  0.51100000000E-03 0. -1.
         11   -1    0    0    0    0 -0.00000000000E+00 -0.00000000000E+00 -0.45593999997E+02  0.45594000000E+02  0.51100000000E-03 0.  1.
    9900012    2    1    2    0    0  0.23307779270E+02  0.23534512062E+02 -0.23580492414E+02  0.50528862590E+02  0.30000008327E+02 0.  0.
         12    1    1    2    0    0 -0.23307779270E+02 -0.23534512062E+02  0.23580492414E+02  0.40659137410E+02  0.00000000000E+00 0. -1.
         11    1    3    3    0    0 -0.56849657094E+01  0.92565651678E+01 -0.65637399064E+01  0.12691946881E+02  0.51100000000E-03 0. -1.
        -11    1    3    3    0    0  0.20738478756E+02  0.11019224165E+02 -0.16950345992E+02  0.28962424481E+02  0.51100000000E-03 0.  1.
         12    1    3    3    0    0  0.82542662230E+01  0.32587227293E+01 -0.66406515213E-01  0.88744912266E+01  0.00000000000E+00 0. -1.
</event>
<event>
 7    1  0.5946946E-013  0.5052885E+02  0.7816164E-02  0.1300439E+00
        -11   -1    0    0    0    0  0.00000000000E+00  0.00000000000E+00  0.45593999997E+02  0.45594000000E+02  0.51100000000E-03 0.  1.
         11   -1    0    0    0    0 -0.00000000000E+00 -0.00000000000E+00 -0.45593999997E+02  0.45594000000E+02  0.51100000000E-03 0. -1.
    9900012    2    1    2    0    0 -0.80430474203E+01 -0.27993280227E+02  0.28369919111E+02  0.50528847770E+02  0.29999963282E+02 0.  0.
         12    1    1    2    0    0  0.80430474203E+01  0.27993280227E+02 -0.28369919111E+02  0.40659152230E+02  0.00000000000E+00 0. -1.
         11    1    3    3    0    0 -0.11089148700E+02 -0.15959014821E+02  0.19265258780E+00  0.19434415047E+02  0.51100000000E-03 0. -1.
        -11    1    3    3    0    0  0.67508310878E+00 -0.52525065437E+01  0.17014540884E+02  0.17819628614E+02  0.51100000000E-03 0.  1.
         12    1    3    3    0    0  0.23710181705E+01 -0.67817588623E+01  0.11162725639E+02  0.13274804109E+02  0.00000000000E+00 0. -1.
</event>
<event>
 7    1  0.5946946E-013  0.5052886E+02  0.7816164E-02  0.1300439E+00
        -11   -1    0    0    0    0  0.00000000000E+00  0.00000000000E+00  0.45593999997E+02  0.45594000000E+02  0.51100000000E-03 0.  1.
         11   -1    0    0    0    0 -0.00000000000E+00 -0.00000000000E+00 -0.45593999997E+02  0.45594000000E+02  0.51100000000E-03 0. -1.
    9900012    2    1    2    0    0  0.36096386784E+02  0.10485166243E+02 -0.15500898665E+02  0.50528859461E+02  0.29999998816E+02 0.  0.
         12    1    1    2    0    0 -0.36096386784E+02 -0.10485166243E+02  0.15500898665E+02  0.40659140539E+02  0.00000000000E+00 0. -1.
         11    1    3    3    0    0 -0.17884074160E+01  0.92580029678E+01 -0.21953239359E+01  0.96813463672E+01  0.51100000000E-03 0. -1.
        -11    1    3    3    0    0  0.23701714838E+02  0.43297379210E+01 -0.79173842177E+01  0.25361444948E+02  0.51100000000E-03 0.  1.
         12    1    3    3    0    0  0.14183079362E+02 -0.31025746463E+01 -0.53881905112E+01  0.15486068145E+02  0.00000000000E+00 0. -1.
</event>
<event>
 7    1  0.5946946E-013  0.5052885E+02  0.7816164E-02  0.1300439E+00
        -11   -1    0    0    0    0  0.00000000000E+00  0.00000000000E+00  0.45593999997E+02  0.45594000000E+02  0.51100000000E-03 0.  1.
         11   -1    0    0    0    0 -0.00000000000E+00 -0.00000000000E+00 -0.45593999997E+02  0.45594000000E+02  0.51100000000E-03 0. -1.
    9900012    2    1    2    0    0  0.27711444515E+02 -0.15694747244E+02  0.25276804856E+02  0.50528854511E+02  0.29999983772E+02 0.  0.
         12    1    1    2    0    0 -0.27711444515E+02  0.15694747244E+02 -0.25276804856E+02  0.40659145489E+02  0.00000000000E+00 0. -1.
         11    1    3    3    0    0  0.61794884891E+00  0.19903814017E+01 -0.80607614275E+00  0.22345554173E+01  0.51100000000E-03 0. -1.
        -11    1    3    3    0    0  0.28791248780E+01 -0.11736690656E+02  0.18744812294E+02  0.22302628899E+02  0.51100000000E-03 0.  1.
        -12    1    3    3    0    0  0.24214370788E+02 -0.59484379896E+01  0.73380687050E+01  0.25991670194E+02  0.00000000000E+00 0.  1.
</event>
<event>
 7    1  0.5946946E-013  0.5052886E+02  0.7816164E-02  0.1300439E+00
        -11   -1    0    0    0    0  0.00000000000E+00  0.00000000000E+00  0.45593999997E+02  0.45594000000E+02  0.51100000000E-03 0. -1.
         11   -1    0    0    0    0 -0.00000000000E+00 -0.00000000000E+00 -0.45593999997E+02  0.45594000000E+02  0.51100000000E-03 0.  1.
    9900012    2    1    2    0    0 -0.19189342356E+02  0.14620763521E+02 -0.32728707098E+02  0.50528857679E+02  0.29999993400E+02 0.  0.
         12    1    1    2    0    0  0.19189342356E+02 -0.14620763521E+02  0.32728707098E+02  0.40659142321E+02  0.00000000000E+00 0. -1.
         11    1    3    3    0    0 -0.66245359741E+01  0.11342145480E+01  0.36967573455E+01  0.76705237531E+01  0.51100000000E-03 0. -1.
        -11    1    3    3    0    0 -0.54761716766E+01  0.14408145264E+02 -0.23999030234E+02  0.28522562273E+02  0.51100000000E-03 0.  1.
        -12    1    3    3    0    0 -0.70886347057E+01 -0.92159629159E+00 -0.12426434210E+02  0.14335771653E+02  0.00000000000E+00 0.  1.
</event>
<event>
 7    1  0.5946946E-013  0.5052887E+02  0.7816164E-02  0.1300439E+00
        -11   -1    0    0    0    0  0.00000000000E+00  0.00000000000E+00  0.45593999997E+02  0.45594000000E+02  0.51100000000E-03 0.  1.
         11   -1    0    0    0    0 -0.00000000000E+00 -0.00000000000E+00 -0.45593999997E+02  0.45594000000E+02  0.51100000000E-03 0. -1.
    9900012    2    1    2    0    0 -0.87901830942E+01 -0.82339344698E+01  0.38834261970E+02  0.50528869434E+02  0.30000029131E+02 0.  0.
         12    1    1    2    0    0  0.87901830942E+01  0.82339344698E+01 -0.38834261970E+02  0.40659130566E+02  0.00000000000E+00 0. -1.
         11    1    3    3    0    0  0.12364403307E+01 -0.95461402262E+01  0.26295737890E+01  0.99785889024E+01  0.51100000000E-03 0. -1.
        -11    1    3    3    0    0 -0.46240809434E+01  0.89522815667E+00  0.34571549311E+02  0.34890909705E+02  0.51100000000E-03 0.  1.
        -12    1    3    3    0    0 -0.54025424815E+01  0.41697759977E+00  0.16331388697E+01  0.56593708265E+01  0.00000000000E+00 0.  1.
</event>
<event>
 7    1  0.5946946E-013  0.5052886E+02  0.7816164E-02  0.1300439E+00
        -11   -1    0    0    0    0  0.00000000000E+00  0.00000000000E+00  0.45593999997E+02  0.45594000000E+02  0.51100000000E-03 0.  1.
         11   -1    0    0    0    0 -0.00000000000E+00 -0.00000000000E+00 -0.45593999997E+02  0.45594000000E+02  0.51100000000E-03 0. -1.
    9900012    2    1    2    0    0 -0.27725906378E+02 -0.44906826330E+01  0.29398536199E+02  0.50528855326E+02  0.29999986248E+02 0.  0.
         12    1    1    2    0    0  0.27725906378E+02  0.44906826330E+01 -0.29398536199E+02  0.40659144674E+02  0.00000000000E+00 0. -1.
         11    1    3    3    0    0  0.70497377928E+00  0.16612974623E+01 -0.20655307075E+01  0.27428661383E+01  0.51100000000E-03 0. -1.
        -11    1    3    3    0    0 -0.21166356644E+02 -0.88438499171E+01  0.32696782653E+02  0.39941306076E+02  0.51100000000E-03 0.  1.
        -12    1    3    3    0    0 -0.72645235134E+01  0.26918698218E+01 -0.12327157459E+01  0.78446831118E+01  0.00000000000E+00 0.  1.
</event>
<event>
 7    1  0.5946946E-013  0.5052887E+02  0.7816164E-02  0.1300439E+00
        -11   -1    0    0    0    0  0.00000000000E+00  0.00000000000E+00  0.45593999997E+02  0.45594000000E+02  0.51100000000E-03 0.  1.
         11   -1    0    0    0    0 -0.00000000000E+00 -0.00000000000E+00 -0.45593999997E+02  0.45594000000E+02  0.51100000000E-03 0. -1.
    9900012    2    1    2    0    0  0.21580122137E+02 -0.13601242643E+02  0.31661799823E+02  0.50528867681E+02  0.30000023803E+02 0.  0.
         12    1    1    2    0    0 -0.21580122137E+02  0.13601242643E+02 -0.31661799823E+02  0.40659132319E+02  0.00000000000E+00 0. -1.
         11    1    3    3    0    0  0.40840416401E+01 -0.21943488341E+01 -0.21452102168E+01  0.51084723802E+01  0.51100000000E-03 0. -1.
        -11    1    3    3    0    0  0.11088200957E+02 -0.15307629710E+02  0.32792999310E+02  0.37850396719E+02  0.51100000000E-03 0.  1.
        -12    1    3    3    0    0  0.64078795402E+01  0.39007359007E+01  0.10140107305E+01  0.75699985819E+01  0.00000000000E+00 0.  1.
</event>
<event>
 7    1  0.5946946E-013  0.5052886E+02  0.7816164E-02  0.1300439E+00
        -11   -1    0    0    0    0  0.00000000000E+00  0.00000000000E+00  0.45593999997E+02  0.45594000000E+02  0.51100000000E-03 0. -1.
         11   -1    0    0    0    0 -0.00000000000E+00 -0.00000000000E+00 -0.45593999997E+02  0.45594000000E+02  0.51100000000E-03 0.  1.
    9900012    2    1    2    0    0  0.10467586543E+02  0.36378343264E+02 -0.14839529006E+02  0.50528857759E+02  0.29999993645E+02 0.  0.
         12    1    1    2    0    0 -0.10467586543E+02 -0.36378343264E+02  0.14839529006E+02  0.40659142241E+02  0.00000000000E+00 0. -1.
         11    1    3    3    0    0 -0.31757381025E+01  0.33185451035E+01  0.40103343240E+01  0.60976090192E+01  0.51100000000E-03 0. -1.
        -11    1    3    3    0    0  0.79428730755E+01  0.21587460953E+01 -0.71450024980E+01  0.10899563219E+02  0.51100000000E-03 0.  1.
         12    1    3    3    0    0  0.57004515695E+01  0.30901052065E+02 -0.11704860832E+02  0.33531685521E+02  0.00000000000E+00 0. -1.
</event>
<event>
 7    1  0.5946946E-013  0.5052884E+02  0.7816164E-02  0.1300439E+00
        -11   -1    0    0    0    0  0.00000000000E+00  0.00000000000E+00  0.45593999997E+02  0.45594000000E+02  0.51100000000E-03 0.  1.
         11   -1    0    0    0    0 -0.00000000000E+00 -0.00000000000E+00 -0.45593999997E+02  0.45594000000E+02  0.51100000000E-03 0. -1.
    9900012    2    1    2    0    0 -0.25428783566E+02  0.22864887812E+01  0.31643578741E+02  0.50528841867E+02  0.29999945339E+02 0.  0.
         12    1    1    2    0    0  0.25428783566E+02 -0.22864887812E+01 -0.31643578741E+02  0.40659158133E+02  0.00000000000E+00 0. -1.
         11    1    3    3    0    0 -0.19690192170E+02  0.10232434148E+02  0.15234061798E+02  0.26916222161E+02  0.51100000000E-03 0. -1.
        -11    1    3    3    0    0 -0.11068642285E+01 -0.11044387194E+02  0.12939492902E+02  0.17047994420E+02  0.51100000000E-03 0.  1.
        -12    1    3    3    0    0 -0.46317271674E+01  0.30984418279E+01  0.34700240408E+01  0.65646252869E+01  0.00000000000E+00 0.  1.
</event>
<event>
 7    1  0.5946946E-013  0.5052885E+02  0.7816164E-02  0.1300439E+00
        -11   -1    0    0    0    0  0.00000000000E+00  0.00000000000E+00  0.45593999997E+02  0.45594000000E+02  0.51100000000E-03 0.  1.
         11   -1    0    0    0    0 -0.00000000000E+00 -0.00000000000E+00 -0.45593999997E+02  0.45594000000E+02  0.51100000000E-03 0. -1.
    9900012    2    1    2    0    0 -0.22811190499E+02  0.12285023856E+01  0.33634903718E+02  0.50528851236E+02  0.29999973818E+02 0.  0.
         12    1    1    2    0    0  0.22811190499E+02 -0.12285023856E+01 -0.33634903718E+02  0.40659148764E+02  0.00000000000E+00 0. -1.
         11    1    3    3    0    0 -0.16164434195E+02  0.50806443465E+01  0.25118797044E+01  0.17129256251E+02  0.51100000000E-03 0. -1.
        -11    1    3    3    0    0 -0.31256701722E+01  0.21667066957E+01  0.45665176992E+01  0.59428542039E+01  0.51100000000E-03 0.  1.
         12    1    3    3    0    0 -0.35210861317E+01 -0.60188486566E+01  0.26556506314E+02  0.27456740781E+02  0.00000000000E+00 0. -1.
</event>
<event>
 7    1  0.5946946E-013  0.5052887E+02  0.7816164E-02  0.1300439E+00
        -11   -1    0    0    0    0  0.00000000000E+00  0.00000000000E+00  0.45593999997E+02  0.45594000000E+02  0.51100000000E-03 0.  1.
         11   -1    0    0    0    0 -0.00000000000E+00 -0.00000000000E+00 -0.45593999997E+02  0.45594000000E+02  0.51100000000E-03 0. -1.
    9900012    2    1    2    0    0 -0.36206607370E+02  0.16288432864E+02  0.87711854140E+01  0.50528866266E+02  0.30000019503E+02 0.  0.
         12    1    1    2    0    0  0.36206607370E+02 -0.16288432864E+02 -0.87711854140E+01  0.40659133734E+02  0.00000000000E+00 0. -1.
         11    1    3    3    0    0 -0.15013033557E+02 -0.31384474746E+01  0.14096303036E+01  0.15402210458E+02  0.51100000000E-03 0. -1.
        -11    1    3    3    0    0 -0.20621806564E+00  0.68085169276E+01  0.81545435442E+01  0.10625206319E+02  0.51100000000E-03 0.  1.
         12    1    3    3    0    0 -0.20987355747E+02  0.12618363411E+02 -0.79298843391E+00  0.24501449489E+02  0.00000000000E+00 0. -1.
</event>
<event>
 7    1  0.5946946E-013  0.5052886E+02  0.7816164E-02  0.1300439E+00
        -11   -1    0    0    0    0  0.00000000000E+00  0.00000000000E+00  0.45593999997E+02  0.45594000000E+02  0.51100000000E-03 0. -1.
         11   -1    0    0    0    0 -0.00000000000E+00 -0.00000000000E+00 -0.45593999997E+02  0.45594000000E+02  0.51100000000E-03 0.  1.
    9900012    2    1    2    0    0  0.19164363092E+02 -0.25760287398E+02 -0.24945943759E+02  0.50528864132E+02  0.30000013015E+02 0.  0.
         12    1    1    2    0    0 -0.19164363092E+02  0.25760287398E+02  0.24945943759E+02  0.40659135868E+02  0.00000000000E+00 0. -1.
         11    1    3    3    0    0 -0.58161784817E+01 -0.83314608558E+01 -0.19459907716E+01  0.10345436311E+02  0.51100000000E-03 0. -1.
        -11    1    3    3    0    0  0.19081726992E+02 -0.18340272689E+02 -0.21311884552E+02  0.33980499271E+02  0.51100000000E-03 0.  1.
         12    1    3    3    0    0  0.58988145818E+01  0.91144614694E+00 -0.16880684353E+01  0.62029285496E+01  0.00000000000E+00 0. -1.
</event>
<event>
 7    1  0.5946946E-013  0.5052887E+02  0.7816164E-02  0.1300439E+00
        -11   -1    0    0    0    0  0.00000000000E+00  0.00000000000E+00  0.45593999997E+02  0.45594000000E+02  0.51100000000E-03 0.  1.
         11   -1    0    0    0    0 -0.00000000000E+00 -0.00000000000E+00 -0.45593999997E+02  0.45594000000E+02  0.51100000000E-03 0. -1.
    9900012    2    1    2    0    0 -0.23469365111E+01 -0.26141824269E+02  0.31052560332E+02  0.50528873223E+02  0.30000040648E+02 0.  0.
         12    1    1    2    0    0  0.23469365111E+01  0.26141824269E+02 -0.31052560332E+02  0.40659126777E+02  0.00000000000E+00 0. -1.
         11    1    3    3    0    0  0.82491876896E+01  0.10996332057E+01  0.10400963162E+01  0.83868999835E+01  0.51100000000E-03 0. -1.
        -11    1    3    3    0    0 -0.40900252940E+01 -0.13959731149E+02  0.12163947160E+02  0.18962173173E+02  0.51100000000E-03 0.  1.
         12    1    3    3    0    0 -0.65060989067E+01 -0.13281726325E+02  0.17848516856E+02  0.23179800067E+02  0.00000000000E+00 0. -1.
</event>
<event>
 7    1  0.5946946E-013  0.5052886E+02  0.7816164E-02  0.1300439E+00
        -11   -1    0    0    0    0  0.00000000000E+00  0.00000000000E+00  0.45593999997E+02  0.45594000000E+02  0.51100000000E-03 0.  1.
         11   -1    0    0    0    0 -0.00000000000E+00 -0.00000000000E+00 -0.45593999997E+02  0.45594000000E+02  0.51100000000E-03 0. -1.
    9900012    2    1    2    0    0 -0.32949937793E+02  0.17146753487E+02  0.16536497355E+02  0.50528864490E+02  0.30000014103E+02 0.  0.
         12    1    1    2    0    0  0.32949937793E+02 -0.17146753487E+02 -0.16536497355E+02  0.40659135510E+02  0.00000000000E+00 0. -1.
         11    1    3    3    0    0 -0.12553366507E+02  0.72378717353E+01  0.20714594804E+02  0.25279798972E+02  0.51100000000E-03 0.  1.
        -11    1    3    3    0    0 -0.62468372034E+01  0.70582986009E+01  0.18523950585E+01  0.96059315998E+01  0.51100000000E-03 0. -1.
         12    1    3    3    0    0 -0.14149734082E+02  0.28505831506E+01 -0.60304925071E+01  0.15643133918E+02  0.00000000000E+00 0. -1.
</event>
<event>
 7    1  0.5946946E-013  0.5052885E+02  0.7816164E-02  0.1300439E+00
        -11   -1    0    0    0    0  0.00000000000E+00  0.00000000000E+00  0.45593999997E+02  0.45594000000E+02  0.51100000000E-03 0.  1.
         11   -1    0    0    0    0 -0.00000000000E+00 -0.00000000000E+00 -0.45593999997E+02  0.45594000000E+02  0.51100000000E-03 0. -1.
    9900012    2    1    2    0    0  0.23849827718E+02  0.94934410419E+01  0.31531360793E+02  0.50528850741E+02  0.29999972313E+02 0.  0.
         12    1    1    2    0    0 -0.23849827718E+02 -0.94934410419E+01 -0.31531360793E+02  0.40659149259E+02  0.00000000000E+00 0. -1.
         11    1    3    3    0    0 -0.61056270876E+01  0.56955475099E+01  0.65061732517E+01  0.10585283851E+02  0.51100000000E-03 0. -1.
        -11    1    3    3    0    0  0.26324589333E+02  0.25925115987E+01  0.18164244460E+02  0.32088080295E+02  0.51100000000E-03 0.  1.
         12    1    3    3    0    0  0.36308654725E+01  0.12053819333E+01  0.68609430813E+01  0.78554865953E+01  0.00000000000E+00 0. -1.
</event>
<event>
 7    1  0.5946946E-013  0.5052887E+02  0.7816164E-02  0.1300439E+00
        -11   -1    0    0    0    0  0.00000000000E+00  0.00000000000E+00  0.45593999997E+02  0.45594000000E+02  0.51100000000E-03 0.  1.
         11   -1    0    0    0    0 -0.00000000000E+00 -0.00000000000E+00 -0.45593999997E+02  0.45594000000E+02  0.51100000000E-03 0. -1.
    9900012    2    1    2    0    0 -0.32640986543E+02 -0.15974826415E+02  0.18235564666E+02  0.50528869412E+02  0.30000029064E+02 0.  0.
         12    1    1    2    0    0  0.32640986543E+02  0.15974826415E+02 -0.18235564666E+02  0.40659130588E+02  0.00000000000E+00 0. -1.
         11    1    3    3    0    0 -0.45407862634E+00 -0.10852832368E+02  0.44604199797E+01  0.11742465860E+02  0.51100000000E-03 0. -1.
        -11    1    3    3    0    0 -0.24257954872E+02 -0.16504591097E+01  0.23138136860E+01  0.24423884291E+02  0.51100000000E-03 0.  1.
         12    1    3    3    0    0 -0.79289530454E+01 -0.34715349371E+01  0.11461331000E+02  0.14362519261E+02  0.00000000000E+00 0. -1.
</event>
<event>
 7    1  0.5946946E-013  0.5052886E+02  0.7816164E-02  0.1300439E+00
        -11   -1    0    0    0    0  0.00000000000E+00  0.00000000000E+00  0.45593999997E+02  0.45594000000E+02  0.51100000000E-03 0.  1.
         11   -1    0    0    0    0 -0.00000000000E+00 -0.00000000000E+00 -0.45593999997E+02  0.45594000000E+02  0.51100000000E-03 0. -1.
    9900012    2    1    2    0    0  0.38254373878E+01  0.33379796012E+02  0.22898053167E+02  0.50528860906E+02  0.30000003209E+02 0.  0.
         12    1    1    2    0    0 -0.38254373878E+01 -0.33379796012E+02 -0.22898053167E+02  0.40659139094E+02  0.00000000000E+00 0. -1.
         11    1    3    3    0    0 -0.52593869304E-01  0.32887732823E+01  0.15180986740E+02  0.15533227433E+02  0.51100000000E-03 0. -1.
        -11    1    3    3    0    0  0.76460685799E+01  0.28926911500E+02  0.53466923226E+01  0.30394336523E+02  0.51100000000E-03 0.  1.
        -12    1    3    3    0    0 -0.37680373228E+01  0.11641112303E+01  0.23703741046E+01  0.46012969496E+01  0.00000000000E+00 0.  1.
</event>
<event>
 7    1  0.5946946E-013  0.5052886E+02  0.7816164E-02  0.1300439E+00
        -11   -1    0    0    0    0  0.00000000000E+00  0.00000000000E+00  0.45593999997E+02  0.45594000000E+02  0.51100000000E-03 0.  1.
         11   -1    0    0    0    0 -0.00000000000E+00 -0.00000000000E+00 -0.45593999997E+02  0.45594000000E+02  0.51100000000E-03 0. -1.
    9900012    2    1    2    0    0  0.13516751901E+02  0.55000171146E+01  0.37950139438E+02  0.50528857688E+02  0.29999993428E+02 0.  0.
         12    1    1    2    0    0 -0.13516751901E+02 -0.55000171146E+01 -0.37950139438E+02  0.40659142312E+02  0.00000000000E+00 0. -1.
         11    1    3    3    0    0 -0.20420714339E-01  0.25490659264E+01 -0.17037615375E+01  0.30660981297E+01  0.51100000000E-03 0. -1.
        -11    1    3    3    0    0  0.19315697478E+02 -0.55085172554E+00  0.29129018120E+02  0.34955676271E+02  0.51100000000E-03 0.  1.
        -12    1    3    3    0    0 -0.57785248621E+01  0.35018029137E+01  0.10524882855E+02  0.12507083287E+02  0.00000000000E+00 0.  1.
</event>
<event>
 7    1  0.5946946E-013  0.5052885E+02  0.7816164E-02  0.1300439E+00
        -11   -1    0    0    0    0  0.00000000000E+00  0.00000000000E+00  0.45593999997E+02  0.45594000000E+02  0.51100000000E-03 0.  1.
         11   -1    0    0    0    0 -0.00000000000E+00 -0.00000000000E+00 -0.45593999997E+02  0.45594000000E+02  0.51100000000E-03 0. -1.
    9900012    2    1    2    0    0 -0.63036867430E+01  0.39215516127E+02 -0.86932675987E+01  0.50528854987E+02  0.29999985219E+02 0.  0.
         12    1    1    2    0    0  0.63036867430E+01 -0.39215516127E+02  0.86932675987E+01  0.40659145013E+02  0.00000000000E+00 0. -1.
         11    1    3    3    0    0  0.80987904233E+01  0.18796325995E+02  0.21767117924E+00  0.20468015494E+02  0.51100000000E-03 0. -1.
        -11    1    3    3    0    0 -0.70326297604E+01  0.37839937773E-01 -0.19647178784E+01  0.73020154622E+01  0.51100000000E-03 0.  1.
        -12    1    3    3    0    0 -0.73698474059E+01  0.20381350193E+02 -0.69462208995E+01  0.22758824031E+02  0.00000000000E+00 0.  1.
</event>
<event>
 7    1  0.5946946E-013  0.5052886E+02  0.7816164E-02  0.1300439E+00
        -11   -1    0    0    0    0  0.00000000000E+00  0.00000000000E+00  0.45593999997E+02  0.45594000000E+02  0.51100000000E-03 0.  1.
         11   -1    0    0    0    0 -0.00000000000E+00 -0.00000000000E+00 -0.45593999997E+02  0.45594000000E+02  0.51100000000E-03 0. -1.
    9900012    2    1    2    0    0  0.13742959167E+02 -0.21392474496E+02  0.31727890462E+02  0.50528856810E+02  0.29999990760E+02 0.  0.
         12    1    1    2    0    0 -0.13742959167E+02  0.21392474496E+02 -0.31727890462E+02  0.40659143190E+02  0.00000000000E+00 0. -1.
         11    1    3    3    0    0 -0.73682489684E+01  0.41898676152E+00  0.97249329247E+01  0.12208233427E+02  0.51100000000E-03 0. -1.
        -11    1    3    3    0    0  0.10455433104E+02 -0.16240310865E+02  0.14435821762E+02  0.24113413872E+02  0.51100000000E-03 0.  1.
         12    1    3    3    0    0  0.10655775031E+02 -0.55711503933E+01  0.75671357761E+01  0.14207209511E+02  0.00000000000E+00 0. -1.
</event>
<event>
 7    1  0.5946946E-013  0.5052885E+02  0.7816164E-02  0.1300439E+00
        -11   -1    0    0    0    0  0.00000000000E+00  0.00000000000E+00  0.45593999997E+02  0.45594000000E+02  0.51100000000E-03 0. -1.
         11   -1    0    0    0    0 -0.00000000000E+00 -0.00000000000E+00 -0.45593999997E+02  0.45594000000E+02  0.51100000000E-03 0.  1.
    9900012    2    1    2    0    0  0.23421261442E+02 -0.35727209472E+01 -0.33043098888E+02  0.50528853346E+02  0.29999980231E+02 0.  0.
         12    1    1    2    0    0 -0.23421261442E+02  0.35727209472E+01  0.33043098888E+02  0.40659146654E+02  0.00000000000E+00 0. -1.
         11    1    3    3    0    0  0.97062985819E+01  0.12175587942E+02 -0.11989101476E+02  0.19651863229E+02  0.51100000000E-03 0. -1.
        -11    1    3    3    0    0  0.11323855371E+02 -0.13399402419E+02 -0.12087513511E+02  0.21304498792E+02  0.51100000000E-03 0.  1.
         12    1    3    3    0    0  0.23911074895E+01 -0.23489064696E+01 -0.89664839011E+01  0.95724913256E+01  0.00000000000E+00 0. -1.
</event>
<event>
 7    1  0.5946946E-013  0.5052887E+02  0.7816164E-02  0.1300439E+00
        -11   -1    0    0    0    0  0.00000000000E+00  0.00000000000E+00  0.45593999997E+02  0.45594000000E+02  0.51100000000E-03 0.  1.
         11   -1    0    0    0    0 -0.00000000000E+00 -0.00000000000E+00 -0.45593999997E+02  0.45594000000E+02  0.51100000000E-03 0. -1.
    9900012    2    1    2    0    0 -0.13808265461E+02 -0.30197554318E+02  0.23464952988E+02  0.50528874327E+02  0.30000044003E+02 0.  0.
         12    1    1    2    0    0  0.13808265461E+02  0.30197554318E+02 -0.23464952988E+02  0.40659125673E+02  0.00000000000E+00 0. -1.
         11    1    3    3    0    0  0.21442375101E+01 -0.11361671133E+02 -0.31889698107E+01  0.11993950732E+02  0.51100000000E-03 0. -1.
        -11    1    3    3    0    0 -0.11044923959E+02 -0.38237945808E+01  0.83811878478E+01  0.14382491448E+02  0.51100000000E-03 0.  1.
        -12    1    3    3    0    0 -0.49075790114E+01 -0.15012088604E+02  0.18272734951E+02  0.24152432146E+02  0.00000000000E+00 0.  1.
</event>
<event>
 7    1  0.5946946E-013  0.5052886E+02  0.7816164E-02  0.1300439E+00
        -11   -1    0    0    0    0  0.00000000000E+00  0.00000000000E+00  0.45593999997E+02  0.45594000000E+02  0.51100000000E-03 0.  1.
         11   -1    0    0    0    0 -0.00000000000E+00 -0.00000000000E+00 -0.45593999997E+02  0.45594000000E+02  0.51100000000E-03 0. -1.
    9900012    2    1    2    0    0  0.22860943001E+02 -0.33612812460E+02  0.84949691611E+00  0.50528861773E+02  0.30000005845E+02 0.  0.
         12    1    1    2    0    0 -0.22860943001E+02  0.33612812460E+02 -0.84949691611E+00  0.40659138227E+02  0.00000000000E+00 0. -1.
         11    1    3    3    0    0  0.25867313226E+01 -0.65125878533E+01 -0.46681509110E+01  0.84200126290E+01  0.51100000000E-03 0. -1.
        -11    1    3    3    0    0  0.35703547400E+01 -0.30427473846E+01  0.11318409676E+02  0.12252026056E+02  0.51100000000E-03 0.  1.
        -12    1    3    3    0    0  0.16703856939E+02 -0.24057477222E+02 -0.58007618487E+01  0.29856823088E+02  0.00000000000E+00 0.  1.
</event>
<event>
 7    1  0.5946946E-013  0.5052887E+02  0.7816164E-02  0.1300439E+00
        -11   -1    0    0    0    0  0.00000000000E+00  0.00000000000E+00  0.45593999997E+02  0.45594000000E+02  0.51100000000E-03 0.  1.
         11   -1    0    0    0    0 -0.00000000000E+00 -0.00000000000E+00 -0.45593999997E+02  0.45594000000E+02  0.51100000000E-03 0. -1.
    9900012    2    1    2    0    0 -0.19910883140E+02 -0.32738898860E+02  0.13597293974E+02  0.50528866101E+02  0.30000019001E+02 0.  0.
         12    1    1    2    0    0  0.19910883140E+02  0.32738898860E+02 -0.13597293974E+02  0.40659133899E+02  0.00000000000E+00 0. -1.
         11    1    3    3    0    0 -0.11468767408E+02 -0.31607378384E+02  0.75334415747E+01  0.34457390156E+02  0.51100000000E-03 0. -1.
        -11    1    3    3    0    0 -0.77142817178E+00  0.15353821780E+01  0.76125404160E+01  0.78040548244E+01  0.51100000000E-03 0.  1.
         12    1    3    3    0    0 -0.76706875603E+01 -0.26669026545E+01 -0.15486880166E+01  0.82674211208E+01  0.00000000000E+00 0. -1.
</event>
<event>
 7    1  0.5946946E-013  0.5052887E+02  0.7816164E-02  0.1300439E+00
        -11   -1    0    0    0    0  0.00000000000E+00  0.00000000000E+00  0.45593999997E+02  0.45594000000E+02  0.51100000000E-03 0.  1.
         11   -1    0    0    0    0 -0.00000000000E+00 -0.00000000000E+00 -0.45593999997E+02  0.45594000000E+02  0.51100000000E-03 0. -1.
    9900012    2    1    2    0    0 -0.88089931705E+01  0.29258382086E+02  0.26823749187E+02  0.50528870602E+02  0.30000032682E+02 0.  0.
         12    1    1    2    0    0  0.88089931705E+01 -0.29258382086E+02 -0.26823749187E+02  0.40659129398E+02  0.00000000000E+00 0. -1.
         11    1    3    3    0    0 -0.39958545372E+01 -0.36647588655E+01 -0.26690321874E+01  0.60432643582E+01  0.51100000000E-03 0. -1.
        -11    1    3    3    0    0 -0.12731494468E+01  0.69553396460E+01  0.55746957000E+01  0.90041596784E+01  0.51100000000E-03 0.  1.
         12    1    3    3    0    0 -0.35399891865E+01  0.25967801305E+02  0.23918085674E+02  0.35481446566E+02  0.00000000000E+00 0. -1.
</event>
<event>
 7    1  0.5946946E-013  0.5052886E+02  0.7816164E-02  0.1300439E+00
        -11   -1    0    0    0    0  0.00000000000E+00  0.00000000000E+00  0.45593999997E+02  0.45594000000E+02  0.51100000000E-03 0.  1.
         11   -1    0    0    0    0 -0.00000000000E+00 -0.00000000000E+00 -0.45593999997E+02  0.45594000000E+02  0.51100000000E-03 0. -1.
    9900012    2    1    2    0    0  0.22973138652E+01 -0.34755437005E+02  0.20974927825E+02  0.50528860195E+02  0.30000001049E+02 0.  0.
         12    1    1    2    0    0 -0.22973138652E+01  0.34755437005E+02 -0.20974927825E+02  0.40659139805E+02  0.00000000000E+00 0. -1.
         11    1    3    3    0    0  0.59473873181E+01 -0.49879019066E+01 -0.61656518679E+01  0.99129130209E+01  0.51100000000E-03 0. -1.
        -11    1    3    3    0    0 -0.22995406386E+01 -0.22337055726E+02  0.18141142744E+02  0.28867507790E+02  0.51100000000E-03 0.  1.
         12    1    3    3    0    0 -0.13505328144E+01 -0.74304793725E+01  0.89994369482E+01  0.11748439385E+02  0.00000000000E+00 0. -1.
</event>
<event>
 7    1  0.5946946E-013  0.5052887E+02  0.7816164E-02  0.1300439E+00
        -11   -1    0    0    0    0  0.00000000000E+00  0.00000000000E+00  0.45593999997E+02  0.45594000000E+02  0.51100000000E-03 0.  1.
         11   -1    0    0    0    0 -0.00000000000E+00 -0.00000000000E+00 -0.45593999997E+02  0.45594000000E+02  0.51100000000E-03 0. -1.
    9900012    2    1    2    0    0 -0.29916796317E+00 -0.40517528026E+02  0.33771613473E+01  0.50528870674E+02  0.30000032900E+02 0.  0.
         12    1    1    2    0    0  0.29916796317E+00  0.40517528026E+02 -0.33771613473E+01  0.40659129326E+02  0.00000000000E+00 0. -1.
         11    1    3    3    0    0 -0.43601911199E+01  0.26134005186E+01 -0.20383936348E+01  0.54768766413E+01  0.51100000000E-03 0. -1.
        -11    1    3    3    0    0  0.63249468916E+01 -0.19773924046E+02 -0.80021505091E+00  0.20776269390E+02  0.51100000000E-03 0.  1.
         12    1    3    3    0    0 -0.22639237350E+01 -0.23357004498E+02  0.62157700330E+01  0.24275724642E+02  0.00000000000E+00 0. -1.
</event>
<event>
 7    1  0.5946946E-013  0.5052886E+02  0.7816164E-02  0.1300439E+00
        -11   -1    0    0    0    0  0.00000000000E+00  0.00000000000E+00  0.45593999997E+02  0.45594000000E+02  0.51100000000E-03 0.  1.
         11   -1    0    0    0    0 -0.00000000000E+00 -0.00000000000E+00 -0.45593999997E+02  0.45594000000E+02  0.51100000000E-03 0. -1.
    9900012    2    1    2    0    0 -0.24928711561E+02 -0.23377882908E+01  0.32035290465E+02  0.50528858969E+02  0.29999997322E+02 0.  0.
         12    1    1    2    0    0  0.24928711561E+02  0.23377882908E+01 -0.32035290465E+02  0.40659141031E+02  0.00000000000E+00 0. -1.
         11    1    3    3    0    0 -0.87931134100E+01  0.12826272962E+02  0.80638802761E+01  0.17517371005E+02  0.51100000000E-03 0. -1.
        -11    1    3    3    0    0 -0.19279383309E+01 -0.44232255422E+01  0.61349166387E+01  0.78050671253E+01  0.51100000000E-03 0.  1.
         12    1    3    3    0    0 -0.14207659821E+02 -0.10740835711E+02  0.17836493550E+02  0.25206420839E+02  0.00000000000E+00 0. -1.
</event>
<event>
 7    1  0.5946946E-013  0.5052886E+02  0.7816164E-02  0.1300439E+00
        -11   -1    0    0    0    0  0.00000000000E+00  0.00000000000E+00  0.45593999997E+02  0.45594000000E+02  0.51100000000E-03 0.  1.
         11   -1    0    0    0    0 -0.00000000000E+00 -0.00000000000E+00 -0.45593999997E+02  0.45594000000E+02  0.51100000000E-03 0. -1.
    9900012    2    1    2    0    0 -0.19549072713E+02  0.33098814423E+02  0.13246440424E+02  0.50528856575E+02  0.29999990046E+02 0.  0.
         12    1    1    2    0    0  0.19549072713E+02 -0.33098814423E+02 -0.13246440424E+02  0.40659143425E+02  0.00000000000E+00 0. -1.
         11    1    3    3    0    0 -0.17078382081E+02  0.16059791180E+02  0.15246653052E+01  0.23492820856E+02  0.51100000000E-03 0. -1.
        -11    1    3    3    0    0  0.61897171436E+01  0.18060798354E+01  0.10875246164E+01  0.65389014935E+01  0.51100000000E-03 0.  1.
        -12    1    3    3    0    0 -0.86604077760E+01  0.15232943408E+02  0.10634250502E+02  0.20497134225E+02  0.00000000000E+00 0.  1.
</event>
<event>
 7    1  0.5946946E-013  0.5052886E+02  0.7816164E-02  0.1300439E+00
        -11   -1    0    0    0    0  0.00000000000E+00  0.00000000000E+00  0.45593999997E+02  0.45594000000E+02  0.51100000000E-03 0.  1.
         11   -1    0    0    0    0 -0.00000000000E+00 -0.00000000000E+00 -0.45593999997E+02  0.45594000000E+02  0.51100000000E-03 0. -1.
    9900012    2    1    2    0    0  0.11933844520E+02  0.33666578922E+02  0.19424483951E+02  0.50528858862E+02  0.29999996997E+02 0.  0.
         12    1    1    2    0    0 -0.11933844520E+02 -0.33666578922E+02 -0.19424483951E+02  0.40659141138E+02  0.00000000000E+00 0. -1.
         11    1    3    3    0    0 -0.74062917659E+01  0.91096872040E+01 -0.68256687341E+00  0.11760334029E+02  0.51100000000E-03 0. -1.
        -11    1    3    3    0    0  0.12377483789E+02  0.17753912361E+02  0.76406492065E+01  0.22951754391E+02  0.51100000000E-03 0.  1.
        -12    1    3    3    0    0  0.69626524970E+01  0.68029793571E+01  0.12466401618E+02  0.15816770442E+02  0.00000000000E+00 0.  1.
</event>
<event>
 7    1  0.5946946E-013  0.5052885E+02  0.7816164E-02  0.1300439E+00
        -11   -1    0    0    0    0  0.00000000000E+00  0.00000000000E+00  0.45593999997E+02  0.45594000000E+02  0.51100000000E-03 0.  1.
         11   -1    0    0    0    0 -0.00000000000E+00 -0.00000000000E+00 -0.45593999997E+02  0.45594000000E+02  0.51100000000E-03 0. -1.
    9900012    2    1    2    0    0  0.63236782388E+01  0.29921589563E+02  0.26793215684E+02  0.50528845617E+02  0.29999956737E+02 0.  0.
         12    1    1    2    0    0 -0.63236782388E+01 -0.29921589563E+02 -0.26793215684E+02  0.40659154383E+02  0.00000000000E+00 0. -1.
         11    1    3    3    0    0  0.20298707452E+01  0.56331794318E+01  0.15088284122E+02  0.16232972733E+02  0.51100000000E-03 0. -1.
        -11    1    3    3    0    0  0.99462606701E+01  0.20775912845E+02  0.28362707156E+01  0.23207996202E+02  0.51100000000E-03 0.  1.
        -12    1    3    3    0    0 -0.56524531766E+01  0.35124972860E+01  0.88686608467E+01  0.11087876682E+02  0.00000000000E+00 0.  1.
</event>
<event>
 7    1  0.5946946E-013  0.5052887E+02  0.7816164E-02  0.1300439E+00
        -11   -1    0    0    0    0  0.00000000000E+00  0.00000000000E+00  0.45593999997E+02  0.45594000000E+02  0.51100000000E-03 0.  1.
         11   -1    0    0    0    0 -0.00000000000E+00 -0.00000000000E+00 -0.45593999997E+02  0.45594000000E+02  0.51100000000E-03 0. -1.
    9900012    2    1    2    0    0  0.18797574377E+02 -0.14115195662E+02  0.33174947740E+02  0.50528871768E+02  0.30000036225E+02 0.  0.
         12    1    1    2    0    0 -0.18797574377E+02  0.14115195662E+02 -0.33174947740E+02  0.40659128232E+02  0.00000000000E+00 0. -1.
         11    1    3    3    0    0  0.53303852916E+01 -0.44258558403E+01 -0.42855303803E+01  0.81465930411E+01  0.51100000000E-03 0. -1.
        -11    1    3    3    0    0  0.77996839731E+01 -0.84086077723E+01  0.33344284452E+02  0.35261608878E+02  0.51100000000E-03 0.  1.
         12    1    3    3    0    0  0.56675051125E+01 -0.12807320495E+01  0.41161936685E+01  0.71206698490E+01  0.00000000000E+00 0. -1.
</event>
<event>
 7    1  0.5946946E-013  0.5052879E+02  0.7816164E-02  0.1300439E+00
        -11   -1    0    0    0    0  0.00000000000E+00  0.00000000000E+00  0.45593999997E+02  0.45594000000E+02  0.51100000000E-03 0.  1.
         11   -1    0    0    0    0 -0.00000000000E+00 -0.00000000000E+00 -0.45593999997E+02  0.45594000000E+02  0.51100000000E-03 0. -1.
    9900012    2    1    2    0    0  0.97954702894E+01 -0.36470601314E+02  0.15070357213E+02  0.50528786224E+02  0.29999776205E+02 0.  0.
         12    1    1    2    0    0 -0.97954702894E+01  0.36470601314E+02 -0.15070357213E+02  0.40659213776E+02  0.00000000000E+00 0. -1.
         11    1    3    3    0    0 -0.56507864008E+01 -0.16664827163E+02  0.17338830537E+01  0.17682030484E+02  0.51100000000E-03 0. -1.
        -11    1    3    3    0    0  0.10965495250E+02 -0.13839622481E+01  0.45938723061E+01  0.11969172929E+02  0.51100000000E-03 0.  1.
        -12    1    3    3    0    0  0.44807614402E+01 -0.18421811903E+02  0.87426018531E+01  0.20877582811E+02  0.00000000000E+00 0.  1.
</event>
<event>
 7    1  0.5946946E-013  0.5052886E+02  0.7816164E-02  0.1300439E+00
        -11   -1    0    0    0    0  0.00000000000E+00  0.00000000000E+00  0.45593999997E+02  0.45594000000E+02  0.51100000000E-03 0.  1.
         11   -1    0    0    0    0 -0.00000000000E+00 -0.00000000000E+00 -0.45593999997E+02  0.45594000000E+02  0.51100000000E-03 0. -1.
    9900012    2    1    2    0    0 -0.65726808946E+01  0.61084398966E+01  0.39656679959E+02  0.50528862805E+02  0.30000008981E+02 0.  0.
         12    1    1    2    0    0  0.65726808946E+01 -0.61084398966E+01 -0.39656679959E+02  0.40659137195E+02  0.00000000000E+00 0. -1.
         11    1    3    3    0    0 -0.41890628016E+01 -0.49025434725E+01  0.91576275488E+01  0.11200237597E+02  0.51100000000E-03 0. -1.
        -11    1    3    3    0    0 -0.49109708007E+01  0.13753212971E+02  0.32103393551E+02  0.35268915194E+02  0.51100000000E-03 0.  1.
        -12    1    3    3    0    0  0.25273527077E+01 -0.27422296016E+01 -0.16043411407E+01  0.40597100134E+01  0.00000000000E+00 0.  1.
</event>
<event>
 7    1  0.5946946E-013  0.5052886E+02  0.7816164E-02  0.1300439E+00
        -11   -1    0    0    0    0  0.00000000000E+00  0.00000000000E+00  0.45593999997E+02  0.45594000000E+02  0.51100000000E-03 0. -1.
         11   -1    0    0    0    0 -0.00000000000E+00 -0.00000000000E+00 -0.45593999997E+02  0.45594000000E+02  0.51100000000E-03 0.  1.
    9900012    2    1    2    0    0  0.25651590520E+02 -0.81458084353E+01 -0.30476339704E+02  0.50528861138E+02  0.30000003914E+02 0.  0.
         12    1    1    2    0    0 -0.25651590520E+02  0.81458084353E+01  0.30476339704E+02  0.40659138862E+02  0.00000000000E+00 0. -1.
         11    1    3    3    0    0  0.53482311015E+01 -0.10190599548E+02 -0.14457896238E+02  0.18479249415E+02  0.51100000000E-03 0.  1.
        -11    1    3    3    0    0 -0.15729083777E+01  0.48161978748E+01 -0.51228080645E+00  0.50923702359E+01  0.51100000000E-03 0. -1.
        -12    1    3    3    0    0  0.21876267796E+02 -0.27714067617E+01 -0.15506162660E+02  0.26957241487E+02  0.00000000000E+00 0.  1.
</event>
<event>
 7    1  0.5946946E-013  0.5052887E+02  0.7816164E-02  0.1300439E+00
        -11   -1    0    0    0    0  0.00000000000E+00  0.00000000000E+00  0.45593999997E+02  0.45594000000E+02  0.51100000000E-03 0. -1.
         11   -1    0    0    0    0 -0.00000000000E+00 -0.00000000000E+00 -0.45593999997E+02  0.45594000000E+02  0.51100000000E-03 0.  1.
    9900012    2    1    2    0    0 -0.38514953514E+02  0.10290244377E+02 -0.79921298594E+01  0.50528869252E+02  0.30000028578E+02 0.  0.
         12    1    1    2    0    0  0.38514953514E+02 -0.10290244377E+02  0.79921298594E+01  0.40659130748E+02  0.00000000000E+00 0. -1.
         11    1    3    3    0    0 -0.17192551163E+02  0.16077043832E+02 -0.11708216265E+02  0.26289493762E+02  0.51100000000E-03 0.  1.
        -11    1    3    3    0    0 -0.86381148772E+01  0.84698886068E+00  0.47382600835E+01  0.98886565135E+01  0.51100000000E-03 0. -1.
         12    1    3    3    0    0 -0.12684287473E+02 -0.66337883156E+01 -0.10221736779E+01  0.14350718977E+02  0.00000000000E+00 0. -1.
</event>
<event>
 7    1  0.5946946E-013  0.5052885E+02  0.7816164E-02  0.1300439E+00
        -11   -1    0    0    0    0  0.00000000000E+00  0.00000000000E+00  0.45593999997E+02  0.45594000000E+02  0.51100000000E-03 0.  1.
         11   -1    0    0    0    0 -0.00000000000E+00 -0.00000000000E+00 -0.45593999997E+02  0.45594000000E+02  0.51100000000E-03 0. -1.
    9900012    2    1    2    0    0 -0.20766158758E+02 -0.29024289534E+02  0.19481360655E+02  0.50528854098E+02  0.29999982515E+02 0.  0.
         12    1    1    2    0    0  0.20766158758E+02  0.29024289534E+02 -0.19481360655E+02  0.40659145902E+02  0.00000000000E+00 0. -1.
         11    1    3    3    0    0 -0.23154796312E+01 -0.12725948825E+02  0.17267966837E+02  0.21575307608E+02  0.51100000000E-03 0. -1.
        -11    1    3    3    0    0 -0.18790664406E+02 -0.15983120420E+02  0.57964326793E+01  0.25340636125E+02  0.51100000000E-03 0.  1.
        -12    1    3    3    0    0  0.33998527921E+00 -0.31522028886E+00 -0.35830388609E+01  0.36129103642E+01  0.00000000000E+00 0.  1.
</event>
<event>
 7    1  0.5946946E-013  0.5052889E+02  0.7816164E-02  0.1300439E+00
        -11   -1    0    0    0    0  0.00000000000E+00  0.00000000000E+00  0.45593999997E+02  0.45594000000E+02  0.51100000000E-03 0.  1.
         11   -1    0    0    0    0 -0.00000000000E+00 -0.00000000000E+00 -0.45593999997E+02  0.45594000000E+02  0.51100000000E-03 0. -1.
    9900012    2    1    2    0    0 -0.69630640339E+01 -0.29470830683E+02  0.27132061039E+02  0.50528894524E+02  0.30000105394E+02 0.  0.
         12    1    1    2    0    0  0.69630640339E+01  0.29470830683E+02 -0.27132061039E+02  0.40659105476E+02  0.00000000000E+00 0. -1.
         11    1    3    3    0    0 -0.49432577010E+01 -0.54354275066E+01 -0.28939951673E+01  0.78965104424E+01  0.51100000000E-03 0. -1.
        -11    1    3    3    0    0 -0.70558097633E+01 -0.20308872899E+02  0.29276527387E+02  0.36322855421E+02  0.51100000000E-03 0.  1.
        -12    1    3    3    0    0  0.50360034304E+01 -0.37265302778E+01  0.74952881880E+00  0.63095286600E+01  0.00000000000E+00 0.  1.
</event>
<event>
 7    1  0.5946946E-013  0.5052890E+02  0.7816164E-02  0.1300439E+00
        -11   -1    0    0    0    0  0.00000000000E+00  0.00000000000E+00  0.45593999997E+02  0.45594000000E+02  0.51100000000E-03 0.  1.
         11   -1    0    0    0    0 -0.00000000000E+00 -0.00000000000E+00 -0.45593999997E+02  0.45594000000E+02  0.51100000000E-03 0. -1.
    9900012    2    1    2    0    0 -0.32525957351E+02 -0.24205430638E+02  0.30530976919E+01  0.50528902870E+02  0.30000130762E+02 0.  0.
         12    1    1    2    0    0  0.32525957351E+02  0.24205430638E+02 -0.30530976919E+01  0.40659097130E+02  0.00000000000E+00 0. -1.
         11    1    3    3    0    0 -0.62583315678E+01 -0.21555834540E+02 -0.30830565673E+01  0.22656697791E+02  0.51100000000E-03 0. -1.
        -11    1    3    3    0    0 -0.21516591822E+02 -0.32370461242E+01  0.25851741631E+01  0.21911762069E+02  0.51100000000E-03 0.  1.
         12    1    3    3    0    0 -0.47510339607E+01  0.58745002668E+00  0.35509800960E+01  0.59604430097E+01  0.00000000000E+00 0. -1.
</event>
<event>
 7    1  0.5946946E-013  0.5052886E+02  0.7816164E-02  0.1300439E+00
        -11   -1    0    0    0    0  0.00000000000E+00  0.00000000000E+00  0.45593999997E+02  0.45594000000E+02  0.51100000000E-03 0.  1.
         11   -1    0    0    0    0 -0.00000000000E+00 -0.00000000000E+00 -0.45593999997E+02  0.45594000000E+02  0.51100000000E-03 0. -1.
    9900012    2    1    2    0    0 -0.12950717888E+01 -0.40409098321E+02  0.43119994522E+01  0.50528858626E+02  0.29999996278E+02 0.  0.
         12    1    1    2    0    0  0.12950717888E+01  0.40409098321E+02 -0.43119994522E+01  0.40659141374E+02  0.00000000000E+00 0. -1.
         11    1    3    3    0    0  0.61643240625E+01  0.13055896579E+01 -0.59904663621E+00  0.63294796497E+01  0.51100000000E-03 0. -1.
        -11    1    3    3    0    0 -0.62563539674E+01 -0.31994483430E+02  0.86289383557E+01  0.33723100574E+02  0.51100000000E-03 0.  1.
        -12    1    3    3    0    0 -0.12030418839E+01 -0.97202045488E+01 -0.37178922673E+01  0.10476278402E+02  0.00000000000E+00 0.  1.
</event>
<event>
 7    1  0.5946946E-013  0.5052885E+02  0.7816164E-02  0.1300439E+00
        -11   -1    0    0    0    0  0.00000000000E+00  0.00000000000E+00  0.45593999997E+02  0.45594000000E+02  0.51100000000E-03 0.  1.
         11   -1    0    0    0    0 -0.00000000000E+00 -0.00000000000E+00 -0.45593999997E+02  0.45594000000E+02  0.51100000000E-03 0. -1.
    9900012    2    1    2    0    0  0.79821697571E+00  0.15957490989E+02  0.37388334063E+02  0.50528853514E+02  0.29999980741E+02 0.  0.
         12    1    1    2    0    0 -0.79821697571E+00 -0.15957490989E+02 -0.37388334063E+02  0.40659146486E+02  0.00000000000E+00 0. -1.
         11    1    3    3    0    0 -0.77605048252E+01 -0.30847944216E+01  0.11571780223E+02  0.14270511188E+02  0.51100000000E-03 0.  1.
        -11    1    3    3    0    0  0.64143805127E+01  0.35679350275E+01  0.16525097990E+02  0.18081850059E+02  0.51100000000E-03 0. -1.
         12    1    3    3    0    0  0.21443412882E+01  0.15474350383E+02  0.92914558494E+01  0.18176492267E+02  0.00000000000E+00 0. -1.
</event>
<event>
 7    1  0.5946946E-013  0.5052886E+02  0.7816164E-02  0.1300439E+00
        -11   -1    0    0    0    0  0.00000000000E+00  0.00000000000E+00  0.45593999997E+02  0.45594000000E+02  0.51100000000E-03 0. -1.
         11   -1    0    0    0    0 -0.00000000000E+00 -0.00000000000E+00 -0.45593999997E+02  0.45594000000E+02  0.51100000000E-03 0.  1.
    9900012    2    1    2    0    0  0.39687740659E+02 -0.78844227492E+01  0.39855838415E+01  0.50528858848E+02  0.29999996953E+02 0.  0.
         12    1    1    2    0    0 -0.39687740659E+02  0.78844227492E+01 -0.39855838415E+01  0.40659141152E+02  0.00000000000E+00 0. -1.
         11    1    3    3    0    0  0.36683954222E+01 -0.11796931306E+02  0.42223045082E+01  0.13055748497E+02  0.51100000000E-03 0. -1.
        -11    1    3    3    0    0  0.20351990283E+02 -0.35398579740E+00 -0.41419767207E+01  0.20772211867E+02  0.51100000000E-03 0.  1.
         12    1    3    3    0    0  0.15667354954E+02  0.42664943539E+01  0.39052560540E+01  0.16700898484E+02  0.00000000000E+00 0. -1.
</event>
<event>
 7    1  0.5946946E-013  0.5052886E+02  0.7816164E-02  0.1300439E+00
        -11   -1    0    0    0    0  0.00000000000E+00  0.00000000000E+00  0.45593999997E+02  0.45594000000E+02  0.51100000000E-03 0.  1.
         11   -1    0    0    0    0 -0.00000000000E+00 -0.00000000000E+00 -0.45593999997E+02  0.45594000000E+02  0.51100000000E-03 0. -1.
    9900012    2    1    2    0    0  0.40209508167E+02 -0.43406380468E+01  0.41856531404E+01  0.50528863537E+02  0.30000011208E+02 0.  0.
         12    1    1    2    0    0 -0.40209508167E+02  0.43406380468E+01 -0.41856531404E+01  0.40659136463E+02  0.00000000000E+00 0. -1.
         11    1    3    3    0    0  0.12486052626E+02  0.60775510543E+01  0.90244513481E+01  0.16561366471E+02  0.51100000000E-03 0. -1.
        -11    1    3    3    0    0  0.13177781922E+02 -0.12643317255E+02 -0.59595648283E+01  0.19209992733E+02  0.51100000000E-03 0.  1.
        -12    1    3    3    0    0  0.14545673619E+02  0.22251281538E+01  0.11207666206E+01  0.14757504334E+02  0.00000000000E+00 0.  1.
</event>
<event>
 7    1  0.5946946E-013  0.5052886E+02  0.7816164E-02  0.1300439E+00
        -11   -1    0    0    0    0  0.00000000000E+00  0.00000000000E+00  0.45593999997E+02  0.45594000000E+02  0.51100000000E-03 0. -1.
         11   -1    0    0    0    0 -0.00000000000E+00 -0.00000000000E+00 -0.45593999997E+02  0.45594000000E+02  0.51100000000E-03 0.  1.
    9900012    2    1    2    0    0  0.26315441595E+02  0.88297497828E+01 -0.29710246976E+02  0.50528859294E+02  0.29999998311E+02 0.  0.
         12    1    1    2    0    0 -0.26315441595E+02 -0.88297497828E+01  0.29710246976E+02  0.40659140706E+02  0.00000000000E+00 0. -1.
         11    1    3    3    0    0  0.93483403268E+01  0.63223258723E+01 -0.49344768005E+01  0.12317156038E+02  0.51100000000E-03 0. -1.
        -11    1    3    3    0    0  0.65447376918E+01  0.80991525053E+00 -0.26678907663E+02  0.27481878912E+02  0.51100000000E-03 0.  1.
        -12    1    3    3    0    0  0.10422363576E+02  0.16975086600E+01  0.19031374877E+01  0.10729824345E+02  0.00000000000E+00 0.  1.
</event>
<event>
 7    1  0.5946946E-013  0.5052886E+02  0.7816164E-02  0.1300439E+00
        -11   -1    0    0    0    0  0.00000000000E+00  0.00000000000E+00  0.45593999997E+02  0.45594000000E+02  0.51100000000E-03 0.  1.
         11   -1    0    0    0    0 -0.00000000000E+00 -0.00000000000E+00 -0.45593999997E+02  0.45594000000E+02  0.51100000000E-03 0. -1.
    9900012    2    1    2    0    0 -0.23741367993E+01 -0.37767900256E+02 -0.14869932150E+02  0.50528859607E+02  0.29999999263E+02 0.  0.
         12    1    1    2    0    0  0.23741367993E+01  0.37767900256E+02  0.14869932150E+02  0.40659140393E+02  0.00000000000E+00 0. -1.
         11    1    3    3    0    0  0.17926934797E+00 -0.69360269637E+00 -0.11774668168E+02  0.11796441537E+02  0.51100000000E-03 0. -1.
        -11    1    3    3    0    0  0.28648522375E+01 -0.16778397003E+02 -0.47184188613E+01  0.17663110177E+02  0.51100000000E-03 0.  1.
         12    1    3    3    0    0 -0.54182583847E+01 -0.20295900557E+02  0.16231548790E+01  0.21069307894E+02  0.00000000000E+00 0. -1.
</event>
<event>
 7    1  0.5946946E-013  0.5052886E+02  0.7816164E-02  0.1300439E+00
        -11   -1    0    0    0    0  0.00000000000E+00  0.00000000000E+00  0.45593999997E+02  0.45594000000E+02  0.51100000000E-03 0.  1.
         11   -1    0    0    0    0 -0.00000000000E+00 -0.00000000000E+00 -0.45593999997E+02  0.45594000000E+02  0.51100000000E-03 0. -1.
    9900012    2    1    2    0    0 -0.75858117387E+01 -0.24767408976E+02  0.31340015500E+02  0.50528860085E+02  0.30000000714E+02 0.  0.
         12    1    1    2    0    0  0.75858117387E+01  0.24767408976E+02 -0.31340015500E+02  0.40659139915E+02  0.00000000000E+00 0. -1.
         11    1    3    3    0    0 -0.15907621273E+01  0.34107932016E+00 -0.84973011941E+00  0.18354565605E+01  0.51100000000E-03 0. -1.
        -11    1    3    3    0    0 -0.10590528087E+02 -0.28278566108E+02  0.30355541122E+02  0.42816999701E+02  0.51100000000E-03 0.  1.
        -12    1    3    3    0    0  0.45954784758E+01  0.31700778123E+01  0.18342044972E+01  0.58764038234E+01  0.00000000000E+00 0.  1.
</event>
<event>
 7    1  0.5946946E-013  0.5052885E+02  0.7816164E-02  0.1300439E+00
        -11   -1    0    0    0    0  0.00000000000E+00  0.00000000000E+00  0.45593999997E+02  0.45594000000E+02  0.51100000000E-03 0.  1.
         11   -1    0    0    0    0 -0.00000000000E+00 -0.00000000000E+00 -0.45593999997E+02  0.45594000000E+02  0.51100000000E-03 0. -1.
    9900012    2    1    2    0    0 -0.15919865235E+02  0.37074775900E+02  0.50185073500E+01  0.50528849331E+02  0.29999968026E+02 0.  0.
         12    1    1    2    0    0  0.15919865235E+02 -0.37074775900E+02 -0.50185073500E+01  0.40659150669E+02  0.00000000000E+00 0. -1.
         11    1    3    3    0    0  0.11881373796E+01 -0.75847026900E+00  0.20823081495E+01  0.25145486816E+01  0.51100000000E-03 0. -1.
        -11    1    3    3    0    0 -0.20014372396E+02  0.27791794810E+02  0.96603196829E+01  0.35584838595E+02  0.51100000000E-03 0.  1.
        -12    1    3    3    0    0  0.29063697817E+01  0.10041451359E+02 -0.67241204824E+01  0.12429462055E+02  0.00000000000E+00 0.  1.
</event>
<event>
 7    1  0.5946946E-013  0.5052886E+02  0.7816164E-02  0.1300439E+00
        -11   -1    0    0    0    0  0.00000000000E+00  0.00000000000E+00  0.45593999997E+02  0.45594000000E+02  0.51100000000E-03 0.  1.
         11   -1    0    0    0    0 -0.00000000000E+00 -0.00000000000E+00 -0.45593999997E+02  0.45594000000E+02  0.51100000000E-03 0. -1.
    9900012    2    1    2    0    0 -0.20395941245E+02 -0.16858583217E+01  0.35133017627E+02  0.50528862465E+02  0.30000007947E+02 0.  0.
         12    1    1    2    0    0  0.20395941245E+02  0.16858583217E+01 -0.35133017627E+02  0.40659137535E+02  0.00000000000E+00 0. -1.
         11    1    3    3    0    0  0.63930711961E+01  0.39748739719E+00  0.28496144341E+01  0.70106817239E+01  0.51100000000E-03 0. -1.
        -11    1    3    3    0    0 -0.21061771662E+02 -0.45338324468E+01  0.18518583751E+02  0.28409361250E+02  0.51100000000E-03 0.  1.
        -12    1    3    3    0    0 -0.57272407786E+01  0.24504867280E+01  0.13764819442E+02  0.15108819491E+02  0.00000000000E+00 0.  1.
</event>
<event>
 7    1  0.5946946E-013  0.5052887E+02  0.7816164E-02  0.1300439E+00
        -11   -1    0    0    0    0  0.00000000000E+00  0.00000000000E+00  0.45593999997E+02  0.45594000000E+02  0.51100000000E-03 0.  1.
         11   -1    0    0    0    0 -0.00000000000E+00 -0.00000000000E+00 -0.45593999997E+02  0.45594000000E+02  0.51100000000E-03 0. -1.
    9900012    2    1    2    0    0  0.15074006347E+02 -0.21228432600E+02  0.31229685017E+02  0.50528865180E+02  0.30000016202E+02 0.  0.
         12    1    1    2    0    0 -0.15074006347E+02  0.21228432600E+02 -0.31229685017E+02  0.40659134820E+02  0.00000000000E+00 0. -1.
         11    1    3    3    0    0 -0.42450097807E+01 -0.31117013723E+01  0.79062223717E+01  0.94979548283E+01  0.51100000000E-03 0. -1.
        -11    1    3    3    0    0  0.22773554359E+02 -0.19480690663E+02  0.21567028398E+02  0.36922470137E+02  0.51100000000E-03 0.  1.
        -12    1    3    3    0    0 -0.34545382311E+01  0.13639594357E+01  0.17564342478E+01  0.41084402149E+01  0.00000000000E+00 0.  1.
</event>
<event>
 7    1  0.5946946E-013  0.5052886E+02  0.7816164E-02  0.1300439E+00
        -11   -1    0    0    0    0  0.00000000000E+00  0.00000000000E+00  0.45593999997E+02  0.45594000000E+02  0.51100000000E-03 0. -1.
         11   -1    0    0    0    0 -0.00000000000E+00 -0.00000000000E+00 -0.45593999997E+02  0.45594000000E+02  0.51100000000E-03 0.  1.
    9900012    2    1    2    0    0  0.40534414462E+02  0.50281574295E+00  0.31423044921E+01  0.50528860105E+02  0.30000000775E+02 0.  0.
         12    1    1    2    0    0 -0.40534414462E+02 -0.50281574295E+00 -0.31423044921E+01  0.40659139895E+02  0.00000000000E+00 0. -1.
         11    1    3    3    0    0  0.33260395422E+02  0.66035157237E+01 -0.69713504426E+01  0.34618781764E+02  0.51100000000E-03 0. -1.
        -11    1    3    3    0    0  0.36095460905E+01  0.48512222419E+00  0.67223970210E+01  0.76455731323E+01  0.51100000000E-03 0.  1.
         12    1    3    3    0    0  0.36644729497E+01 -0.65858222049E+01  0.33912579137E+01  0.82645052091E+01  0.00000000000E+00 0. -1.
</event>
<event>
 7    1  0.5946946E-013  0.5052887E+02  0.7816164E-02  0.1300439E+00
        -11   -1    0    0    0    0  0.00000000000E+00  0.00000000000E+00  0.45593999997E+02  0.45594000000E+02  0.51100000000E-03 0.  1.
         11   -1    0    0    0    0 -0.00000000000E+00 -0.00000000000E+00 -0.45593999997E+02  0.45594000000E+02  0.51100000000E-03 0. -1.
    9900012    2    1    2    0    0  0.18915805543E+02 -0.30024941843E+02  0.19845915515E+02  0.50528865791E+02  0.30000018058E+02 0.  0.
         12    1    1    2    0    0 -0.18915805543E+02  0.30024941843E+02 -0.19845915515E+02  0.40659134209E+02  0.00000000000E+00 0. -1.
         11    1    3    3    0    0  0.17252015885E+02 -0.17839623290E+02  0.68758220215E+01  0.25751915267E+02  0.51100000000E-03 0. -1.
        -11    1    3    3    0    0 -0.53031199437E+01  0.76365396755E+00  0.29863140989E+00  0.53661372978E+01  0.51100000000E-03 0.  1.
        -12    1    3    3    0    0  0.69669096018E+01 -0.12948972521E+02  0.12671462084E+02  0.19410813226E+02  0.00000000000E+00 0.  1.
</event>
<event>
 7    1  0.5946946E-013  0.5052886E+02  0.7816164E-02  0.1300439E+00
        -11   -1    0    0    0    0  0.00000000000E+00  0.00000000000E+00  0.45593999997E+02  0.45594000000E+02  0.51100000000E-03 0.  1.
         11   -1    0    0    0    0 -0.00000000000E+00 -0.00000000000E+00 -0.45593999997E+02  0.45594000000E+02  0.51100000000E-03 0. -1.
    9900012    2    1    2    0    0  0.91855730059E+01 -0.25201791825E+02  0.30555854011E+02  0.50528864778E+02  0.30000014979E+02 0.  0.
         12    1    1    2    0    0 -0.91855730059E+01  0.25201791825E+02 -0.30555854011E+02  0.40659135222E+02  0.00000000000E+00 0. -1.
         11    1    3    3    0    0  0.97716233943E+01 -0.75463030570E+01  0.12336684301E+02  0.17453512351E+02  0.51100000000E-03 0. -1.
        -11    1    3    3    0    0 -0.14192693998E+01 -0.69453272582E+01 -0.41827537952E+01  0.82308763765E+01  0.51100000000E-03 0.  1.
        -12    1    3    3    0    0  0.83321901145E+00 -0.10710161510E+02  0.22401923505E+02  0.24844476050E+02  0.00000000000E+00 0.  1.
</event>
<event>
 7    1  0.5946946E-013  0.5052883E+02  0.7816164E-02  0.1300439E+00
        -11   -1    0    0    0    0  0.00000000000E+00  0.00000000000E+00  0.45593999997E+02  0.45594000000E+02  0.51100000000E-03 0. -1.
         11   -1    0    0    0    0 -0.00000000000E+00 -0.00000000000E+00 -0.45593999997E+02  0.45594000000E+02  0.51100000000E-03 0.  1.
    9900012    2    1    2    0    0 -0.10403618046E+02 -0.37771584597E+02  0.10873828881E+02  0.50528830973E+02  0.29999912226E+02 0.  0.
         12    1    1    2    0    0  0.10403618046E+02  0.37771584597E+02 -0.10873828881E+02  0.40659169027E+02  0.00000000000E+00 0. -1.
         11    1    3    3    0    0 -0.21257926922E+01 -0.30925191108E+02  0.11249164721E+02  0.32976205768E+02  0.51100000000E-03 0. -1.
        -11    1    3    3    0    0 -0.46063367399E+01  0.36941213360E+01  0.18166314707E+01  0.61777844547E+01  0.51100000000E-03 0.  1.
        -12    1    3    3    0    0 -0.36714886137E+01 -0.10540514825E+02 -0.21919673108E+01  0.11374840751E+02  0.00000000000E+00 0.  1.
</event>
<event>
 7    1  0.5946946E-013  0.5052885E+02  0.7816164E-02  0.1300439E+00
        -11   -1    0    0    0    0  0.00000000000E+00  0.00000000000E+00  0.45593999997E+02  0.45594000000E+02  0.51100000000E-03 0.  1.
         11   -1    0    0    0    0 -0.00000000000E+00 -0.00000000000E+00 -0.45593999997E+02  0.45594000000E+02  0.51100000000E-03 0. -1.
    9900012    2    1    2    0    0  0.28135034850E+02  0.10745590118E+02  0.27315176441E+02  0.50528846578E+02  0.29999959659E+02 0.  0.
         12    1    1    2    0    0 -0.28135034850E+02 -0.10745590118E+02 -0.27315176441E+02  0.40659153422E+02  0.00000000000E+00 0. -1.
         11    1    3    3    0    0  0.18903003308E+02  0.12114492700E+02  0.24985348839E+02  0.33590953012E+02  0.51100000000E-03 0. -1.
        -11    1    3    3    0    0  0.73416717955E+01  0.18173107156E+01  0.74511143638E+01  0.10617055548E+02  0.51100000000E-03 0.  1.
         12    1    3    3    0    0  0.18903597466E+01 -0.31862132982E+01 -0.51212867613E+01  0.63208380175E+01  0.00000000000E+00 0. -1.
</event>
<event>
 7    1  0.5946946E-013  0.5052885E+02  0.7816164E-02  0.1300439E+00
        -11   -1    0    0    0    0  0.00000000000E+00  0.00000000000E+00  0.45593999997E+02  0.45594000000E+02  0.51100000000E-03 0. -1.
         11   -1    0    0    0    0 -0.00000000000E+00 -0.00000000000E+00 -0.45593999997E+02  0.45594000000E+02  0.51100000000E-03 0.  1.
    9900012    2    1    2    0    0 -0.22997000821E+02 -0.31587846495E+02 -0.11247769725E+02  0.50528850762E+02  0.29999972378E+02 0.  0.
         12    1    1    2    0    0  0.22997000821E+02  0.31587846495E+02  0.11247769725E+02  0.40659149238E+02  0.00000000000E+00 0. -1.
         11    1    3    3    0    0  0.45022538859E+01 -0.11679412224E+02 -0.62965663318E+01  0.14011627593E+02  0.51100000000E-03 0.  1.
        -11    1    3    3    0    0 -0.26493202761E+02 -0.21443723261E+02 -0.56576326345E+01  0.34550424992E+02  0.51100000000E-03 0. -1.
         12    1    3    3    0    0 -0.10060519460E+01  0.15352889903E+01  0.70642924113E+00  0.19667981784E+01  0.00000000000E+00 0. -1.
</event>
<event>
 7    1  0.5946946E-013  0.5052888E+02  0.7816164E-02  0.1300439E+00
        -11   -1    0    0    0    0  0.00000000000E+00  0.00000000000E+00  0.45593999997E+02  0.45594000000E+02  0.51100000000E-03 0.  1.
         11   -1    0    0    0    0 -0.00000000000E+00 -0.00000000000E+00 -0.45593999997E+02  0.45594000000E+02  0.51100000000E-03 0. -1.
    9900012    2    1    2    0    0  0.38092701940E+02 -0.54150397595E+00 -0.14206230403E+02  0.50528878638E+02  0.30000057109E+02 0.  0.
         12    1    1    2    0    0 -0.38092701940E+02  0.54150397595E+00  0.14206230403E+02  0.40659121362E+02  0.00000000000E+00 0. -1.
         11    1    3    3    0    0  0.12804897275E+02  0.99006768446E+01  0.17751775999E+01  0.16283121690E+02  0.51100000000E-03 0.  1.
        -11    1    3    3    0    0  0.12043894519E+02 -0.74462659589E+01 -0.15006246052E+02  0.20632248853E+02  0.51100000000E-03 0. -1.
         12    1    3    3    0    0  0.13243910146E+02 -0.29959148617E+01 -0.97516195064E+00  0.13613508094E+02  0.00000000000E+00 0. -1.
</event>
<event>
 7    1  0.5946946E-013  0.5052886E+02  0.7816164E-02  0.1300439E+00
        -11   -1    0    0    0    0  0.00000000000E+00  0.00000000000E+00  0.45593999997E+02  0.45594000000E+02  0.51100000000E-03 0.  1.
         11   -1    0    0    0    0 -0.00000000000E+00 -0.00000000000E+00 -0.45593999997E+02  0.45594000000E+02  0.51100000000E-03 0. -1.
    9900012    2    1    2    0    0 -0.38997232935E+02  0.18508626754E+01 -0.11355884684E+02  0.50528856057E+02  0.29999988472E+02 0.  0.
         12    1    1    2    0    0  0.38997232935E+02 -0.18508626754E+01  0.11355884684E+02  0.40659143943E+02  0.00000000000E+00 0. -1.
         11    1    3    3    0    0 -0.36297606160E+01  0.51679560115E+01 -0.90688172434E+01  0.11051080396E+02  0.51100000000E-03 0. -1.
        -11    1    3    3    0    0 -0.20733011741E+02 -0.74929446820E+01 -0.76603826655E+01  0.23338454505E+02  0.51100000000E-03 0.  1.
        -12    1    3    3    0    0 -0.14634460578E+02  0.41758513459E+01  0.53733152252E+01  0.16139321156E+02  0.00000000000E+00 0.  1.
</event>
<event>
 7    1  0.5946946E-013  0.5052888E+02  0.7816164E-02  0.1300439E+00
        -11   -1    0    0    0    0  0.00000000000E+00  0.00000000000E+00  0.45593999997E+02  0.45594000000E+02  0.51100000000E-03 0. -1.
         11   -1    0    0    0    0 -0.00000000000E+00 -0.00000000000E+00 -0.45593999997E+02  0.45594000000E+02  0.51100000000E-03 0.  1.
    9900012    2    1    2    0    0 -0.18364904410E+02  0.32016079926E+02 -0.17054773169E+02  0.50528875862E+02  0.30000048671E+02 0.  0.
         12    1    1    2    0    0  0.18364904410E+02 -0.32016079926E+02  0.17054773169E+02  0.40659124138E+02  0.00000000000E+00 0. -1.
         11    1    3    3    0    0 -0.29473707713E+01  0.65441651572E+00 -0.44393611926E+01  0.53687227065E+01  0.51100000000E-03 0. -1.
        -11    1    3    3    0    0 -0.87093063284E+01  0.20606102771E+02  0.55122528012E+01  0.23040147989E+02  0.51100000000E-03 0.  1.
        -12    1    3    3    0    0 -0.67082273099E+01  0.10755560639E+02 -0.18127664777E+02  0.22120005167E+02  0.00000000000E+00 0.  1.
</event>
<event>
 7    1  0.5946946E-013  0.5052889E+02  0.7816164E-02  0.1300439E+00
        -11   -1    0    0    0    0  0.00000000000E+00  0.00000000000E+00  0.45593999997E+02  0.45594000000E+02  0.51100000000E-03 0.  1.
         11   -1    0    0    0    0 -0.00000000000E+00 -0.00000000000E+00 -0.45593999997E+02  0.45594000000E+02  0.51100000000E-03 0. -1.
    9900012    2    1    2    0    0  0.18421019494E+02 -0.29414050556E+02  0.21181201329E+02  0.50528885167E+02  0.30000076954E+02 0.  0.
         12    1    1    2    0    0 -0.18421019494E+02  0.29414050556E+02 -0.21181201329E+02  0.40659114833E+02  0.00000000000E+00 0. -1.
         11    1    3    3    0    0  0.41630758341E+01 -0.30066935413E+02  0.19088237433E+02  0.35856834971E+02  0.51100000000E-03 0. -1.
        -11    1    3    3    0    0  0.57413911799E+01 -0.80691439204E+00  0.16128244745E+01  0.60179636559E+01  0.51100000000E-03 0.  1.
         12    1    3    3    0    0  0.85165524795E+01  0.14597992500E+01  0.48013942152E+00  0.86540865405E+01  0.00000000000E+00 0. -1.
</event>
<event>
 7    1  0.5946946E-013  0.5052888E+02  0.7816164E-02  0.1300439E+00
        -11   -1    0    0    0    0  0.00000000000E+00  0.00000000000E+00  0.45593999997E+02  0.45594000000E+02  0.51100000000E-03 0.  1.
         11   -1    0    0    0    0 -0.00000000000E+00 -0.00000000000E+00 -0.45593999997E+02  0.45594000000E+02  0.51100000000E-03 0. -1.
    9900012    2    1    2    0    0 -0.17338510647E+02  0.36302931808E+01  0.36597285277E+02  0.50528877165E+02  0.30000052631E+02 0.  0.
         12    1    1    2    0    0  0.17338510647E+02 -0.36302931808E+01 -0.36597285277E+02  0.40659122835E+02  0.00000000000E+00 0. -1.
         11    1    3    3    0    0  0.76065029619E+01  0.73901369066E+00  0.28788197036E+01  0.81665556810E+01  0.51100000000E-03 0. -1.
        -11    1    3    3    0    0 -0.17124767539E+02  0.28021535181E+01  0.26762151136E+02  0.31895492805E+02  0.51100000000E-03 0.  1.
         12    1    3    3    0    0 -0.78202460699E+01  0.89125972028E-01  0.69563144382E+01  0.10466828679E+02  0.00000000000E+00 0. -1.
</event>
<event>
 7    1  0.5946946E-013  0.5052886E+02  0.7816164E-02  0.1300439E+00
        -11   -1    0    0    0    0  0.00000000000E+00  0.00000000000E+00  0.45593999997E+02  0.45594000000E+02  0.51100000000E-03 0.  1.
         11   -1    0    0    0    0 -0.00000000000E+00 -0.00000000000E+00 -0.45593999997E+02  0.45594000000E+02  0.51100000000E-03 0. -1.
    9900012    2    1    2    0    0  0.32074226388E+01  0.25452870115E+02  0.31544091334E+02  0.50528857668E+02  0.29999993369E+02 0.  0.
         12    1    1    2    0    0 -0.32074226388E+01 -0.25452870115E+02 -0.31544091334E+02  0.40659142332E+02  0.00000000000E+00 0. -1.
         11    1    3    3    0    0  0.74050207312E+01  0.50671204197E+01  0.87567761638E+01  0.12537590296E+02  0.51100000000E-03 0. -1.
        -11    1    3    3    0    0 -0.61941998820E+01 -0.29309344867E+01  0.36713192785E+01  0.77741285459E+01  0.51100000000E-03 0.  1.
        -12    1    3    3    0    0  0.19966017895E+01  0.23316684182E+02  0.19115995891E+02  0.30217138827E+02  0.00000000000E+00 0.  1.
</event>
<event>
 7    1  0.5946946E-013  0.5052887E+02  0.7816164E-02  0.1300439E+00
        -11   -1    0    0    0    0  0.00000000000E+00  0.00000000000E+00  0.45593999997E+02  0.45594000000E+02  0.51100000000E-03 0. -1.
         11   -1    0    0    0    0 -0.00000000000E+00 -0.00000000000E+00 -0.45593999997E+02  0.45594000000E+02  0.51100000000E-03 0.  1.
    9900012    2    1    2    0    0 -0.36672725520E+02 -0.16031698060E+02  0.71596403552E+01  0.50528873229E+02  0.30000040667E+02 0.  0.
         12    1    1    2    0    0  0.36672725520E+02  0.16031698060E+02 -0.71596403552E+01  0.40659126771E+02  0.00000000000E+00 0. -1.
         11    1    3    3    0    0  0.10287473368E+01 -0.47209185782E+01 -0.37139991793E+01  0.60941926020E+01  0.51100000000E-03 0. -1.
        -11    1    3    3    0    0 -0.34221871484E+02 -0.11030803795E+02  0.15061348018E+02  0.38982808065E+02  0.51100000000E-03 0.  1.
        -12    1    3    3    0    0 -0.34796013729E+01 -0.27997568677E+00 -0.41877084830E+01  0.54518725625E+01  0.00000000000E+00 0.  1.
</event>
<event>
 7    1  0.6090761E-013  0.5052886E+02  0.7816164E-02  0.1300439E+00
        -11   -1    0    0    0    0  0.00000000000E+00  0.00000000000E+00  0.45593999997E+02  0.45594000000E+02  0.51100000000E-03 0. -1.
         11   -1    0    0    0    0 -0.00000000000E+00 -0.00000000000E+00 -0.45593999997E+02  0.45594000000E+02  0.51100000000E-03 0.  1.
    9900012    2    1    2    0    0 -0.21547049820E+02  0.20148318155E+02 -0.27980983617E+02  0.50528861733E+02  0.30000005725E+02 0.  0.
         12    1    1    2    0    0  0.21547049820E+02 -0.20148318155E+02  0.27980983617E+02  0.40659138267E+02  0.00000000000E+00 0. -1.
         11    1    3    3    0    0  0.17451359803E+00 -0.25018044570E+00  0.20366985098E+01  0.20594140750E+01  0.51100000000E-03 0. -1.
        -11    1    3    3    0    0 -0.12021895017E+02  0.24078075207E+02 -0.17034034823E+02  0.31850243454E+02  0.51100000000E-03 0.  1.
        -12    1    3    3    0    0 -0.96996684004E+01 -0.36795766062E+01 -0.12983647304E+02  0.16619204205E+02  0.00000000000E+00 0.  1.
</event>
<event>
 7    1  0.5946946E-013  0.5052886E+02  0.7816164E-02  0.1300439E+00
        -11   -1    0    0    0    0  0.00000000000E+00  0.00000000000E+00  0.45593999997E+02  0.45594000000E+02  0.51100000000E-03 0.  1.
         11   -1    0    0    0    0 -0.00000000000E+00 -0.00000000000E+00 -0.45593999997E+02  0.45594000000E+02  0.51100000000E-03 0. -1.
    9900012    2    1    2    0    0  0.18036658102E+02 -0.18428416008E+02  0.31436256329E+02  0.50528858789E+02  0.29999996775E+02 0.  0.
         12    1    1    2    0    0 -0.18036658102E+02  0.18428416008E+02 -0.31436256329E+02  0.40659141211E+02  0.00000000000E+00 0. -1.
         11    1    3    3    0    0 -0.22632893409E+00 -0.10008617123E+02 -0.10320834726E+01  0.10064235592E+02  0.51100000000E-03 0. -1.
        -11    1    3    3    0    0  0.11846106291E+02  0.18783118325E+01  0.15285731109E+02  0.19429664572E+02  0.51100000000E-03 0.  1.
         12    1    3    3    0    0  0.64168807453E+01 -0.10298110717E+02  0.17182608693E+02  0.21034958624E+02  0.00000000000E+00 0. -1.
</event>
<event>
 7    1  0.5946946E-013  0.5052885E+02  0.7816164E-02  0.1300439E+00
        -11   -1    0    0    0    0  0.00000000000E+00  0.00000000000E+00  0.45593999997E+02  0.45594000000E+02  0.51100000000E-03 0. -1.
         11   -1    0    0    0    0 -0.00000000000E+00 -0.00000000000E+00 -0.45593999997E+02  0.45594000000E+02  0.51100000000E-03 0.  1.
    9900012    2    1    2    0    0 -0.25057503780E+02 -0.23679428344E+02 -0.21553942912E+02  0.50528852475E+02  0.29999977584E+02 0.  0.
         12    1    1    2    0    0  0.25057503780E+02  0.23679428344E+02  0.21553942912E+02  0.40659147525E+02  0.00000000000E+00 0. -1.
         11    1    3    3    0    0  0.33848074142E+01 -0.40452084818E+01 -0.51890426066E+00  0.52999900741E+01  0.51100000000E-03 0. -1.
        -11    1    3    3    0    0 -0.18542219477E+02 -0.17387127860E+02 -0.44826070814E+01  0.25811235632E+02  0.51100000000E-03 0.  1.
        -12    1    3    3    0    0 -0.99000917169E+01 -0.22470920024E+01 -0.16552431570E+02  0.19417626769E+02  0.00000000000E+00 0.  1.
</event>
<event>
 7    1  0.5946946E-013  0.5052886E+02  0.7816164E-02  0.1300439E+00
        -11   -1    0    0    0    0  0.00000000000E+00  0.00000000000E+00  0.45593999997E+02  0.45594000000E+02  0.51100000000E-03 0.  1.
         11   -1    0    0    0    0 -0.00000000000E+00 -0.00000000000E+00 -0.45593999997E+02  0.45594000000E+02  0.51100000000E-03 0. -1.
    9900012    2    1    2    0    0 -0.18194690896E+02 -0.28687514425E+02  0.22341561853E+02  0.50528860232E+02  0.30000001160E+02 0.  0.
         12    1    1    2    0    0  0.18194690896E+02  0.28687514425E+02 -0.22341561853E+02  0.40659139768E+02  0.00000000000E+00 0. -1.
         11    1    3    3    0    0  0.39932562640E+01 -0.15050400745E+02  0.82413456943E+01  0.17617617242E+02  0.51100000000E-03 0. -1.
        -11    1    3    3    0    0 -0.90164282231E+00 -0.47832441674E+01 -0.14782905635E+01  0.50870156079E+01  0.51100000000E-03 0.  1.
         12    1    3    3    0    0 -0.21286304338E+02 -0.88538695123E+01  0.15578506722E+02  0.27824227382E+02  0.00000000000E+00 0. -1.
</event>
<event>
 7    1  0.5946946E-013  0.5052887E+02  0.7816164E-02  0.1300439E+00
        -11   -1    0    0    0    0  0.00000000000E+00  0.00000000000E+00  0.45593999997E+02  0.45594000000E+02  0.51100000000E-03 0. -1.
         11   -1    0    0    0    0 -0.00000000000E+00 -0.00000000000E+00 -0.45593999997E+02  0.45594000000E+02  0.51100000000E-03 0.  1.
    9900012    2    1    2    0    0 -0.13361731803E+02 -0.38360538894E+02 -0.17600787626E+01  0.50528871895E+02  0.30000036612E+02 0.  0.
         12    1    1    2    0    0  0.13361731803E+02  0.38360538894E+02  0.17600787626E+01  0.40659128105E+02  0.00000000000E+00 0. -1.
         11    1    3    3    0    0 -0.23348310261E+01  0.41478739741E+01 -0.69948567808E+00  0.48109848160E+01  0.51100000000E-03 0. -1.
        -11    1    3    3    0    0 -0.91712350951E+01 -0.32368608962E+02  0.46030699516E+01  0.33956246150E+02  0.51100000000E-03 0.  1.
        -12    1    3    3    0    0 -0.18556656815E+01 -0.10139803906E+02 -0.56636630361E+01  0.11761640929E+02  0.00000000000E+00 0.  1.
</event>
<event>
 7    1  0.5946946E-013  0.5052886E+02  0.7816164E-02  0.1300439E+00
        -11   -1    0    0    0    0  0.00000000000E+00  0.00000000000E+00  0.45593999997E+02  0.45594000000E+02  0.51100000000E-03 0.  1.
         11   -1    0    0    0    0 -0.00000000000E+00 -0.00000000000E+00 -0.45593999997E+02  0.45594000000E+02  0.51100000000E-03 0. -1.
    9900012    2    1    2    0    0 -0.13753370207E+01 -0.33732940843E+02  0.22657510205E+02  0.50528860578E+02  0.30000002212E+02 0.  0.
         12    1    1    2    0    0  0.13753370207E+01  0.33732940843E+02 -0.22657510205E+02  0.40659139422E+02  0.00000000000E+00 0. -1.
         11    1    3    3    0    0 -0.12971702141E+02 -0.12974160377E+02  0.99181292142E+01  0.20855770935E+02  0.51100000000E-03 0. -1.
        -11    1    3    3    0    0  0.12509203987E+02 -0.13551957465E+02  0.12728435292E+02  0.22408676908E+02  0.51100000000E-03 0.  1.
        -12    1    3    3    0    0 -0.91283886664E+00 -0.72068230017E+01  0.10945699066E-01  0.72644127349E+01  0.00000000000E+00 0.  1.
</event>
<event>
 7    1  0.5946946E-013  0.5052886E+02  0.7816164E-02  0.1300439E+00
        -11   -1    0    0    0    0  0.00000000000E+00  0.00000000000E+00  0.45593999997E+02  0.45594000000E+02  0.51100000000E-03 0. -1.
         11   -1    0    0    0    0 -0.00000000000E+00 -0.00000000000E+00 -0.45593999997E+02  0.45594000000E+02  0.51100000000E-03 0.  1.
    9900012    2    1    2    0    0 -0.62664834386E+01  0.37564080133E+02 -0.14242073718E+02  0.50528860871E+02  0.30000003104E+02 0.  0.
         12    1    1    2    0    0  0.62664834386E+01 -0.37564080133E+02  0.14242073718E+02  0.40659139129E+02  0.00000000000E+00 0. -1.
         11    1    3    3    0    0 -0.30108435736E+01 -0.91166875082E+00  0.35633752265E+01  0.47533106570E+01  0.51100000000E-03 0. -1.
        -11    1    3    3    0    0  0.50514122626E+01  0.29538391447E+02 -0.12839599510E+02  0.32601973114E+02  0.51100000000E-03 0.  1.
         12    1    3    3    0    0 -0.83070521276E+01  0.89373574368E+01 -0.49658494347E+01  0.13173577100E+02  0.00000000000E+00 0. -1.
</event>
<event>
 7    1  0.5946946E-013  0.5052890E+02  0.7816164E-02  0.1300439E+00
        -11   -1    0    0    0    0  0.00000000000E+00  0.00000000000E+00  0.45593999997E+02  0.45594000000E+02  0.51100000000E-03 0. -1.
         11   -1    0    0    0    0 -0.00000000000E+00 -0.00000000000E+00 -0.45593999997E+02  0.45594000000E+02  0.51100000000E-03 0.  1.
    9900012    2    1    2    0    0  0.32016548876E+02 -0.65609684287E+01 -0.24187944335E+02  0.50528900652E+02  0.30000124021E+02 0.  0.
         12    1    1    2    0    0 -0.32016548876E+02  0.65609684287E+01  0.24187944335E+02  0.40659099348E+02  0.00000000000E+00 0. -1.
         11    1    3    3    0    0 -0.43249045607E-01 -0.94869415013E+01 -0.12982126075E+02  0.16079164382E+02  0.51100000000E-03 0. -1.
        -11    1    3    3    0    0  0.17575165156E+02  0.56874116642E+00 -0.84849262861E+01  0.19524442914E+02  0.51100000000E-03 0.  1.
         12    1    3    3    0    0  0.14484632765E+02  0.23572319062E+01 -0.27208919741E+01  0.14925293355E+02  0.00000000000E+00 0. -1.
</event>
<event>
 7    1  0.5946946E-013  0.5052886E+02  0.7816164E-02  0.1300439E+00
        -11   -1    0    0    0    0  0.00000000000E+00  0.00000000000E+00  0.45593999997E+02  0.45594000000E+02  0.51100000000E-03 0.  1.
         11   -1    0    0    0    0 -0.00000000000E+00 -0.00000000000E+00 -0.45593999997E+02  0.45594000000E+02  0.51100000000E-03 0. -1.
    9900012    2    1    2    0    0  0.39957686030E+02  0.59883479471E+01 -0.45484907363E+01  0.50528858937E+02  0.29999997224E+02 0.  0.
         12    1    1    2    0    0 -0.39957686030E+02 -0.59883479471E+01  0.45484907363E+01  0.40659141063E+02  0.00000000000E+00 0. -1.
         11    1    3    3    0    0  0.22519107811E+01  0.11071972154E+01 -0.95342937454E+01  0.98589931192E+01  0.51100000000E-03 0. -1.
        -11    1    3    3    0    0  0.26420996333E+02 -0.28748078977E+01  0.19789561418E+01  0.26650512853E+02  0.51100000000E-03 0.  1.
         12    1    3    3    0    0  0.11284778916E+02  0.77559586293E+01  0.30068468674E+01  0.14019352964E+02  0.00000000000E+00 0. -1.
</event>
<event>
 7    1  0.5946946E-013  0.5052885E+02  0.7816164E-02  0.1300439E+00
        -11   -1    0    0    0    0  0.00000000000E+00  0.00000000000E+00  0.45593999997E+02  0.45594000000E+02  0.51100000000E-03 0.  1.
         11   -1    0    0    0    0 -0.00000000000E+00 -0.00000000000E+00 -0.45593999997E+02  0.45594000000E+02  0.51100000000E-03 0. -1.
    9900012    2    1    2    0    0  0.14117403756E+02  0.29588038580E+02  0.24050218520E+02  0.50528854329E+02  0.29999983218E+02 0.  0.
         12    1    1    2    0    0 -0.14117403756E+02 -0.29588038580E+02 -0.24050218520E+02  0.40659145671E+02  0.00000000000E+00 0. -1.
         11    1    3    3    0    0  0.36114151350E+01  0.29024931320E+02  0.18869079221E+02  0.34807055439E+02  0.51100000000E-03 0. -1.
        -11    1    3    3    0    0  0.46811553909E+01 -0.43821305711E+01  0.49097938517E+01  0.80760361604E+01  0.51100000000E-03 0.  1.
         12    1    3    3    0    0  0.58248332302E+01  0.49452378316E+01  0.27134544747E+00  0.76457627299E+01  0.00000000000E+00 0. -1.
</event>
<event>
 7    1  0.5946946E-013  0.5052885E+02  0.7816164E-02  0.1300439E+00
        -11   -1    0    0    0    0  0.00000000000E+00  0.00000000000E+00  0.45593999997E+02  0.45594000000E+02  0.51100000000E-03 0.  1.
         11   -1    0    0    0    0 -0.00000000000E+00 -0.00000000000E+00 -0.45593999997E+02  0.45594000000E+02  0.51100000000E-03 0. -1.
    9900012    2    1    2    0    0 -0.30185254033E+01  0.10582034149E+02  0.39141741002E+02  0.50528845668E+02  0.29999956891E+02 0.  0.
         12    1    1    2    0    0  0.30185254033E+01 -0.10582034149E+02 -0.39141741002E+02  0.40659154332E+02  0.00000000000E+00 0. -1.
         11    1    3    3    0    0 -0.12644593491E+02  0.54101545716E+01  0.70645174748E+01  0.15461659822E+02  0.51100000000E-03 0. -1.
        -11    1    3    3    0    0  0.27855916343E+01  0.65912694057E+01  0.17312923930E+02  0.18733437709E+02  0.51100000000E-03 0.  1.
         12    1    3    3    0    0  0.68404764532E+01 -0.14193898283E+01  0.14764299597E+02  0.16333748136E+02  0.00000000000E+00 0. -1.
</event>
<event>
 7    1  0.5946946E-013  0.5052888E+02  0.7816164E-02  0.1300439E+00
        -11   -1    0    0    0    0  0.00000000000E+00  0.00000000000E+00  0.45593999997E+02  0.45594000000E+02  0.51100000000E-03 0. -1.
         11   -1    0    0    0    0 -0.00000000000E+00 -0.00000000000E+00 -0.45593999997E+02  0.45594000000E+02  0.51100000000E-03 0.  1.
    9900012    2    1    2    0    0  0.34651348475E+02  0.13361253530E+02 -0.16550684759E+02  0.50528877862E+02  0.30000054749E+02 0.  0.
         12    1    1    2    0    0 -0.34651348475E+02 -0.13361253530E+02  0.16550684759E+02  0.40659122138E+02  0.00000000000E+00 0. -1.
         11    1    3    3    0    0  0.15414084870E+02  0.87432843699E+01 -0.44771576151E-01  0.17721203083E+02  0.51100000000E-03 0. -1.
        -11    1    3    3    0    0  0.43204780971E+01  0.45589857574E+01 -0.16749850860E+02  0.17888778220E+02  0.51100000000E-03 0.  1.
         12    1    3    3    0    0  0.14916785508E+02  0.58983402877E-01  0.24393767715E+00  0.14918896558E+02  0.00000000000E+00 0. -1.
</event>
<event>
 7    1  0.5946946E-013  0.5052886E+02  0.7816164E-02  0.1300439E+00
        -11   -1    0    0    0    0  0.00000000000E+00  0.00000000000E+00  0.45593999997E+02  0.45594000000E+02  0.51100000000E-03 0. -1.
         11   -1    0    0    0    0 -0.00000000000E+00 -0.00000000000E+00 -0.45593999997E+02  0.45594000000E+02  0.51100000000E-03 0.  1.
    9900012    2    1    2    0    0 -0.22419495239E+00 -0.40161214291E+02  0.63397663362E+01  0.50528855470E+02  0.29999986687E+02 0.  0.
         12    1    1    2    0    0  0.22419495239E+00  0.40161214291E+02 -0.63397663362E+01  0.40659144530E+02  0.00000000000E+00 0. -1.
         11    1    3    3    0    0 -0.15220941222E+01 -0.13535635733E+02  0.10896236107E+02  0.17442997643E+02  0.51100000000E-03 0. -1.
        -11    1    3    3    0    0  0.75648352229E+00 -0.29534833511E+02 -0.53433392327E+01  0.30023822746E+02  0.51100000000E-03 0.  1.
        -12    1    3    3    0    0  0.54141564756E+00  0.29092549535E+01  0.78686946167E+00  0.30620350810E+01  0.00000000000E+00 0.  1.
</event>
<event>
 7    1  0.5946946E-013  0.5052886E+02  0.7816164E-02  0.1300439E+00
        -11   -1    0    0    0    0  0.00000000000E+00  0.00000000000E+00  0.45593999997E+02  0.45594000000E+02  0.51100000000E-03 0.  1.
         11   -1    0    0    0    0 -0.00000000000E+00 -0.00000000000E+00 -0.45593999997E+02  0.45594000000E+02  0.51100000000E-03 0. -1.
    9900012    2    1    2    0    0 -0.39730304875E+02 -0.36168518835E+01  0.78477361854E+01  0.50528859499E+02  0.29999998934E+02 0.  0.
         12    1    1    2    0    0  0.39730304875E+02  0.36168518835E+01 -0.78477361854E+01  0.40659140501E+02  0.00000000000E+00 0. -1.
         11    1    3    3    0    0  0.29752550397E+01  0.39556185381E+01 -0.19034394404E+01  0.53030314476E+01  0.51100000000E-03 0. -1.
        -11    1    3    3    0    0 -0.21024517211E+02 -0.37825755561E+01  0.90635328203E+01  0.23205297439E+02  0.51100000000E-03 0.  1.
        -12    1    3    3    0    0 -0.21681042704E+02 -0.37898948654E+01  0.68764280547E+00  0.22020530613E+02  0.00000000000E+00 0.  1.
</event>
<event>
 7    1  0.5946946E-013  0.5052886E+02  0.7816164E-02  0.1300439E+00
        -11   -1    0    0    0    0  0.00000000000E+00  0.00000000000E+00  0.45593999997E+02  0.45594000000E+02  0.51100000000E-03 0. -1.
         11   -1    0    0    0    0 -0.00000000000E+00 -0.00000000000E+00 -0.45593999997E+02  0.45594000000E+02  0.51100000000E-03 0.  1.
    9900012    2    1    2    0    0 -0.19974603620E+01  0.16316912082E+02 -0.37187817808E+02  0.50528864974E+02  0.30000015575E+02 0.  0.
         12    1    1    2    0    0  0.19974603620E+01 -0.16316912082E+02  0.37187817808E+02  0.40659135026E+02  0.00000000000E+00 0. -1.
         11    1    3    3    0    0 -0.10152396066E+01 -0.26929063609E+01  0.68214389755E+00  0.29576640589E+01  0.51100000000E-03 0. -1.
        -11    1    3    3    0    0 -0.99211556511E+01  0.14994102308E+02 -0.30117877503E+02  0.35076188205E+02  0.51100000000E-03 0.  1.
        -12    1    3    3    0    0  0.89389348957E+01  0.40157161346E+01 -0.77520842023E+01  0.12495012710E+02  0.00000000000E+00 0.  1.
</event>
<event>
 7    1  0.5946946E-013  0.5052887E+02  0.7816164E-02  0.1300439E+00
        -11   -1    0    0    0    0  0.00000000000E+00  0.00000000000E+00  0.45593999997E+02  0.45594000000E+02  0.51100000000E-03 0. -1.
         11   -1    0    0    0    0 -0.00000000000E+00 -0.00000000000E+00 -0.45593999997E+02  0.45594000000E+02  0.51100000000E-03 0.  1.
    9900012    2    1    2    0    0 -0.19043162570E+02 -0.19105730394E+02 -0.30421929395E+02  0.50528871103E+02  0.30000034204E+02 0.  0.
         12    1    1    2    0    0  0.19043162570E+02  0.19105730394E+02  0.30421929395E+02  0.40659128897E+02  0.00000000000E+00 0. -1.
         11    1    3    3    0    0  0.17495401839E+01 -0.10314638796E+02 -0.60757774378E+01  0.12098253431E+02  0.51100000000E-03 0. -1.
        -11    1    3    3    0    0 -0.16503454312E+02 -0.36417403402E+01 -0.26465783473E+02  0.31401655562E+02  0.51100000000E-03 0.  1.
        -12    1    3    3    0    0 -0.42892484419E+01 -0.51493512584E+01  0.21196315158E+01  0.70289621099E+01  0.00000000000E+00 0.  1.
</event>
<event>
 7    1  0.5946946E-013  0.5052885E+02  0.7816164E-02  0.1300439E+00
        -11   -1    0    0    0    0  0.00000000000E+00  0.00000000000E+00  0.45593999997E+02  0.45594000000E+02  0.51100000000E-03 0.  1.
         11   -1    0    0    0    0 -0.00000000000E+00 -0.00000000000E+00 -0.45593999997E+02  0.45594000000E+02  0.51100000000E-03 0. -1.
    9900012    2    1    2    0    0  0.17858276157E+02 -0.28266206496E+01  0.36417829336E+02  0.50528854595E+02  0.29999984026E+02 0.  0.
         12    1    1    2    0    0 -0.17858276157E+02  0.28266206496E+01 -0.36417829336E+02  0.40659145405E+02  0.00000000000E+00 0. -1.
         11    1    3    3    0    0 -0.29656944722E+01  0.39285459327E+01  0.49938670209E+01  0.70119558563E+01  0.51100000000E-03 0. -1.
        -11    1    3    3    0    0  0.17929628409E+02  0.41723022205E+01  0.15974581183E+02  0.24373488157E+02  0.51100000000E-03 0.  1.
        -12    1    3    3    0    0  0.28943422193E+01 -0.10927468803E+02  0.15449381132E+02  0.19143410581E+02  0.00000000000E+00 0.  1.
</event>
<event>
 7    1  0.5946946E-013  0.5052886E+02  0.7816164E-02  0.1300439E+00
        -11   -1    0    0    0    0  0.00000000000E+00  0.00000000000E+00  0.45593999997E+02  0.45594000000E+02  0.51100000000E-03 0.  1.
         11   -1    0    0    0    0 -0.00000000000E+00 -0.00000000000E+00 -0.45593999997E+02  0.45594000000E+02  0.51100000000E-03 0. -1.
    9900012    2    1    2    0    0  0.34711666585E+02  0.59359247644E+01 -0.20323150061E+02  0.50528862918E+02  0.30000009325E+02 0.  0.
         12    1    1    2    0    0 -0.34711666585E+02 -0.59359247644E+01  0.20323150061E+02  0.40659137082E+02  0.00000000000E+00 0. -1.
         11    1    3    3    0    0 -0.38387870933E+01  0.14260378699E+01  0.14435453911E+01  0.43420840516E+01  0.51100000000E-03 0. -1.
        -11    1    3    3    0    0  0.15728999188E+02  0.15954115689E+01 -0.15946432403E+02  0.22455187823E+02  0.51100000000E-03 0.  1.
         12    1    3    3    0    0  0.22821454490E+02  0.29144753257E+01 -0.58202630484E+01  0.23731591043E+02  0.00000000000E+00 0. -1.
</event>
<event>
 7    1  0.5946946E-013  0.5052886E+02  0.7816164E-02  0.1300439E+00
        -11   -1    0    0    0    0  0.00000000000E+00  0.00000000000E+00  0.45593999997E+02  0.45594000000E+02  0.51100000000E-03 0.  1.
         11   -1    0    0    0    0 -0.00000000000E+00 -0.00000000000E+00 -0.45593999997E+02  0.45594000000E+02  0.51100000000E-03 0. -1.
    9900012    2    1    2    0    0  0.60427413552E+01  0.36585545586E+02 -0.16677793877E+02  0.50528859853E+02  0.30000000010E+02 0.  0.
         12    1    1    2    0    0 -0.60427413552E+01 -0.36585545586E+02  0.16677793877E+02  0.40659140147E+02  0.00000000000E+00 0. -1.
         11    1    3    3    0    0 -0.66607906053E+01  0.13199453004E+00 -0.31442881126E+01  0.73668244203E+01  0.51100000000E-03 0. -1.
        -11    1    3    3    0    0  0.10347529499E+02  0.25893438900E+02 -0.15882249383E+02  0.32090300567E+02  0.51100000000E-03 0.  1.
         12    1    3    3    0    0  0.23560024618E+01  0.10560112156E+02  0.23487436187E+01  0.11071734866E+02  0.00000000000E+00 0. -1.
</event>
<event>
 7    1  0.5946946E-013  0.5052887E+02  0.7816164E-02  0.1300439E+00
        -11   -1    0    0    0    0  0.00000000000E+00  0.00000000000E+00  0.45593999997E+02  0.45594000000E+02  0.51100000000E-03 0.  1.
         11   -1    0    0    0    0 -0.00000000000E+00 -0.00000000000E+00 -0.45593999997E+02  0.45594000000E+02  0.51100000000E-03 0. -1.
    9900012    2    1    2    0    0 -0.18153245105E+02  0.70341773876E+01  0.35695170111E+02  0.50528866603E+02  0.30000020525E+02 0.  0.
         12    1    1    2    0    0  0.18153245105E+02 -0.70341773876E+01 -0.35695170111E+02  0.40659133397E+02  0.00000000000E+00 0. -1.
         11    1    3    3    0    0  0.29759931963E+01  0.38685492156E+00  0.22660397255E+02  0.22858254445E+02  0.51100000000E-03 0. -1.
        -11    1    3    3    0    0 -0.12864771469E+02  0.33355525529E+01  0.13247175471E+02  0.18764751904E+02  0.51100000000E-03 0.  1.
         12    1    3    3    0    0 -0.82644668330E+01  0.33117699132E+01 -0.21240261582E+00  0.89058602539E+01  0.00000000000E+00 0. -1.
</event>
<event>
 7    1  0.5946946E-013  0.5052886E+02  0.7816164E-02  0.1300439E+00
        -11   -1    0    0    0    0  0.00000000000E+00  0.00000000000E+00  0.45593999997E+02  0.45594000000E+02  0.51100000000E-03 0. -1.
         11   -1    0    0    0    0 -0.00000000000E+00 -0.00000000000E+00 -0.45593999997E+02  0.45594000000E+02  0.51100000000E-03 0.  1.
    9900012    2    1    2    0    0 -0.96086587211E+01  0.35877663959E+02 -0.16541835944E+02  0.50528862897E+02  0.30000009262E+02 0.  0.
         12    1    1    2    0    0  0.96086587211E+01 -0.35877663959E+02  0.16541835944E+02  0.40659137103E+02  0.00000000000E+00 0. -1.
         11    1    3    3    0    0 -0.43432777784E+01  0.30258975477E+02 -0.77583227377E+00  0.30578940053E+02  0.51100000000E-03 0. -1.
        -11    1    3    3    0    0 -0.31643905496E+01  0.81469608027E+01 -0.12938996259E+02  0.15614223077E+02  0.51100000000E-03 0.  1.
        -12    1    3    3    0    0 -0.21009903930E+01 -0.25282723210E+01 -0.28270074120E+01  0.43356997668E+01  0.00000000000E+00 0.  1.
</event>
<event>
 7    1  0.5946946E-013  0.5052888E+02  0.7816164E-02  0.1300439E+00
        -11   -1    0    0    0    0  0.00000000000E+00  0.00000000000E+00  0.45593999997E+02  0.45594000000E+02  0.51100000000E-03 0.  1.
         11   -1    0    0    0    0 -0.00000000000E+00 -0.00000000000E+00 -0.45593999997E+02  0.45594000000E+02  0.51100000000E-03 0. -1.
    9900012    2    1    2    0    0  0.28870558434E+02 -0.11666317300E+01  0.28605843142E+02  0.50528875123E+02  0.30000046425E+02 0.  0.
         12    1    1    2    0    0 -0.28870558434E+02  0.11666317300E+01 -0.28605843142E+02  0.40659124877E+02  0.00000000000E+00 0. -1.
         11    1    3    3    0    0  0.10682614234E+02 -0.54643539761E+01  0.25429500793E+02  0.28118266698E+02  0.51100000000E-03 0.  1.
        -11    1    3    3    0    0  0.91927684920E+01  0.16290221380E+01 -0.44284288538E+01  0.10333038665E+02  0.51100000000E-03 0. -1.
        -12    1    3    3    0    0  0.89951757074E+01  0.26687001081E+01  0.76047712030E+01  0.12077569761E+02  0.00000000000E+00 0.  1.
</event>
<event>
 7    1  0.5946946E-013  0.5052887E+02  0.7816164E-02  0.1300439E+00
        -11   -1    0    0    0    0  0.00000000000E+00  0.00000000000E+00  0.45593999997E+02  0.45594000000E+02  0.51100000000E-03 0.  1.
         11   -1    0    0    0    0 -0.00000000000E+00 -0.00000000000E+00 -0.45593999997E+02  0.45594000000E+02  0.51100000000E-03 0. -1.
    9900012    2    1    2    0    0  0.34176402379E+02  0.19285401505E+02  0.10640114810E+02  0.50528865308E+02  0.30000016589E+02 0.  0.
         12    1    1    2    0    0 -0.34176402379E+02 -0.19285401505E+02 -0.10640114810E+02  0.40659134692E+02  0.00000000000E+00 0. -1.
         11    1    3    3    0    0  0.16102435699E+02  0.22263878501E+02 -0.18316159128E+01  0.27537674892E+02  0.51100000000E-03 0. -1.
        -11    1    3    3    0    0  0.49371413122E+01 -0.69974665692E-03  0.67340188849E+01  0.83499925407E+01  0.51100000000E-03 0.  1.
         12    1    3    3    0    0  0.13136825367E+02 -0.29777772492E+01  0.57377118376E+01  0.14641197875E+02  0.00000000000E+00 0. -1.
</event>
<event>
 7    1  0.5946946E-013  0.5052887E+02  0.7816164E-02  0.1300439E+00
        -11   -1    0    0    0    0  0.00000000000E+00  0.00000000000E+00  0.45593999997E+02  0.45594000000E+02  0.51100000000E-03 0.  1.
         11   -1    0    0    0    0 -0.00000000000E+00 -0.00000000000E+00 -0.45593999997E+02  0.45594000000E+02  0.51100000000E-03 0. -1.
    9900012    2    1    2    0    0  0.16534637954E+02  0.50963571961E+01  0.36793993379E+02  0.50528867475E+02  0.30000023176E+02 0.  0.
         12    1    1    2    0    0 -0.16534637954E+02 -0.50963571961E+01 -0.36793993379E+02  0.40659132525E+02  0.00000000000E+00 0. -1.
         11    1    3    3    0    0 -0.29609396017E+01 -0.33648616444E+01 -0.98725467925E+00  0.45895674387E+01  0.51100000000E-03 0. -1.
        -11    1    3    3    0    0  0.65638548924E+01  0.10792238467E+02  0.14716369698E+02  0.19394023294E+02  0.51100000000E-03 0.  1.
         12    1    3    3    0    0  0.12931722663E+02 -0.23310196263E+01  0.23064878360E+02  0.26545276742E+02  0.00000000000E+00 0. -1.
</event>
<event>
 7    1  0.5946946E-013  0.5052886E+02  0.7816164E-02  0.1300439E+00
        -11   -1    0    0    0    0  0.00000000000E+00  0.00000000000E+00  0.45593999997E+02  0.45594000000E+02  0.51100000000E-03 0.  1.
         11   -1    0    0    0    0 -0.00000000000E+00 -0.00000000000E+00 -0.45593999997E+02  0.45594000000E+02  0.51100000000E-03 0. -1.
    9900012    2    1    2    0    0  0.18153225762E+02  0.38893136122E+01  0.36173185438E+02  0.50528859444E+02  0.29999998767E+02 0.  0.
         12    1    1    2    0    0 -0.18153225762E+02 -0.38893136122E+01 -0.36173185438E+02  0.40659140556E+02  0.00000000000E+00 0. -1.
         11    1    3    3    0    0  0.66766577375E+01  0.11976702737E+02  0.73283500264E+01  0.15547471864E+02  0.51100000000E-03 0. -1.
        -11    1    3    3    0    0  0.10154432331E+02 -0.17412556600E+00  0.89765474650E+01  0.13554380116E+02  0.51100000000E-03 0.  1.
         12    1    3    3    0    0  0.13221356937E+01 -0.79132635585E+01  0.19868287947E+02  0.21427007464E+02  0.00000000000E+00 0. -1.
</event>
<event>
 7    1  0.5946946E-013  0.5052889E+02  0.7816164E-02  0.1300439E+00
        -11   -1    0    0    0    0  0.00000000000E+00  0.00000000000E+00  0.45593999997E+02  0.45594000000E+02  0.51100000000E-03 0.  1.
         11   -1    0    0    0    0 -0.00000000000E+00 -0.00000000000E+00 -0.45593999997E+02  0.45594000000E+02  0.51100000000E-03 0. -1.
    9900012    2    1    2    0    0  0.36419657381E+02  0.57523290214E+01  0.17137163176E+02  0.50528891615E+02  0.30000096554E+02 0.  0.
         12    1    1    2    0    0 -0.36419657381E+02 -0.57523290214E+01 -0.17137163176E+02  0.40659108385E+02  0.00000000000E+00 0. -1.
         11    1    3    3    0    0  0.14032011398E+02 -0.56153137904E+01 -0.22295151684E+01  0.15277428808E+02  0.51100000000E-03 0. -1.
        -11    1    3    3    0    0  0.21059487017E+02  0.14095688295E+02  0.13660831324E+02  0.28789038447E+02  0.51100000000E-03 0.  1.
        -12    1    3    3    0    0  0.13281589657E+01 -0.27280454834E+01  0.57058470203E+01  0.64624243607E+01  0.00000000000E+00 0.  1.
</event>
<event>
 7    1  0.5946946E-013  0.5052885E+02  0.7816164E-02  0.1300439E+00
        -11   -1    0    0    0    0  0.00000000000E+00  0.00000000000E+00  0.45593999997E+02  0.45594000000E+02  0.51100000000E-03 0.  1.
         11   -1    0    0    0    0 -0.00000000000E+00 -0.00000000000E+00 -0.45593999997E+02  0.45594000000E+02  0.51100000000E-03 0. -1.
    9900012    2    1    2    0    0  0.54963889799E+01  0.30498734731E+02  0.26320775619E+02  0.50528851691E+02  0.29999975200E+02 0.  0.
         12    1    1    2    0    0 -0.54963889799E+01 -0.30498734731E+02 -0.26320775619E+02  0.40659148309E+02  0.00000000000E+00 0. -1.
         11    1    3    3    0    0 -0.69507456619E+00 -0.55191992041E+01  0.57368497074E+01  0.79910032745E+01  0.51100000000E-03 0. -1.
        -11    1    3    3    0    0  0.16309947074E+01  0.73329999538E+01  0.11722558004E+01  0.76031056799E+01  0.51100000000E-03 0.  1.
         12    1    3    3    0    0  0.45604688387E+01  0.28684933982E+02  0.19411670111E+02  0.34934742737E+02  0.00000000000E+00 0. -1.
</event>
<event>
 7    1  0.5946946E-013  0.5052887E+02  0.7816164E-02  0.1300439E+00
        -11   -1    0    0    0    0  0.00000000000E+00  0.00000000000E+00  0.45593999997E+02  0.45594000000E+02  0.51100000000E-03 0.  1.
         11   -1    0    0    0    0 -0.00000000000E+00 -0.00000000000E+00 -0.45593999997E+02  0.45594000000E+02  0.51100000000E-03 0. -1.
    9900012    2    1    2    0    0  0.22752412945E+01  0.31513352220E+02  0.25590955706E+02  0.50528866892E+02  0.30000021406E+02 0.  0.
         12    1    1    2    0    0 -0.22752412945E+01 -0.31513352220E+02 -0.25590955706E+02  0.40659133108E+02  0.00000000000E+00 0. -1.
         11    1    3    3    0    0 -0.85676519776E+01  0.17232500721E+01  0.12163329490E+02  0.14977344082E+02  0.51100000000E-03 0. -1.
        -11    1    3    3    0    0  0.82609570054E+01  0.10069841455E+02  0.50150486507E+01  0.13956927699E+02  0.51100000000E-03 0.  1.
         12    1    3    3    0    0  0.25819362666E+01  0.19720260694E+02  0.84125775656E+01  0.21594595111E+02  0.00000000000E+00 0. -1.
</event>
<event>
 7    1  0.5946946E-013  0.5052886E+02  0.7816164E-02  0.1300439E+00
        -11   -1    0    0    0    0  0.00000000000E+00  0.00000000000E+00  0.45593999997E+02  0.45594000000E+02  0.51100000000E-03 0.  1.
         11   -1    0    0    0    0 -0.00000000000E+00 -0.00000000000E+00 -0.45593999997E+02  0.45594000000E+02  0.51100000000E-03 0. -1.
    9900012    2    1    2    0    0  0.27852516598E+02 -0.22487955394E+02  0.19279391980E+02  0.50528858669E+02  0.29999996410E+02 0.  0.
         12    1    1    2    0    0 -0.27852516598E+02  0.22487955394E+02 -0.19279391980E+02  0.40659141331E+02  0.00000000000E+00 0. -1.
         11    1    3    3    0    0  0.45740889522E+01 -0.88558614050E+01  0.43694289829E+01  0.10883036381E+02  0.51100000000E-03 0.  1.
        -11    1    3    3    0    0  0.75439632847E+01 -0.51517407330E+01 -0.68992313617E+01  0.11447759967E+02  0.51100000000E-03 0. -1.
        -12    1    3    3    0    0  0.15734464361E+02 -0.84803532565E+01  0.21809194359E+02  0.28198062321E+02  0.00000000000E+00 0.  1.
</event>
<event>
 7    1  0.5946946E-013  0.5052886E+02  0.7816164E-02  0.1300439E+00
        -11   -1    0    0    0    0  0.00000000000E+00  0.00000000000E+00  0.45593999997E+02  0.45594000000E+02  0.51100000000E-03 0.  1.
         11   -1    0    0    0    0 -0.00000000000E+00 -0.00000000000E+00 -0.45593999997E+02  0.45594000000E+02  0.51100000000E-03 0. -1.
    9900012    2    1    2    0    0  0.18904091118E+02 -0.32392374639E+02  0.15701425881E+02  0.50528863628E+02  0.30000011484E+02 0.  0.
         12    1    1    2    0    0 -0.18904091118E+02  0.32392374639E+02 -0.15701425881E+02  0.40659136372E+02  0.00000000000E+00 0. -1.
         11    1    3    3    0    0  0.19226941866E+02 -0.27734505608E+02  0.18508267666E+02  0.38489402010E+02  0.51100000000E-03 0. -1.
        -11    1    3    3    0    0  0.44140973538E+01 -0.53116841677E+01 -0.19987862351E+01  0.71898115984E+01  0.51100000000E-03 0.  1.
         12    1    3    3    0    0 -0.47369481012E+01  0.65381513620E+00 -0.80805554926E+00  0.48496500200E+01  0.00000000000E+00 0. -1.
</event>
<event>
 7    1  0.5946946E-013  0.5052889E+02  0.7816164E-02  0.1300439E+00
        -11   -1    0    0    0    0  0.00000000000E+00  0.00000000000E+00  0.45593999997E+02  0.45594000000E+02  0.51100000000E-03 0.  1.
         11   -1    0    0    0    0 -0.00000000000E+00 -0.00000000000E+00 -0.45593999997E+02  0.45594000000E+02  0.51100000000E-03 0. -1.
    9900012    2    1    2    0    0 -0.83970539936E-01 -0.27982342350E+01  0.40562619804E+02  0.50528889197E+02  0.30000089204E+02 0.  0.
         12    1    1    2    0    0  0.83970539936E-01  0.27982342350E+01 -0.40562619804E+02  0.40659110803E+02  0.00000000000E+00 0. -1.
         11    1    3    3    0    0 -0.36020254942E+01  0.79289990826E+01  0.24525971194E+02  0.26026272829E+02  0.51100000000E-03 0.  1.
        -11    1    3    3    0    0 -0.54405328696E+00 -0.60190288154E+01 -0.12149907789E+01  0.61644873845E+01  0.51100000000E-03 0. -1.
        -12    1    3    3    0    0  0.40621082412E+01 -0.47082045022E+01  0.17251639389E+02  0.18338128984E+02  0.00000000000E+00 0.  1.
</event>
<event>
 7    1  0.5946946E-013  0.5052886E+02  0.7816164E-02  0.1300439E+00
        -11   -1    0    0    0    0  0.00000000000E+00  0.00000000000E+00  0.45593999997E+02  0.45594000000E+02  0.51100000000E-03 0.  1.
         11   -1    0    0    0    0 -0.00000000000E+00 -0.00000000000E+00 -0.45593999997E+02  0.45594000000E+02  0.51100000000E-03 0. -1.
    9900012    2    1    2    0    0  0.18267876518E+02  0.14085462302E+02  0.33482080307E+02  0.50528864957E+02  0.30000015525E+02 0.  0.
         12    1    1    2    0    0 -0.18267876518E+02 -0.14085462302E+02 -0.33482080307E+02  0.40659135043E+02  0.00000000000E+00 0. -1.
         11    1    3    3    0    0  0.43564133272E+01  0.19027962165E+01 -0.32123538224E+01  0.57374373949E+01  0.51100000000E-03 0. -1.
        -11    1    3    3    0    0  0.11620657457E+02  0.16147427470E+02  0.34230157885E+02  0.39591448606E+02  0.51100000000E-03 0.  1.
        -12    1    3    3    0    0  0.22908057344E+01 -0.39647613837E+01  0.24642762435E+01  0.51999789564E+01  0.00000000000E+00 0.  1.
</event>
<event>
 7    1  0.5946946E-013  0.5052887E+02  0.7816164E-02  0.1300439E+00
        -11   -1    0    0    0    0  0.00000000000E+00  0.00000000000E+00  0.45593999997E+02  0.45594000000E+02  0.51100000000E-03 0.  1.
         11   -1    0    0    0    0 -0.00000000000E+00 -0.00000000000E+00 -0.45593999997E+02  0.45594000000E+02  0.51100000000E-03 0. -1.
    9900012    2    1    2    0    0 -0.86655477557E+01 -0.39189044080E+02  0.65032329968E+01  0.50528869005E+02  0.30000027828E+02 0.  0.
         12    1    1    2    0    0  0.86655477557E+01  0.39189044080E+02 -0.65032329968E+01  0.40659130995E+02  0.00000000000E+00 0. -1.
         11    1    3    3    0    0 -0.97995958053E+01 -0.96773469991E+01 -0.92708960419E+01  0.16602187704E+02  0.51100000000E-03 0. -1.
        -11    1    3    3    0    0  0.43208486328E+00 -0.77368841610E+01  0.69917824716E+01  0.10437006096E+02  0.51100000000E-03 0.  1.
         12    1    3    3    0    0  0.70196318635E+00 -0.21774812920E+02  0.87823465671E+01  0.23489675205E+02  0.00000000000E+00 0. -1.
</event>
<event>
 7    1  0.5946946E-013  0.5052886E+02  0.7816164E-02  0.1300439E+00
        -11   -1    0    0    0    0  0.00000000000E+00  0.00000000000E+00  0.45593999997E+02  0.45594000000E+02  0.51100000000E-03 0. -1.
         11   -1    0    0    0    0 -0.00000000000E+00 -0.00000000000E+00 -0.45593999997E+02  0.45594000000E+02  0.51100000000E-03 0.  1.
    9900012    2    1    2    0    0 -0.15056194763E+02 -0.37755448434E+02  0.10014622585E+01  0.50528858177E+02  0.29999994914E+02 0.  0.
         12    1    1    2    0    0  0.15056194763E+02  0.37755448434E+02 -0.10014622585E+01  0.40659141823E+02  0.00000000000E+00 0. -1.
         11    1    3    3    0    0 -0.10659272809E+02 -0.29374974992E+02  0.11388821268E+02  0.33259803107E+02  0.51100000000E-03 0. -1.
        -11    1    3    3    0    0 -0.62786122826E+01 -0.14858454982E+01 -0.63877591993E+01  0.90792167552E+01  0.51100000000E-03 0.  1.
         12    1    3    3    0    0  0.18816903288E+01 -0.68946279437E+01 -0.39995998104E+01  0.81898383146E+01  0.00000000000E+00 0. -1.
</event>
<event>
 7    1  0.5946946E-013  0.5052886E+02  0.7816164E-02  0.1300439E+00
        -11   -1    0    0    0    0  0.00000000000E+00  0.00000000000E+00  0.45593999997E+02  0.45594000000E+02  0.51100000000E-03 0.  1.
         11   -1    0    0    0    0 -0.00000000000E+00 -0.00000000000E+00 -0.45593999997E+02  0.45594000000E+02  0.51100000000E-03 0. -1.
    9900012    2    1    2    0    0  0.26705521504E+02  0.21470387696E+02  0.21886144096E+02  0.50528859207E+02  0.29999998046E+02 0.  0.
         12    1    1    2    0    0 -0.26705521504E+02 -0.21470387696E+02 -0.21886144096E+02  0.40659140793E+02  0.00000000000E+00 0. -1.
         11    1    3    3    0    0  0.18104377574E+02  0.21368975593E+02  0.52904233989E+01  0.28502459284E+02  0.51100000000E-03 0. -1.
        -11    1    3    3    0    0  0.46172882030E+01 -0.55697140282E+01  0.61761983096E+01  0.95124387266E+01  0.51100000000E-03 0.  1.
         12    1    3    3    0    0  0.39838557269E+01  0.56711261307E+01  0.10419522387E+02  0.12513961196E+02  0.00000000000E+00 0. -1.
</event>
<event>
 7    1  0.5946946E-013  0.5052885E+02  0.7816164E-02  0.1300439E+00
        -11   -1    0    0    0    0  0.00000000000E+00  0.00000000000E+00  0.45593999997E+02  0.45594000000E+02  0.51100000000E-03 0.  1.
         11   -1    0    0    0    0 -0.00000000000E+00 -0.00000000000E+00 -0.45593999997E+02  0.45594000000E+02  0.51100000000E-03 0. -1.
    9900012    2    1    2    0    0  0.26366596481E+02  0.19700307379E+02  0.23871890464E+02  0.50528847584E+02  0.29999962717E+02 0.  0.
         12    1    1    2    0    0 -0.26366596481E+02 -0.19700307379E+02 -0.23871890464E+02  0.40659152416E+02  0.00000000000E+00 0. -1.
         11    1    3    3    0    0 -0.60971653881E+01  0.27688325983E+01  0.48378119334E+01  0.82611309329E+01  0.51100000000E-03 0. -1.
        -11    1    3    3    0    0  0.17680941009E+01 -0.76088163266E+00  0.25402598968E+01  0.31871646040E+01  0.51100000000E-03 0.  1.
         12    1    3    3    0    0  0.30695667768E+02  0.17692356414E+02  0.16493818634E+02  0.39080552047E+02  0.00000000000E+00 0. -1.
</event>
<event>
 7    1  0.5946946E-013  0.5052885E+02  0.7816164E-02  0.1300439E+00
        -11   -1    0    0    0    0  0.00000000000E+00  0.00000000000E+00  0.45593999997E+02  0.45594000000E+02  0.51100000000E-03 0.  1.
         11   -1    0    0    0    0 -0.00000000000E+00 -0.00000000000E+00 -0.45593999997E+02  0.45594000000E+02  0.51100000000E-03 0. -1.
    9900012    2    1    2    0    0 -0.39813714800E+02  0.18167819018E+01 -0.80457280725E+01  0.50528851917E+02  0.29999975886E+02 0.  0.
         12    1    1    2    0    0  0.39813714800E+02 -0.18167819018E+01  0.80457280725E+01  0.40659148083E+02  0.00000000000E+00 0. -1.
         11    1    3    3    0    0  0.26609948713E+01 -0.95994358484E+00  0.61645065394E+00  0.28952369611E+01  0.51100000000E-03 0. -1.
        -11    1    3    3    0    0 -0.33917948369E+02  0.60032298105E+01 -0.13843548932E+02  0.37122901786E+02  0.51100000000E-03 0.  1.
        -12    1    3    3    0    0 -0.85567613024E+01 -0.32265043238E+01  0.51813702055E+01  0.10510713170E+02  0.00000000000E+00 0.  1.
</event>
<event>
 7    1  0.5946946E-013  0.5052886E+02  0.7816164E-02  0.1300439E+00
        -11   -1    0    0    0    0  0.00000000000E+00  0.00000000000E+00  0.45593999997E+02  0.45594000000E+02  0.51100000000E-03 0.  1.
         11   -1    0    0    0    0 -0.00000000000E+00 -0.00000000000E+00 -0.45593999997E+02  0.45594000000E+02  0.51100000000E-03 0. -1.
    9900012    2    1    2    0    0  0.13730626436E+02  0.13204416845E+01  0.38247775054E+02  0.50528856316E+02  0.29999989257E+02 0.  0.
         12    1    1    2    0    0 -0.13730626436E+02 -0.13204416845E+01 -0.38247775054E+02  0.40659143684E+02  0.00000000000E+00 0. -1.
         11    1    3    3    0    0  0.64110227051E+01 -0.32012513784E+00 -0.24773300685E+01  0.68804692252E+01  0.51100000000E-03 0. -1.
        -11    1    3    3    0    0  0.10352490505E+02 -0.10278792806E+01  0.35786689991E+02  0.37268187188E+02  0.51100000000E-03 0.  1.
         12    1    3    3    0    0 -0.30328867740E+01  0.26684461030E+01  0.49384151315E+01  0.63801999028E+01  0.00000000000E+00 0. -1.
</event>
<event>
 7    1  0.5946946E-013  0.5052886E+02  0.7816164E-02  0.1300439E+00
        -11   -1    0    0    0    0  0.00000000000E+00  0.00000000000E+00  0.45593999997E+02  0.45594000000E+02  0.51100000000E-03 0. -1.
         11   -1    0    0    0    0 -0.00000000000E+00 -0.00000000000E+00 -0.45593999997E+02  0.45594000000E+02  0.51100000000E-03 0.  1.
    9900012    2    1    2    0    0  0.52243335166E+01 -0.26346677493E+02  0.30524168383E+02  0.50528856734E+02  0.29999990530E+02 0.  0.
         12    1    1    2    0    0 -0.52243335166E+01  0.26346677493E+02 -0.30524168383E+02  0.40659143266E+02  0.00000000000E+00 0. -1.
         11    1    3    3    0    0 -0.60253032730E+01  0.14281334570E+01  0.11736438336E+02  0.13269808958E+02  0.51100000000E-03 0. -1.
        -11    1    3    3    0    0  0.47397733280E+01 -0.17189559091E+02  0.46324591649E+01  0.18422976717E+02  0.51100000000E-03 0.  1.
         12    1    3    3    0    0  0.65098634616E+01 -0.10585251859E+02  0.14155270882E+02  0.18836071059E+02  0.00000000000E+00 0. -1.
</event>
<event>
 7    1  0.5946946E-013  0.5052887E+02  0.7816164E-02  0.1300439E+00
        -11   -1    0    0    0    0  0.00000000000E+00  0.00000000000E+00  0.45593999997E+02  0.45594000000E+02  0.51100000000E-03 0.  1.
         11   -1    0    0    0    0 -0.00000000000E+00 -0.00000000000E+00 -0.45593999997E+02  0.45594000000E+02  0.51100000000E-03 0. -1.
    9900012    2    1    2    0    0  0.16438108606E+02  0.73604829276E+01  0.36452385655E+02  0.50528873800E+02  0.30000042401E+02 0.  0.
         12    1    1    2    0    0 -0.16438108606E+02 -0.73604829276E+01 -0.36452385655E+02  0.40659126200E+02  0.00000000000E+00 0. -1.
         11    1    3    3    0    0 -0.14477610929E+01  0.11955520524E+02  0.88513103890E+01  0.14945774622E+02  0.51100000000E-03 0. -1.
        -11    1    3    3    0    0  0.79573770092E+01 -0.64515413290E+01  0.63468690891E+01  0.12050932822E+02  0.51100000000E-03 0.  1.
         12    1    3    3    0    0  0.99284926893E+01  0.18565037325E+01  0.21254206177E+02  0.23532166356E+02  0.00000000000E+00 0. -1.
</event>
<event>
 7    1  0.5946946E-013  0.5052876E+02  0.7816164E-02  0.1300439E+00
        -11   -1    0    0    0    0  0.00000000000E+00  0.00000000000E+00  0.45593999997E+02  0.45594000000E+02  0.51100000000E-03 0.  1.
         11   -1    0    0    0    0 -0.00000000000E+00 -0.00000000000E+00 -0.45593999997E+02  0.45594000000E+02  0.51100000000E-03 0. -1.
    9900012    2    1    2    0    0 -0.27211984887E+02 -0.21104071944E+01  0.30136820662E+02  0.50528758742E+02  0.29999692671E+02 0.  0.
         12    1    1    2    0    0  0.27211984887E+02  0.21104071944E+01 -0.30136820662E+02  0.40659241258E+02  0.00000000000E+00 0. -1.
         11    1    3    3    0    0 -0.93280984944E+01 -0.11837101262E+02  0.28076739565E+01  0.15330147459E+02  0.51100000000E-03 0. -1.
        -11    1    3    3    0    0 -0.31160624811E+01  0.12461936069E+00  0.10053313622E+02  0.10525896181E+02  0.51100000000E-03 0.  1.
         12    1    3    3    0    0 -0.14767823912E+02  0.96020747071E+01  0.17275833084E+02  0.24672715102E+02  0.00000000000E+00 0. -1.
</event>
<event>
 7    1  0.5946946E-013  0.5052886E+02  0.7816164E-02  0.1300439E+00
        -11   -1    0    0    0    0  0.00000000000E+00  0.00000000000E+00  0.45593999997E+02  0.45594000000E+02  0.51100000000E-03 0. -1.
         11   -1    0    0    0    0 -0.00000000000E+00 -0.00000000000E+00 -0.45593999997E+02  0.45594000000E+02  0.51100000000E-03 0.  1.
    9900012    2    1    2    0    0  0.24494008826E+02  0.28677575701E+02  0.15192303184E+02  0.50528857209E+02  0.29999991973E+02 0.  0.
         12    1    1    2    0    0 -0.24494008826E+02 -0.28677575701E+02 -0.15192303184E+02  0.40659142791E+02  0.00000000000E+00 0. -1.
         11    1    3    3    0    0  0.52269232048E+01 -0.34492018818E+01  0.23299922047E+01  0.66818099154E+01  0.51100000000E-03 0. -1.
        -11    1    3    3    0    0  0.22714776720E+01  0.14104912968E+02 -0.27735669760E+01  0.14553379493E+02  0.51100000000E-03 0.  1.
        -12    1    3    3    0    0  0.16995607949E+02  0.18021864615E+02  0.15635877955E+02  0.29293667800E+02  0.00000000000E+00 0.  1.
</event>
<event>
 7    1  0.5946946E-013  0.5052886E+02  0.7816164E-02  0.1300439E+00
        -11   -1    0    0    0    0  0.00000000000E+00  0.00000000000E+00  0.45593999997E+02  0.45594000000E+02  0.51100000000E-03 0.  1.
         11   -1    0    0    0    0 -0.00000000000E+00 -0.00000000000E+00 -0.45593999997E+02  0.45594000000E+02  0.51100000000E-03 0. -1.
    9900012    2    1    2    0    0  0.36170589880E+02  0.54203744290E+01  0.17761567251E+02  0.50528864465E+02  0.30000014028E+02 0.  0.
         12    1    1    2    0    0 -0.36170589880E+02 -0.54203744290E+01 -0.17761567251E+02  0.40659135535E+02  0.00000000000E+00 0. -1.
         11    1    3    3    0    0 -0.24944276681E+01  0.38037894127E+01 -0.16509549832E+01  0.48390738685E+01  0.51100000000E-03 0. -1.
        -11    1    3    3    0    0  0.29018145167E+02 -0.45918273287E+01  0.10634379883E+02  0.31244642147E+02  0.51100000000E-03 0.  1.
        -12    1    3    3    0    0  0.96468723818E+01  0.62084123450E+01  0.87781423515E+01  0.14445148450E+02  0.00000000000E+00 0.  1.
</event>
<event>
 7    1  0.5946946E-013  0.5052886E+02  0.7816164E-02  0.1300439E+00
        -11   -1    0    0    0    0  0.00000000000E+00  0.00000000000E+00  0.45593999997E+02  0.45594000000E+02  0.51100000000E-03 0. -1.
         11   -1    0    0    0    0 -0.00000000000E+00 -0.00000000000E+00 -0.45593999997E+02  0.45594000000E+02  0.51100000000E-03 0.  1.
    9900012    2    1    2    0    0  0.52192090972E+01  0.12524191446E+02 -0.38328453010E+02  0.50528858038E+02  0.29999994492E+02 0.  0.
         12    1    1    2    0    0 -0.52192090972E+01 -0.12524191446E+02  0.38328453010E+02  0.40659141962E+02  0.00000000000E+00 0. -1.
         11    1    3    3    0    0  0.65038263162E+00  0.89689681089E+01 -0.37090069928E+01  0.97273901762E+01  0.51100000000E-03 0. -1.
        -11    1    3    3    0    0 -0.88352645407E+00 -0.20269132171E+01 -0.32688241918E+02  0.32762938759E+02  0.51100000000E-03 0.  1.
        -12    1    3    3    0    0  0.54523529196E+01  0.55821365537E+01 -0.19312040991E+01  0.80385291028E+01  0.00000000000E+00 0.  1.
</event>
<event>
 7    1  0.6754113E-013  0.5052883E+02  0.7816164E-02  0.1300439E+00
        -11   -1    0    0    0    0  0.00000000000E+00  0.00000000000E+00  0.45593999997E+02  0.45594000000E+02  0.51100000000E-03 0. -1.
         11   -1    0    0    0    0 -0.00000000000E+00 -0.00000000000E+00 -0.45593999997E+02  0.45594000000E+02  0.51100000000E-03 0.  1.
    9900012    2    1    2    0    0 -0.26273353209E+02 -0.14220769230E+02 -0.27579859938E+02  0.50528830794E+02  0.29999911681E+02 0.  0.
         12    1    1    2    0    0  0.26273353209E+02  0.14220769230E+02  0.27579859938E+02  0.40659169206E+02  0.00000000000E+00 0. -1.
         11    1    3    3    0    0  0.25607661003E+01 -0.52906826921E+01  0.51648708350E-01  0.58780536080E+01  0.51100000000E-03 0. -1.
        -11    1    3    3    0    0 -0.24120246880E+02 -0.48729024778E+01 -0.11113665052E+02  0.27000834047E+02  0.51100000000E-03 0.  1.
        -12    1    3    3    0    0 -0.47138724292E+01 -0.40571840600E+01 -0.16517843595E+02  0.17649943138E+02  0.00000000000E+00 0.  1.
</event>
<event>
 7    1  0.5946946E-013  0.5052886E+02  0.7816164E-02  0.1300439E+00
        -11   -1    0    0    0    0  0.00000000000E+00  0.00000000000E+00  0.45593999997E+02  0.45594000000E+02  0.51100000000E-03 0.  1.
         11   -1    0    0    0    0 -0.00000000000E+00 -0.00000000000E+00 -0.45593999997E+02  0.45594000000E+02  0.51100000000E-03 0. -1.
    9900012    2    1    2    0    0  0.18852395092E+02 -0.30975866255E+02  0.18391537181E+02  0.50528859197E+02  0.29999998016E+02 0.  0.
         12    1    1    2    0    0 -0.18852395092E+02  0.30975866255E+02 -0.18391537181E+02  0.40659140803E+02  0.00000000000E+00 0. -1.
         11    1    3    3    0    0  0.42143599962E+01 -0.27112921419E+01  0.10749742716E+02  0.11860392235E+02  0.51100000000E-03 0. -1.
        -11    1    3    3    0    0  0.11972468500E+02 -0.17266253727E+02 -0.51056618258E+01  0.21622472169E+02  0.51100000000E-03 0.  1.
        -12    1    3    3    0    0  0.26655665960E+01 -0.10998320385E+02  0.12747456291E+02  0.17045994793E+02  0.00000000000E+00 0.  1.
</event>
<event>
 7    1  0.5946946E-013  0.5052886E+02  0.7816164E-02  0.1300439E+00
        -11   -1    0    0    0    0  0.00000000000E+00  0.00000000000E+00  0.45593999997E+02  0.45594000000E+02  0.51100000000E-03 0.  1.
         11   -1    0    0    0    0 -0.00000000000E+00 -0.00000000000E+00 -0.45593999997E+02  0.45594000000E+02  0.51100000000E-03 0. -1.
    9900012    2    1    2    0    0  0.18179572437E+02 -0.74014276000E+00  0.36360978711E+02  0.50528862797E+02  0.30000008958E+02 0.  0.
         12    1    1    2    0    0 -0.18179572437E+02  0.74014276000E+00 -0.36360978711E+02  0.40659137203E+02  0.00000000000E+00 0. -1.
         11    1    3    3    0    0  0.22086445540E+02  0.64088275320E+01  0.16927487541E+02  0.28555629596E+02  0.51100000000E-03 0. -1.
        -11    1    3    3    0    0 -0.56807052762E+00  0.74028143869E+00  0.57793285373E+01  0.58541745222E+01  0.51100000000E-03 0.  1.
         12    1    3    3    0    0 -0.33388025749E+01 -0.78892517307E+01  0.13654162632E+02  0.16119058679E+02  0.00000000000E+00 0. -1.
</event>
<event>
 7    1  0.5946946E-013  0.5052885E+02  0.7816164E-02  0.1300439E+00
        -11   -1    0    0    0    0  0.00000000000E+00  0.00000000000E+00  0.45593999997E+02  0.45594000000E+02  0.51100000000E-03 0. -1.
         11   -1    0    0    0    0 -0.00000000000E+00 -0.00000000000E+00 -0.45593999997E+02  0.45594000000E+02  0.51100000000E-03 0.  1.
    9900012    2    1    2    0    0 -0.85597813390E+01 -0.11365932179E+02 -0.38088218529E+02  0.50528847751E+02  0.29999963225E+02 0.  0.
         12    1    1    2    0    0  0.85597813390E+01  0.11365932179E+02  0.38088218529E+02  0.40659152249E+02  0.00000000000E+00 0. -1.
         11    1    3    3    0    0 -0.96060373586E+01 -0.53628673550E+01 -0.16449029910E+02  0.19789059736E+02  0.51100000000E-03 0. -1.
        -11    1    3    3    0    0  0.69932124900E+01 -0.10264016986E+02 -0.19496817034E+02  0.23116680998E+02  0.51100000000E-03 0.  1.
        -12    1    3    3    0    0 -0.59469564704E+01  0.42609521628E+01 -0.21423715854E+01  0.76231070177E+01  0.00000000000E+00 0.  1.
</event>
<event>
 7    1  0.5946946E-013  0.5052887E+02  0.7816164E-02  0.1300439E+00
        -11   -1    0    0    0    0  0.00000000000E+00  0.00000000000E+00  0.45593999997E+02  0.45594000000E+02  0.51100000000E-03 0.  1.
         11   -1    0    0    0    0 -0.00000000000E+00 -0.00000000000E+00 -0.45593999997E+02  0.45594000000E+02  0.51100000000E-03 0. -1.
    9900012    2    1    2    0    0 -0.11340330119E+02 -0.21111470627E+02  0.32846117387E+02  0.50528871791E+02  0.30000036297E+02 0.  0.
         12    1    1    2    0    0  0.11340330119E+02  0.21111470627E+02 -0.32846117387E+02  0.40659128209E+02  0.00000000000E+00 0. -1.
         11    1    3    3    0    0 -0.94442792585E+01 -0.82424073628E+01  0.32029144624E+02  0.34394734996E+02  0.51100000000E-03 0. -1.
        -11    1    3    3    0    0 -0.52079465690E+00 -0.10196598776E+01  0.36904549227E+01  0.38639864309E+01  0.51100000000E-03 0.  1.
         12    1    3    3    0    0 -0.13752562040E+01 -0.11849403386E+02 -0.28734821594E+01  0.12270150364E+02  0.00000000000E+00 0. -1.
</event>
<event>
 7    1  0.5946946E-013  0.5052886E+02  0.7816164E-02  0.1300439E+00
        -11   -1    0    0    0    0  0.00000000000E+00  0.00000000000E+00  0.45593999997E+02  0.45594000000E+02  0.51100000000E-03 0. -1.
         11   -1    0    0    0    0 -0.00000000000E+00 -0.00000000000E+00 -0.45593999997E+02  0.45594000000E+02  0.51100000000E-03 0.  1.
    9900012    2    1    2    0    0 -0.68581579659E+01 -0.34278823457E+02 -0.20762789277E+02  0.50528862198E+02  0.30000007136E+02 0.  0.
         12    1    1    2    0    0  0.68581579659E+01  0.34278823457E+02  0.20762789277E+02  0.40659137802E+02  0.00000000000E+00 0. -1.
         11    1    3    3    0    0  0.10558974135E+02 -0.48355628192E+01 -0.56690070243E+01  0.12923321689E+02  0.51100000000E-03 0. -1.
        -11    1    3    3    0    0 -0.57458289314E+01 -0.65244524613E+01 -0.31356365585E+01  0.92420369463E+01  0.51100000000E-03 0.  1.
         12    1    3    3    0    0 -0.11671303170E+02 -0.22918808176E+02 -0.11958145695E+02  0.28363503563E+02  0.00000000000E+00 0. -1.
</event>
<event>
 7    1  0.5946946E-013  0.5052886E+02  0.7816164E-02  0.1300439E+00
        -11   -1    0    0    0    0  0.00000000000E+00  0.00000000000E+00  0.45593999997E+02  0.45594000000E+02  0.51100000000E-03 0.  1.
         11   -1    0    0    0    0 -0.00000000000E+00 -0.00000000000E+00 -0.45593999997E+02  0.45594000000E+02  0.51100000000E-03 0. -1.
    9900012    2    1    2    0    0  0.37364928366E+02 -0.13148735245E+02  0.91727087235E+01  0.50528859630E+02  0.29999999331E+02 0.  0.
         12    1    1    2    0    0 -0.37364928366E+02  0.13148735245E+02 -0.91727087235E+01  0.40659140370E+02  0.00000000000E+00 0. -1.
         11    1    3    3    0    0  0.25953268203E+02 -0.11292411545E+02 -0.46547664812E+01  0.28683750455E+02  0.51100000000E-03 0. -1.
        -11    1    3    3    0    0  0.13085560214E+02 -0.13842205044E+01  0.72130814815E+01  0.15005882088E+02  0.51100000000E-03 0.  1.
         12    1    3    3    0    0 -0.16739000519E+01 -0.47210319517E+00  0.66143937231E+01  0.68392270861E+01  0.00000000000E+00 0. -1.
</event>
<event>
 7    1  0.5946946E-013  0.5052886E+02  0.7816164E-02  0.1300439E+00
        -11   -1    0    0    0    0  0.00000000000E+00  0.00000000000E+00  0.45593999997E+02  0.45594000000E+02  0.51100000000E-03 0. -1.
         11   -1    0    0    0    0 -0.00000000000E+00 -0.00000000000E+00 -0.45593999997E+02  0.45594000000E+02  0.51100000000E-03 0.  1.
    9900012    2    1    2    0    0  0.28254303300E+02  0.27090051415E+02 -0.10999508340E+02  0.50528859276E+02  0.29999998256E+02 0.  0.
         12    1    1    2    0    0 -0.28254303300E+02 -0.27090051415E+02  0.10999508340E+02  0.40659140724E+02  0.00000000000E+00 0. -1.
         11    1    3    3    0    0  0.63320628127E+01  0.24646907253E+02 -0.45788031980E+00  0.25451418649E+02  0.51100000000E-03 0. -1.
        -11    1    3    3    0    0  0.70132920637E+01 -0.18146686561E+01 -0.35997820016E+01  0.80893583567E+01  0.51100000000E-03 0.  1.
         12    1    3    3    0    0  0.14908948423E+02  0.42578128189E+01 -0.69418460190E+01  0.16988082271E+02  0.00000000000E+00 0. -1.
</event>
<event>
 7    1  0.5946946E-013  0.5052888E+02  0.7816164E-02  0.1300439E+00
        -11   -1    0    0    0    0  0.00000000000E+00  0.00000000000E+00  0.45593999997E+02  0.45594000000E+02  0.51100000000E-03 0. -1.
         11   -1    0    0    0    0 -0.00000000000E+00 -0.00000000000E+00 -0.45593999997E+02  0.45594000000E+02  0.51100000000E-03 0.  1.
    9900012    2    1    2    0    0 -0.22018847882E+01 -0.33216473041E+02 -0.23344834842E+02  0.50528884273E+02  0.30000074237E+02 0.  0.
         12    1    1    2    0    0  0.22018847882E+01  0.33216473041E+02  0.23344834842E+02  0.40659115727E+02  0.00000000000E+00 0. -1.
         11    1    3    3    0    0  0.16861227463E+01  0.96740321130E+00  0.41765603993E+01  0.46067923677E+01  0.51100000000E-03 0. -1.
        -11    1    3    3    0    0  0.47520217459E+01 -0.10008665831E+02 -0.87732539259E+01  0.14132412642E+02  0.51100000000E-03 0.  1.
         12    1    3    3    0    0 -0.86400292805E+01 -0.24175210421E+02 -0.18748141315E+02  0.31789679263E+02  0.00000000000E+00 0. -1.
</event>
<event>
 7    1  0.5946946E-013  0.5052889E+02  0.7816164E-02  0.1300439E+00
        -11   -1    0    0    0    0  0.00000000000E+00  0.00000000000E+00  0.45593999997E+02  0.45594000000E+02  0.51100000000E-03 0. -1.
         11   -1    0    0    0    0 -0.00000000000E+00 -0.00000000000E+00 -0.45593999997E+02  0.45594000000E+02  0.51100000000E-03 0.  1.
    9900012    2    1    2    0    0  0.78524062883E+01  0.39363829979E+02  0.64801229857E+01  0.50528887995E+02  0.30000085549E+02 0.  0.
         12    1    1    2    0    0 -0.78524062883E+01 -0.39363829979E+02 -0.64801229857E+01  0.40659112005E+02  0.00000000000E+00 0. -1.
         11    1    3    3    0    0  0.52262278601E+01  0.18596587281E+02  0.12969207584E+02  0.23266861881E+02  0.51100000000E-03 0. -1.
        -11    1    3    3    0    0 -0.58688588543E+01  0.35127929390E+01 -0.38515828669E+01  0.78497075949E+01  0.51100000000E-03 0.  1.
         12    1    3    3    0    0  0.84950372825E+01  0.17254449759E+02 -0.26375017313E+01  0.19412318519E+02  0.00000000000E+00 0. -1.
</event>
<event>
 7    1  0.5946946E-013  0.5052886E+02  0.7816164E-02  0.1300439E+00
        -11   -1    0    0    0    0  0.00000000000E+00  0.00000000000E+00  0.45593999997E+02  0.45594000000E+02  0.51100000000E-03 0.  1.
         11   -1    0    0    0    0 -0.00000000000E+00 -0.00000000000E+00 -0.45593999997E+02  0.45594000000E+02  0.51100000000E-03 0. -1.
    9900012    2    1    2    0    0  0.32113157222E+02  0.11124167631E+01  0.24913323724E+02  0.50528855435E+02  0.29999986580E+02 0.  0.
         12    1    1    2    0    0 -0.32113157222E+02 -0.11124167631E+01 -0.24913323724E+02  0.40659144565E+02  0.00000000000E+00 0. -1.
         11    1    3    3    0    0 -0.19101088042E+01  0.55581559926E+00 -0.17580036329E+01  0.26548114168E+01  0.51100000000E-03 0. -1.
        -11    1    3    3    0    0  0.22777274506E+02  0.11061611594E+01  0.28464572106E+02  0.36472725315E+02  0.51100000000E-03 0.  1.
        -12    1    3    3    0    0  0.11245991520E+02 -0.54955999555E+00 -0.17932447490E+01  0.11401318703E+02  0.00000000000E+00 0.  1.
</event>
<event>
 7    1  0.5946946E-013  0.5052886E+02  0.7816164E-02  0.1300439E+00
        -11   -1    0    0    0    0  0.00000000000E+00  0.00000000000E+00  0.45593999997E+02  0.45594000000E+02  0.51100000000E-03 0.  1.
         11   -1    0    0    0    0 -0.00000000000E+00 -0.00000000000E+00 -0.45593999997E+02  0.45594000000E+02  0.51100000000E-03 0. -1.
    9900012    2    1    2    0    0 -0.34866543388E+02 -0.41716967823E+01  0.20496019817E+02  0.50528859205E+02  0.29999998039E+02 0.  0.
         12    1    1    2    0    0  0.34866543388E+02  0.41716967823E+01 -0.20496019817E+02  0.40659140795E+02  0.00000000000E+00 0. -1.
         11    1    3    3    0    0  0.17369069127E+01 -0.42882006628E+01 -0.32485538008E+01  0.56531949025E+01  0.51100000000E-03 0. -1.
        -11    1    3    3    0    0 -0.28342190269E+02 -0.42404619405E+01  0.19148187418E+02  0.34466133354E+02  0.51100000000E-03 0.  1.
        -12    1    3    3    0    0 -0.82612600312E+01  0.43569658209E+01  0.45963862006E+01  0.10409530949E+02  0.00000000000E+00 0.  1.
</event>
<event>
 7    1  0.5946946E-013  0.5052884E+02  0.7816164E-02  0.1300439E+00
        -11   -1    0    0    0    0  0.00000000000E+00  0.00000000000E+00  0.45593999997E+02  0.45594000000E+02  0.51100000000E-03 0.  1.
         11   -1    0    0    0    0 -0.00000000000E+00 -0.00000000000E+00 -0.45593999997E+02  0.45594000000E+02  0.51100000000E-03 0. -1.
    9900012    2    1    2    0    0 -0.31335303579E+02  0.23643490556E+02  0.10594874926E+02  0.50528840260E+02  0.29999940454E+02 0.  0.
         12    1    1    2    0    0  0.31335303579E+02 -0.23643490556E+02 -0.10594874926E+02  0.40659159740E+02  0.00000000000E+00 0. -1.
         11    1    3    3    0    0 -0.71317827274E+01  0.18476396848E+02 -0.20342399542E+01  0.19909236495E+02  0.51100000000E-03 0. -1.
        -11    1    3    3    0    0 -0.22160281246E+02  0.36856968547E+01  0.15115678792E+02  0.27076672096E+02  0.51100000000E-03 0.  1.
        -12    1    3    3    0    0 -0.20432396055E+01  0.14813968537E+01 -0.24865639114E+01  0.35429316687E+01  0.00000000000E+00 0.  1.
</event>
<event>
 7    1  0.5946946E-013  0.5052885E+02  0.7816164E-02  0.1300439E+00
        -11   -1    0    0    0    0  0.00000000000E+00  0.00000000000E+00  0.45593999997E+02  0.45594000000E+02  0.51100000000E-03 0.  1.
         11   -1    0    0    0    0 -0.00000000000E+00 -0.00000000000E+00 -0.45593999997E+02  0.45594000000E+02  0.51100000000E-03 0. -1.
    9900012    2    1    2    0    0 -0.19835063345E+02  0.48978736879E+01  0.35153196237E+02  0.50528854531E+02  0.29999983833E+02 0.  0.
         12    1    1    2    0    0  0.19835063345E+02 -0.48978736879E+01 -0.35153196237E+02  0.40659145469E+02  0.00000000000E+00 0. -1.
         11    1    3    3    0    0 -0.29090314419E+01  0.62271114434E+01  0.15016299496E+01  0.70352166722E+01  0.51100000000E-03 0. -1.
        -11    1    3    3    0    0 -0.76420988665E+01  0.50542326749E+01  0.30424008045E+02  0.31773687365E+02  0.51100000000E-03 0.  1.
        -12    1    3    3    0    0 -0.92839330366E+01 -0.63834704304E+01  0.32275582429E+01  0.11719950494E+02  0.00000000000E+00 0.  1.
</event>
<event>
 7    1  0.5946946E-013  0.5052889E+02  0.7816164E-02  0.1300439E+00
        -11   -1    0    0    0    0  0.00000000000E+00  0.00000000000E+00  0.45593999997E+02  0.45594000000E+02  0.51100000000E-03 0. -1.
         11   -1    0    0    0    0 -0.00000000000E+00 -0.00000000000E+00 -0.45593999997E+02  0.45594000000E+02  0.51100000000E-03 0.  1.
    9900012    2    1    2    0    0 -0.26043146150E+02 -0.13358442455E+02 -0.28221794881E+02  0.50528890903E+02  0.30000094390E+02 0.  0.
         12    1    1    2    0    0  0.26043146150E+02  0.13358442455E+02  0.28221794881E+02  0.40659109097E+02  0.00000000000E+00 0. -1.
         11    1    3    3    0    0 -0.86160989660E+01 -0.12678636373E+02 -0.45312356428E+01  0.15984901576E+02  0.51100000000E-03 0. -1.
        -11    1    3    3    0    0 -0.13126989270E+02  0.75742239298E+01 -0.18401726038E+02  0.23839258312E+02  0.51100000000E-03 0.  1.
         12    1    3    3    0    0 -0.43000579140E+01 -0.82540300116E+01 -0.52888332010E+01  0.10704731016E+02  0.00000000000E+00 0. -1.
</event>
<event>
 7    1  0.5946946E-013  0.5052886E+02  0.7816164E-02  0.1300439E+00
        -11   -1    0    0    0    0  0.00000000000E+00  0.00000000000E+00  0.45593999997E+02  0.45594000000E+02  0.51100000000E-03 0. -1.
         11   -1    0    0    0    0 -0.00000000000E+00 -0.00000000000E+00 -0.45593999997E+02  0.45594000000E+02  0.51100000000E-03 0.  1.
    9900012    2    1    2    0    0  0.34019869993E+02  0.15616777658E+01 -0.22212047082E+02  0.50528862929E+02  0.30000009358E+02 0.  0.
         12    1    1    2    0    0 -0.34019869993E+02 -0.15616777658E+01  0.22212047082E+02  0.40659137071E+02  0.00000000000E+00 0. -1.
         11    1    3    3    0    0  0.16218744502E+02 -0.11788317269E+02 -0.95751743835E+01  0.22219272310E+02  0.51100000000E-03 0. -1.
        -11    1    3    3    0    0  0.13046388125E+02  0.15010141644E+02 -0.79107950504E+01  0.21403113649E+02  0.51100000000E-03 0.  1.
         12    1    3    3    0    0  0.47547373669E+01 -0.16601466100E+01 -0.47260776483E+01  0.69064769697E+01  0.00000000000E+00 0. -1.
</event>
<event>
 7    1  0.5946946E-013  0.5052886E+02  0.7816164E-02  0.1300439E+00
        -11   -1    0    0    0    0  0.00000000000E+00  0.00000000000E+00  0.45593999997E+02  0.45594000000E+02  0.51100000000E-03 0.  1.
         11   -1    0    0    0    0 -0.00000000000E+00 -0.00000000000E+00 -0.45593999997E+02  0.45594000000E+02  0.51100000000E-03 0. -1.
    9900012    2    1    2    0    0 -0.24712675282E+02  0.32284839484E+02 -0.37222696104E+00  0.50528859170E+02  0.29999997934E+02 0.  0.
         12    1    1    2    0    0  0.24712675282E+02 -0.32284839484E+02  0.37222696104E+00  0.40659140830E+02  0.00000000000E+00 0. -1.
         11    1    3    3    0    0  0.45079015855E+01 -0.78148081768E+00  0.12827486078E+01  0.47515611356E+01  0.51100000000E-03 0. -1.
        -11    1    3    3    0    0 -0.15926004436E+02  0.15678294393E+02  0.49981313901E+01  0.22900389735E+02  0.51100000000E-03 0.  1.
         12    1    3    3    0    0 -0.13294572432E+02  0.17388025908E+02 -0.66531069590E+01  0.22876908299E+02  0.00000000000E+00 0. -1.
</event>
<event>
 7    1  0.5946946E-013  0.5052883E+02  0.7816164E-02  0.1300439E+00
        -11   -1    0    0    0    0  0.00000000000E+00  0.00000000000E+00  0.45593999997E+02  0.45594000000E+02  0.51100000000E-03 0. -1.
         11   -1    0    0    0    0 -0.00000000000E+00 -0.00000000000E+00 -0.45593999997E+02  0.45594000000E+02  0.51100000000E-03 0.  1.
    9900012    2    1    2    0    0 -0.39265672001E+02  0.10502109462E+02  0.10394620001E+01  0.50528833972E+02  0.29999921340E+02 0.  0.
         12    1    1    2    0    0  0.39265672001E+02 -0.10502109462E+02 -0.10394620001E+01  0.40659166028E+02  0.00000000000E+00 0. -1.
         11    1    3    3    0    0 -0.34395757024E+02  0.11453305311E+02  0.96073165891E+01  0.37503957605E+02  0.51100000000E-03 0. -1.
        -11    1    3    3    0    0 -0.52307445919E+01  0.28674913507E+01 -0.49362083166E+01  0.77426964578E+01  0.51100000000E-03 0.  1.
         12    1    3    3    0    0  0.36082961406E+00 -0.38186871996E+01 -0.36316462724E+01  0.52821799085E+01  0.00000000000E+00 0. -1.
</event>
<event>
 7    1  0.5946946E-013  0.5052887E+02  0.7816164E-02  0.1300439E+00
        -11   -1    0    0    0    0  0.00000000000E+00  0.00000000000E+00  0.45593999997E+02  0.45594000000E+02  0.51100000000E-03 0.  1.
         11   -1    0    0    0    0 -0.00000000000E+00 -0.00000000000E+00 -0.45593999997E+02  0.45594000000E+02  0.51100000000E-03 0. -1.
    9900012    2    1    2    0    0 -0.25396923372E+02  0.30507195600E+02  0.88018295557E+01  0.50528869369E+02  0.30000028934E+02 0.  0.
         12    1    1    2    0    0  0.25396923372E+02 -0.30507195600E+02 -0.88018295557E+01  0.40659130631E+02  0.00000000000E+00 0. -1.
         11    1    3    3    0    0  0.23774449682E+01  0.13790459107E+02 -0.45538185001E+01  0.14716190749E+02  0.51100000000E-03 0. -1.
        -11    1    3    3    0    0 -0.24810164192E+02  0.12127223752E+02  0.98421142210E+01  0.29316906654E+02  0.51100000000E-03 0.  1.
         12    1    3    3    0    0 -0.29642041487E+01  0.45895127409E+01  0.35135338348E+01  0.64957719667E+01  0.00000000000E+00 0. -1.
</event>
<event>
 7    1  0.5946946E-013  0.5052886E+02  0.7816164E-02  0.1300439E+00
        -11   -1    0    0    0    0  0.00000000000E+00  0.00000000000E+00  0.45593999997E+02  0.45594000000E+02  0.51100000000E-03 0.  1.
         11   -1    0    0    0    0 -0.00000000000E+00 -0.00000000000E+00 -0.45593999997E+02  0.45594000000E+02  0.51100000000E-03 0. -1.
    9900012    2    1    2    0    0 -0.27981824189E+00 -0.27950341025E+02  0.29527376471E+02  0.50528858065E+02  0.29999994574E+02 0.  0.
         12    1    1    2    0    0  0.27981824189E+00  0.27950341025E+02 -0.29527376471E+02  0.40659141935E+02  0.00000000000E+00 0. -1.
         11    1    3    3    0    0 -0.45922919629E+01 -0.29370863226E+01 -0.10951794364E+00  0.54523037315E+01  0.51100000000E-03 0. -1.
        -11    1    3    3    0    0  0.99925889092E+01 -0.23020721308E+01  0.11879485474E+02  0.15693105001E+02  0.51100000000E-03 0.  1.
        -12    1    3    3    0    0 -0.56801151882E+01 -0.22711182572E+02  0.17757408941E+02  0.29383449332E+02  0.00000000000E+00 0.  1.
</event>
<event>
 7    1  0.5946946E-013  0.5052883E+02  0.7816164E-02  0.1300439E+00
        -11   -1    0    0    0    0  0.00000000000E+00  0.00000000000E+00  0.45593999997E+02  0.45594000000E+02  0.51100000000E-03 0.  1.
         11   -1    0    0    0    0 -0.00000000000E+00 -0.00000000000E+00 -0.45593999997E+02  0.45594000000E+02  0.51100000000E-03 0. -1.
    9900012    2    1    2    0    0 -0.28881229105E+02 -0.26216041104E+02 -0.11478753785E+02  0.50528831363E+02  0.29999913411E+02 0.  0.
         12    1    1    2    0    0  0.28881229105E+02  0.26216041104E+02  0.11478753785E+02  0.40659168637E+02  0.00000000000E+00 0. -1.
         11    1    3    3    0    0 -0.53549077556E+01  0.11821199872E+01 -0.78519408808E+01  0.95773389097E+01  0.51100000000E-03 0. -1.
        -11    1    3    3    0    0 -0.24263298777E+02 -0.15757063600E+02 -0.43906796792E+01  0.29262105002E+02  0.51100000000E-03 0.  1.
         12    1    3    3    0    0  0.73697742828E+00 -0.11641097491E+02  0.76386677458E+00  0.11689387451E+02  0.00000000000E+00 0. -1.
</event>
<event>
 7    1  0.5946946E-013  0.5052886E+02  0.7816164E-02  0.1300439E+00
        -11   -1    0    0    0    0  0.00000000000E+00  0.00000000000E+00  0.45593999997E+02  0.45594000000E+02  0.51100000000E-03 0. -1.
         11   -1    0    0    0    0 -0.00000000000E+00 -0.00000000000E+00 -0.45593999997E+02  0.45594000000E+02  0.51100000000E-03 0.  1.
    9900012    2    1    2    0    0  0.12039239663E+02 -0.28861137936E+02 -0.25985714831E+02  0.50528856503E+02  0.29999989825E+02 0.  0.
         12    1    1    2    0    0 -0.12039239663E+02  0.28861137936E+02  0.25985714831E+02  0.40659143497E+02  0.00000000000E+00 0. -1.
         11    1    3    3    0    0 -0.70946781824E+01  0.30363144355E+00 -0.55455587784E+01  0.90099874024E+01  0.51100000000E-03 0. -1.
        -11    1    3    3    0    0  0.14081829603E+02 -0.15232607133E+02 -0.15506090664E+02  0.25899210277E+02  0.51100000000E-03 0.  1.
         12    1    3    3    0    0  0.50520882429E+01 -0.13932162247E+02 -0.49340653885E+01  0.15619658823E+02  0.00000000000E+00 0. -1.
</event>
<event>
 7    1  0.5946946E-013  0.5052888E+02  0.7816164E-02  0.1300439E+00
        -11   -1    0    0    0    0  0.00000000000E+00  0.00000000000E+00  0.45593999997E+02  0.45594000000E+02  0.51100000000E-03 0. -1.
         11   -1    0    0    0    0 -0.00000000000E+00 -0.00000000000E+00 -0.45593999997E+02  0.45594000000E+02  0.51100000000E-03 0.  1.
    9900012    2    1    2    0    0  0.20241164401E+01  0.58917646484E+00 -0.40604434070E+02  0.50528877501E+02  0.30000053651E+02 0.  0.
         12    1    1    2    0    0 -0.20241164401E+01 -0.58917646484E+00  0.40604434070E+02  0.40659122499E+02  0.00000000000E+00 0. -1.
         11    1    3    3    0    0 -0.10833548779E+02  0.66887819802E+00 -0.14542282881E+02  0.18146381701E+02  0.51100000000E-03 0. -1.
        -11    1    3    3    0    0  0.10437184094E+02 -0.40258750873E+01 -0.25337002501E+02  0.27696681715E+02  0.51100000000E-03 0.  1.
        -12    1    3    3    0    0  0.24204811247E+01  0.39461733541E+01 -0.72514868877E+00  0.46858140847E+01  0.00000000000E+00 0.  1.
</event>
<event>
 7    1  0.5946946E-013  0.5052886E+02  0.7816164E-02  0.1300439E+00
        -11   -1    0    0    0    0  0.00000000000E+00  0.00000000000E+00  0.45593999997E+02  0.45594000000E+02  0.51100000000E-03 0.  1.
         11   -1    0    0    0    0 -0.00000000000E+00 -0.00000000000E+00 -0.45593999997E+02  0.45594000000E+02  0.51100000000E-03 0. -1.
    9900012    2    1    2    0    0 -0.64327242923E+01  0.32554519062E+02  0.23494446844E+02  0.50528859752E+02  0.29999999703E+02 0.  0.
         12    1    1    2    0    0  0.64327242923E+01 -0.32554519062E+02 -0.23494446844E+02  0.40659140248E+02  0.00000000000E+00 0. -1.
         11    1    3    3    0    0  0.69639983001E+01  0.69708210984E+01  0.16709972111E+02  0.19398783140E+02  0.51100000000E-03 0. -1.
        -11    1    3    3    0    0 -0.97069201680E+01  0.17155107536E+02  0.21328892281E-01  0.19710973312E+02  0.51100000000E-03 0.  1.
         12    1    3    3    0    0 -0.36898024243E+01  0.84285904277E+01  0.67631458410E+01  0.11419103301E+02  0.00000000000E+00 0. -1.
</event>
<event>
 7    1  0.5946946E-013  0.5052886E+02  0.7816164E-02  0.1300439E+00
        -11   -1    0    0    0    0  0.00000000000E+00  0.00000000000E+00  0.45593999997E+02  0.45594000000E+02  0.51100000000E-03 0.  1.
         11   -1    0    0    0    0 -0.00000000000E+00 -0.00000000000E+00 -0.45593999997E+02  0.45594000000E+02  0.51100000000E-03 0. -1.
    9900012    2    1    2    0    0 -0.26346237086E+02  0.29106035673E+02  0.10577345776E+02  0.50528858778E+02  0.29999996743E+02 0.  0.
         12    1    1    2    0    0  0.26346237086E+02 -0.29106035673E+02 -0.10577345776E+02  0.40659141222E+02  0.00000000000E+00 0. -1.
         11    1    3    3    0    0 -0.72858530765E+01 -0.41050682494E+01  0.29194859080E+01  0.88576881077E+01  0.51100000000E-03 0. -1.
        -11    1    3    3    0    0 -0.18119990639E+02  0.20845001695E+02  0.93391367665E+01  0.29155919335E+02  0.51100000000E-03 0.  1.
        -12    1    3    3    0    0 -0.94039337012E+00  0.12366102228E+02 -0.16812768989E+01  0.12515251336E+02  0.00000000000E+00 0.  1.
</event>
<event>
 7    1  0.5946946E-013  0.5052884E+02  0.7816164E-02  0.1300439E+00
        -11   -1    0    0    0    0  0.00000000000E+00  0.00000000000E+00  0.45593999997E+02  0.45594000000E+02  0.51100000000E-03 0.  1.
         11   -1    0    0    0    0 -0.00000000000E+00 -0.00000000000E+00 -0.45593999997E+02  0.45594000000E+02  0.51100000000E-03 0. -1.
    9900012    2    1    2    0    0  0.27988829046E+02 -0.25999819900E+02  0.13921295029E+02  0.50528835701E+02  0.29999926598E+02 0.  0.
         12    1    1    2    0    0 -0.27988829046E+02  0.25999819900E+02 -0.13921295029E+02  0.40659164299E+02  0.00000000000E+00 0. -1.
         11    1    3    3    0    0 -0.19754703593E+01 -0.72288064907E+00 -0.14409620996E+01  0.25497865807E+01  0.51100000000E-03 0. -1.
        -11    1    3    3    0    0  0.31993179476E+02 -0.26340069126E+02  0.10724179598E+02  0.42806200519E+02  0.51100000000E-03 0.  1.
        -12    1    3    3    0    0 -0.20288800706E+01  0.10631298757E+01  0.46380775313E+01  0.51728486020E+01  0.00000000000E+00 0.  1.
</event>
<event>
 7    1  0.5946946E-013  0.5052886E+02  0.7816164E-02  0.1300439E+00
        -11   -1    0    0    0    0  0.00000000000E+00  0.00000000000E+00  0.45593999997E+02  0.45594000000E+02  0.51100000000E-03 0.  1.
         11   -1    0    0    0    0 -0.00000000000E+00 -0.00000000000E+00 -0.45593999997E+02  0.45594000000E+02  0.51100000000E-03 0. -1.
    9900012    2    1    2    0    0 -0.26261813112E+02  0.28477049199E+02  0.12350742423E+02  0.50528855919E+02  0.29999988052E+02 0.  0.
         12    1    1    2    0    0  0.26261813112E+02 -0.28477049199E+02 -0.12350742423E+02  0.40659144081E+02  0.00000000000E+00 0. -1.
         11    1    3    3    0    0 -0.25664505819E+00  0.12286713504E+02 -0.62370475380E-01  0.12289551893E+02  0.51100000000E-03 0. -1.
        -11    1    3    3    0    0 -0.24451161391E+02  0.20197666770E+02  0.97341336058E+01  0.33174664936E+02  0.51100000000E-03 0.  1.
        -12    1    3    3    0    0 -0.15540066630E+01 -0.40073310753E+01  0.26789792927E+01  0.50646390895E+01  0.00000000000E+00 0.  1.
</event>
<event>
 7    1  0.5946946E-013  0.5052885E+02  0.7816164E-02  0.1300439E+00
        -11   -1    0    0    0    0  0.00000000000E+00  0.00000000000E+00  0.45593999997E+02  0.45594000000E+02  0.51100000000E-03 0.  1.
         11   -1    0    0    0    0 -0.00000000000E+00 -0.00000000000E+00 -0.45593999997E+02  0.45594000000E+02  0.51100000000E-03 0. -1.
    9900012    2    1    2    0    0  0.34561949490E+01  0.36106577844E+02  0.18372167409E+02  0.50528846265E+02  0.29999958708E+02 0.  0.
         12    1    1    2    0    0 -0.34561949490E+01 -0.36106577844E+02 -0.18372167409E+02  0.40659153735E+02  0.00000000000E+00 0. -1.
         11    1    3    3    0    0  0.23736389225E+01  0.94371799289E+01 -0.62608144656E+00  0.97512309471E+01  0.51100000000E-03 0. -1.
        -11    1    3    3    0    0  0.99166592185E+01  0.23712109675E+01  0.61428807299E+01  0.11903686632E+02  0.51100000000E-03 0.  1.
        -12    1    3    3    0    0 -0.88341031920E+01  0.24298186947E+02  0.12855368126E+02  0.28873928686E+02  0.00000000000E+00 0.  1.
</event>
<event>
 7    1  0.5946946E-013  0.5052886E+02  0.7816164E-02  0.1300439E+00
        -11   -1    0    0    0    0  0.00000000000E+00  0.00000000000E+00  0.45593999997E+02  0.45594000000E+02  0.51100000000E-03 0.  1.
         11   -1    0    0    0    0 -0.00000000000E+00 -0.00000000000E+00 -0.45593999997E+02  0.45594000000E+02  0.51100000000E-03 0. -1.
    9900012    2    1    2    0    0  0.12272934666E+01 -0.22960666900E+02  0.33533081160E+02  0.50528855815E+02  0.29999987735E+02 0.  0.
         12    1    1    2    0    0 -0.12272934666E+01  0.22960666900E+02 -0.33533081160E+02  0.40659144185E+02  0.00000000000E+00 0. -1.
         11    1    3    3    0    0 -0.28295089861E+01 -0.27581075648E+02  0.20919734603E+02  0.34732652521E+02  0.51100000000E-03 0. -1.
        -11    1    3    3    0    0  0.98771166478E+00  0.22761846405E+01 -0.12589758676E+00  0.24844398390E+01  0.51100000000E-03 0.  1.
         12    1    3    3    0    0  0.30690907878E+01  0.23442241068E+01  0.12739244144E+02  0.13311763455E+02  0.00000000000E+00 0. -1.
</event>
<event>
 7    1  0.5946946E-013  0.5052874E+02  0.7816164E-02  0.1300439E+00
        -11   -1    0    0    0    0  0.00000000000E+00  0.00000000000E+00  0.45593999997E+02  0.45594000000E+02  0.51100000000E-03 0.  1.
         11   -1    0    0    0    0 -0.00000000000E+00 -0.00000000000E+00 -0.45593999997E+02  0.45594000000E+02  0.51100000000E-03 0. -1.
    9900012    2    1    2    0    0  0.27975636880E+01 -0.11942902846E+02  0.38764887747E+02  0.50528735213E+02  0.29999621150E+02 0.  0.
         12    1    1    2    0    0 -0.27975636880E+01  0.11942902846E+02 -0.38764887747E+02  0.40659264787E+02  0.00000000000E+00 0. -1.
         11    1    3    3    0    0 -0.43822427307E+00 -0.11083738367E+02  0.65361374822E+01  0.12874874374E+02  0.51100000000E-03 0. -1.
        -11    1    3    3    0    0  0.54213031280E+01 -0.26467991105E+01  0.33859844111E+02  0.34393096932E+02  0.51100000000E-03 0.  1.
        -12    1    3    3    0    0 -0.21855151669E+01  0.17876346315E+01 -0.16310938453E+01  0.32607639063E+01  0.00000000000E+00 0.  1.
</event>
<event>
 7    1  0.5946946E-013  0.5052886E+02  0.7816164E-02  0.1300439E+00
        -11   -1    0    0    0    0  0.00000000000E+00  0.00000000000E+00  0.45593999997E+02  0.45594000000E+02  0.51100000000E-03 0.  1.
         11   -1    0    0    0    0 -0.00000000000E+00 -0.00000000000E+00 -0.45593999997E+02  0.45594000000E+02  0.51100000000E-03 0. -1.
    9900012    2    1    2    0    0  0.33301349408E+02  0.20500767644E+02  0.11131224908E+02  0.50528861859E+02  0.30000006108E+02 0.  0.
         12    1    1    2    0    0 -0.33301349408E+02 -0.20500767644E+02 -0.11131224908E+02  0.40659138141E+02  0.00000000000E+00 0. -1.
         11    1    3    3    0    0  0.30645623953E+01 -0.33436669078E+01  0.45742313990E+01  0.64416802325E+01  0.51100000000E-03 0. -1.
        -11    1    3    3    0    0  0.31875412279E+02  0.25727726312E+02  0.69856669291E+01  0.41554269959E+02  0.51100000000E-03 0.  1.
        -12    1    3    3    0    0 -0.16386252657E+01 -0.18832917604E+01 -0.42867342017E+00  0.25329116679E+01  0.00000000000E+00 0.  1.
</event>
<event>
 7    1  0.5946946E-013  0.5052886E+02  0.7816164E-02  0.1300439E+00
        -11   -1    0    0    0    0  0.00000000000E+00  0.00000000000E+00  0.45593999997E+02  0.45594000000E+02  0.51100000000E-03 0.  1.
         11   -1    0    0    0    0 -0.00000000000E+00 -0.00000000000E+00 -0.45593999997E+02  0.45594000000E+02  0.51100000000E-03 0. -1.
    9900012    2    1    2    0    0  0.26603845465E+02  0.64280025952E+01  0.30067951553E+02  0.50528861772E+02  0.30000005841E+02 0.  0.
         12    1    1    2    0    0 -0.26603845465E+02 -0.64280025952E+01 -0.30067951553E+02  0.40659138228E+02  0.00000000000E+00 0. -1.
         11    1    3    3    0    0  0.70449105922E+01 -0.20315435263E+01 -0.32693014325E+01  0.80278432016E+01  0.51100000000E-03 0. -1.
        -11    1    3    3    0    0  0.12642372208E+02 -0.18055225746E+00  0.26835796840E+02  0.29665167562E+02  0.51100000000E-03 0.  1.
         12    1    3    3    0    0  0.69165626642E+01  0.86400983790E+01  0.65014561455E+01  0.12835851008E+02  0.00000000000E+00 0. -1.
</event>
<event>
 7    1  0.5946946E-013  0.5052888E+02  0.7816164E-02  0.1300439E+00
        -11   -1    0    0    0    0  0.00000000000E+00  0.00000000000E+00  0.45593999997E+02  0.45594000000E+02  0.51100000000E-03 0.  1.
         11   -1    0    0    0    0 -0.00000000000E+00 -0.00000000000E+00 -0.45593999997E+02  0.45594000000E+02  0.51100000000E-03 0. -1.
    9900012    2    1    2    0    0 -0.10700960152E+02 -0.31182965764E+02  0.23796557005E+02  0.50528880146E+02  0.30000061692E+02 0.  0.
         12    1    1    2    0    0  0.10700960152E+02  0.31182965764E+02 -0.23796557005E+02  0.40659119854E+02  0.00000000000E+00 0. -1.
         11    1    3    3    0    0  0.28777682712E+00  0.14116018086E+01  0.97183653343E+01  0.98245641227E+01  0.51100000000E-03 0. -1.
        -11    1    3    3    0    0 -0.52278966356E+01 -0.31640093900E+02  0.10037560919E+02  0.33603259882E+02  0.51100000000E-03 0.  1.
        -12    1    3    3    0    0 -0.57608403437E+01 -0.95447367267E+00  0.40406307516E+01  0.71010561417E+01  0.00000000000E+00 0.  1.
</event>
<event>
 7    1  0.5946946E-013  0.5052886E+02  0.7816164E-02  0.1300439E+00
        -11   -1    0    0    0    0  0.00000000000E+00  0.00000000000E+00  0.45593999997E+02  0.45594000000E+02  0.51100000000E-03 0.  1.
         11   -1    0    0    0    0 -0.00000000000E+00 -0.00000000000E+00 -0.45593999997E+02  0.45594000000E+02  0.51100000000E-03 0. -1.
    9900012    2    1    2    0    0 -0.33621853012E+02 -0.21966764719E+02  0.63401811332E+01  0.50528860204E+02  0.30000001075E+02 0.  0.
         12    1    1    2    0    0  0.33621853012E+02  0.21966764719E+02 -0.63401811332E+01  0.40659139796E+02  0.00000000000E+00 0. -1.
         11    1    3    3    0    0 -0.49226741808E+01  0.38304164348E-01 -0.80409814740E+01  0.94282326884E+01  0.51100000000E-03 0. -1.
        -11    1    3    3    0    0 -0.26317688920E+02 -0.15874565553E+02  0.15511858480E+02  0.34427319607E+02  0.51100000000E-03 0.  1.
        -12    1    3    3    0    0 -0.23814899112E+01 -0.61305033305E+01 -0.11306958726E+01  0.66733079083E+01  0.00000000000E+00 0.  1.
</event>
<event>
 7    1  0.5946946E-013  0.5052886E+02  0.7816164E-02  0.1300439E+00
        -11   -1    0    0    0    0  0.00000000000E+00  0.00000000000E+00  0.45593999997E+02  0.45594000000E+02  0.51100000000E-03 0. -1.
         11   -1    0    0    0    0 -0.00000000000E+00 -0.00000000000E+00 -0.45593999997E+02  0.45594000000E+02  0.51100000000E-03 0.  1.
    9900012    2    1    2    0    0  0.16992650351E+01 -0.31846916014E+02  0.25220072219E+02  0.50528860757E+02  0.30000002756E+02 0.  0.
         12    1    1    2    0    0 -0.16992650351E+01  0.31846916014E+02 -0.25220072219E+02  0.40659139243E+02  0.00000000000E+00 0. -1.
         11    1    3    3    0    0 -0.96970745463E+01 -0.79768938539E+01  0.95299209492E+01  0.15763358902E+02  0.51100000000E-03 0. -1.
        -11    1    3    3    0    0  0.48177073448E+01 -0.14847160606E+02  0.12569130333E+00  0.15609749539E+02  0.51100000000E-03 0.  1.
        -12    1    3    3    0    0  0.65786322366E+01 -0.90228615547E+01  0.15564459966E+02  0.19155752316E+02  0.00000000000E+00 0.  1.
</event>
<event>
 7    1  0.5946946E-013  0.5052886E+02  0.7816164E-02  0.1300439E+00
        -11   -1    0    0    0    0  0.00000000000E+00  0.00000000000E+00  0.45593999997E+02  0.45594000000E+02  0.51100000000E-03 0.  1.
         11   -1    0    0    0    0 -0.00000000000E+00 -0.00000000000E+00 -0.45593999997E+02  0.45594000000E+02  0.51100000000E-03 0. -1.
    9900012    2    1    2    0    0 -0.29067521603E+02  0.39578919930E+01  0.28152796284E+02  0.50528860071E+02  0.30000000672E+02 0.  0.
         12    1    1    2    0    0  0.29067521603E+02 -0.39578919930E+01 -0.28152796284E+02  0.40659139929E+02  0.00000000000E+00 0. -1.
         11    1    3    3    0    0 -0.67592481360E+01  0.93265301921E+01 -0.15991981144E+01  0.11628801987E+02  0.51100000000E-03 0. -1.
        -11    1    3    3    0    0 -0.14011201988E+02 -0.82152459551E+01  0.20435477042E+02  0.26103884183E+02  0.51100000000E-03 0.  1.
         12    1    3    3    0    0 -0.82970714789E+01  0.28466077559E+01  0.93165173569E+01  0.12796173901E+02  0.00000000000E+00 0. -1.
</event>
<event>
 7    1  0.5946946E-013  0.5052885E+02  0.7816164E-02  0.1300439E+00
        -11   -1    0    0    0    0  0.00000000000E+00  0.00000000000E+00  0.45593999997E+02  0.45594000000E+02  0.51100000000E-03 0. -1.
         11   -1    0    0    0    0 -0.00000000000E+00 -0.00000000000E+00 -0.45593999997E+02  0.45594000000E+02  0.51100000000E-03 0.  1.
    9900012    2    1    2    0    0 -0.23068880036E+02 -0.33269990386E+02  0.37550820520E+01  0.50528854317E+02  0.29999983183E+02 0.  0.
         12    1    1    2    0    0  0.23068880036E+02  0.33269990386E+02 -0.37550820520E+01  0.40659145683E+02  0.00000000000E+00 0. -1.
         11    1    3    3    0    0 -0.19995208181E+02 -0.15067309301E+02 -0.29639181231E+01  0.25211445232E+02  0.51100000000E-03 0. -1.
        -11    1    3    3    0    0  0.44277839706E+00 -0.19552207038E+02  0.25890428002E+01  0.19727848227E+02  0.51100000000E-03 0.  1.
        -12    1    3    3    0    0 -0.35164502522E+01  0.13495259532E+01  0.41299573748E+01  0.55895608586E+01  0.00000000000E+00 0.  1.
</event>
<event>
 7    1  0.5946946E-013  0.5052892E+02  0.7816164E-02  0.1300439E+00
        -11   -1    0    0    0    0  0.00000000000E+00  0.00000000000E+00  0.45593999997E+02  0.45594000000E+02  0.51100000000E-03 0.  1.
         11   -1    0    0    0    0 -0.00000000000E+00 -0.00000000000E+00 -0.45593999997E+02  0.45594000000E+02  0.51100000000E-03 0. -1.
    9900012    2    1    2    0    0  0.18160305688E+02  0.25093782559E+02  0.26337544650E+02  0.50528918801E+02  0.30000179186E+02 0.  0.
         12    1    1    2    0    0 -0.18160305688E+02 -0.25093782559E+02 -0.26337544650E+02  0.40659081199E+02  0.00000000000E+00 0. -1.
         11    1    3    3    0    0  0.16702107943E+01  0.18280944616E+02  0.46501711313E+01  0.18936911891E+02  0.51100000000E-03 0. -1.
        -11    1    3    3    0    0  0.14600894928E+02  0.11050742392E+02  0.16752055747E+02  0.24818066245E+02  0.51100000000E-03 0.  1.
        -12    1    3    3    0    0  0.18891999653E+01 -0.42379044490E+01  0.49353177719E+01  0.67739406653E+01  0.00000000000E+00 0.  1.
</event>
<event>
 7    1  0.5946946E-013  0.5052886E+02  0.7816164E-02  0.1300439E+00
        -11   -1    0    0    0    0  0.00000000000E+00  0.00000000000E+00  0.45593999997E+02  0.45594000000E+02  0.51100000000E-03 0.  1.
         11   -1    0    0    0    0 -0.00000000000E+00 -0.00000000000E+00 -0.45593999997E+02  0.45594000000E+02  0.51100000000E-03 0. -1.
    9900012    2    1    2    0    0 -0.35699661392E+02 -0.11814913442E+02  0.15463095176E+02  0.50528864304E+02  0.30000013539E+02 0.  0.
         12    1    1    2    0    0  0.35699661392E+02  0.11814913442E+02 -0.15463095176E+02  0.40659135696E+02  0.00000000000E+00 0. -1.
         11    1    3    3    0    0 -0.56411050284E+01 -0.75389769830E+01  0.70466253574E+00  0.94421813921E+01  0.51100000000E-03 0. -1.
        -11    1    3    3    0    0 -0.16879408568E+02  0.35749374996E+01  0.18499496517E+02  0.25296758357E+02  0.51100000000E-03 0.  1.
        -12    1    3    3    0    0 -0.13179147795E+02 -0.78508739583E+01 -0.37410638767E+01  0.15789924555E+02  0.00000000000E+00 0.  1.
</event>
<event>
 7    1  0.5946946E-013  0.5052885E+02  0.7816164E-02  0.1300439E+00
        -11   -1    0    0    0    0  0.00000000000E+00  0.00000000000E+00  0.45593999997E+02  0.45594000000E+02  0.51100000000E-03 0.  1.
         11   -1    0    0    0    0 -0.00000000000E+00 -0.00000000000E+00 -0.45593999997E+02  0.45594000000E+02  0.51100000000E-03 0. -1.
    9900012    2    1    2    0    0  0.23504750457E+02  0.13735921644E+02  0.30199625875E+02  0.50528852931E+02  0.29999978968E+02 0.  0.
         12    1    1    2    0    0 -0.23504750457E+02 -0.13735921644E+02 -0.30199625875E+02  0.40659147069E+02  0.00000000000E+00 0. -1.
         11    1    3    3    0    0  0.29696844257E+01  0.23768575228E+01  0.11635881502E+01  0.39777399257E+01  0.51100000000E-03 0. -1.
        -11    1    3    3    0    0  0.17117373825E+02  0.17325963143E+02  0.30977830540E+02  0.39405830415E+02  0.51100000000E-03 0.  1.
        -12    1    3    3    0    0  0.34176922059E+01 -0.59668990218E+01 -0.19417928151E+01  0.71452825897E+01  0.00000000000E+00 0.  1.
</event>
<event>
 7    1  0.5946946E-013  0.5052886E+02  0.7816164E-02  0.1300439E+00
        -11   -1    0    0    0    0  0.00000000000E+00  0.00000000000E+00  0.45593999997E+02  0.45594000000E+02  0.51100000000E-03 0.  1.
         11   -1    0    0    0    0 -0.00000000000E+00 -0.00000000000E+00 -0.45593999997E+02  0.45594000000E+02  0.51100000000E-03 0. -1.
    9900012    2    1    2    0    0  0.91667274857E+01 -0.54429188016E+01  0.39236605992E+02  0.50528861941E+02  0.30000006356E+02 0.  0.
         12    1    1    2    0    0 -0.91667274857E+01  0.54429188016E+01 -0.39236605992E+02  0.40659138059E+02  0.00000000000E+00 0. -1.
         11    1    3    3    0    0  0.69693798260E+01  0.23568912536E+01  0.40735279381E+01  0.84095672697E+01  0.51100000000E-03 0. -1.
        -11    1    3    3    0    0 -0.74365688171E+01 -0.79481926323E+00  0.26104330869E+02  0.27154564696E+02  0.51100000000E-03 0.  1.
        -12    1    3    3    0    0  0.96339164767E+01 -0.70049907919E+01  0.90587471850E+01  0.14964729975E+02  0.00000000000E+00 0.  1.
</event>
<event>
 7    1  0.5946946E-013  0.5052884E+02  0.7816164E-02  0.1300439E+00
        -11   -1    0    0    0    0  0.00000000000E+00  0.00000000000E+00  0.45593999997E+02  0.45594000000E+02  0.51100000000E-03 0.  1.
         11   -1    0    0    0    0 -0.00000000000E+00 -0.00000000000E+00 -0.45593999997E+02  0.45594000000E+02  0.51100000000E-03 0. -1.
    9900012    2    1    2    0    0 -0.37629769381E+02 -0.11204960750E+02  0.10564858694E+02  0.50528844471E+02  0.29999953255E+02 0.  0.
         12    1    1    2    0    0  0.37629769381E+02  0.11204960750E+02 -0.10564858694E+02  0.40659155529E+02  0.00000000000E+00 0. -1.
         11    1    3    3    0    0 -0.28987129514E+01  0.12372553708E+01  0.12024711112E+01  0.33733180492E+01  0.51100000000E-03 0. -1.
        -11    1    3    3    0    0 -0.24892248107E+02  0.11385022430E+01 -0.45933397761E+01  0.25338093333E+02  0.51100000000E-03 0.  1.
        -12    1    3    3    0    0 -0.98388083224E+01 -0.13580718364E+02  0.13955727359E+02  0.21817433089E+02  0.00000000000E+00 0.  1.
</event>
<event>
 7    1  0.5946946E-013  0.5052886E+02  0.7816164E-02  0.1300439E+00
        -11   -1    0    0    0    0  0.00000000000E+00  0.00000000000E+00  0.45593999997E+02  0.45594000000E+02  0.51100000000E-03 0. -1.
         11   -1    0    0    0    0 -0.00000000000E+00 -0.00000000000E+00 -0.45593999997E+02  0.45594000000E+02  0.51100000000E-03 0.  1.
    9900012    2    1    2    0    0 -0.23394860769E+02  0.14236107207E+02 -0.30052943187E+02  0.50528860154E+02  0.30000000924E+02 0.  0.
         12    1    1    2    0    0  0.23394860769E+02 -0.14236107207E+02  0.30052943187E+02  0.40659139846E+02  0.00000000000E+00 0. -1.
         11    1    3    3    0    0  0.89472721512E+00  0.13152455101E+02 -0.68517109245E+01  0.14857104523E+02  0.51100000000E-03 0. -1.
        -11    1    3    3    0    0 -0.49138038949E+01  0.18019581828E+01 -0.12440841921E+02  0.13496928168E+02  0.51100000000E-03 0.  1.
         12    1    3    3    0    0 -0.19375784089E+02 -0.71830607639E+00 -0.10760390342E+02  0.22174827463E+02  0.00000000000E+00 0. -1.
</event>
<event>
 7    1  0.5946946E-013  0.5052885E+02  0.7816164E-02  0.1300439E+00
        -11   -1    0    0    0    0  0.00000000000E+00  0.00000000000E+00  0.45593999997E+02  0.45594000000E+02  0.51100000000E-03 0.  1.
         11   -1    0    0    0    0 -0.00000000000E+00 -0.00000000000E+00 -0.45593999997E+02  0.45594000000E+02  0.51100000000E-03 0. -1.
    9900012    2    1    2    0    0 -0.96109003455E+01 -0.55837190445E+01  0.39110341205E+02  0.50528854497E+02  0.29999983729E+02 0.  0.
         12    1    1    2    0    0  0.96109003455E+01  0.55837190445E+01 -0.39110341205E+02  0.40659145503E+02  0.00000000000E+00 0. -1.
         11    1    3    3    0    0 -0.48960758505E+01 -0.30285731976E+00  0.13013743204E+01  0.50751213456E+01  0.51100000000E-03 0. -1.
        -11    1    3    3    0    0  0.43552220855E+01  0.60761352189E+00  0.33541101302E+02  0.33828133712E+02  0.51100000000E-03 0.  1.
        -12    1    3    3    0    0 -0.90700465804E+01 -0.58884752466E+01  0.42678655832E+01  0.11625599440E+02  0.00000000000E+00 0.  1.
</event>
<event>
 7    1  0.5946946E-013  0.5052886E+02  0.7816164E-02  0.1300439E+00
        -11   -1    0    0    0    0  0.00000000000E+00  0.00000000000E+00  0.45593999997E+02  0.45594000000E+02  0.51100000000E-03 0. -1.
         11   -1    0    0    0    0 -0.00000000000E+00 -0.00000000000E+00 -0.45593999997E+02  0.45594000000E+02  0.51100000000E-03 0.  1.
    9900012    2    1    2    0    0 -0.15658000823E+02  0.26631648526E+02 -0.26433836499E+02  0.50528863203E+02  0.30000010192E+02 0.  0.
         12    1    1    2    0    0  0.15658000823E+02 -0.26631648526E+02  0.26433836499E+02  0.40659136797E+02  0.00000000000E+00 0. -1.
         11    1    3    3    0    0 -0.22516317894E+01 -0.89242674227E+00  0.15887199647E+01  0.28966019044E+01  0.51100000000E-03 0. -1.
        -11    1    3    3    0    0 -0.11889165683E+02  0.29812365383E+02 -0.17093633205E+02  0.36363741375E+02  0.51100000000E-03 0.  1.
        -12    1    3    3    0    0 -0.15172033505E+01 -0.22882901152E+01 -0.10928923259E+02  0.11268519923E+02  0.00000000000E+00 0.  1.
</event>
<event>
 7    1  0.5946946E-013  0.5052886E+02  0.7816164E-02  0.1300439E+00
        -11   -1    0    0    0    0  0.00000000000E+00  0.00000000000E+00  0.45593999997E+02  0.45594000000E+02  0.51100000000E-03 0. -1.
         11   -1    0    0    0    0 -0.00000000000E+00 -0.00000000000E+00 -0.45593999997E+02  0.45594000000E+02  0.51100000000E-03 0.  1.
    9900012    2    1    2    0    0 -0.33632978090E+01  0.21508179908E+02 -0.34340238270E+02  0.50528861549E+02  0.30000005166E+02 0.  0.
         12    1    1    2    0    0  0.33632978090E+01 -0.21508179908E+02  0.34340238270E+02  0.40659138451E+02  0.00000000000E+00 0. -1.
         11    1    3    3    0    0 -0.80415436621E+00 -0.25849015584E+01 -0.17559691799E+02  0.17767136985E+02  0.51100000000E-03 0. -1.
        -11    1    3    3    0    0 -0.54928551048E+01  0.21154482308E+02 -0.84106442749E+01  0.23418422584E+02  0.51100000000E-03 0.  1.
        -12    1    3    3    0    0  0.29337116621E+01  0.29385991581E+01 -0.83699021961E+01  0.93433019805E+01  0.00000000000E+00 0.  1.
</event>
<event>
 7    1  0.5946946E-013  0.5052886E+02  0.7816164E-02  0.1300439E+00
        -11   -1    0    0    0    0  0.00000000000E+00  0.00000000000E+00  0.45593999997E+02  0.45594000000E+02  0.51100000000E-03 0.  1.
         11   -1    0    0    0    0 -0.00000000000E+00 -0.00000000000E+00 -0.45593999997E+02  0.45594000000E+02  0.51100000000E-03 0. -1.
    9900012    2    1    2    0    0 -0.11734971404E+02  0.10644123795E+02  0.37445407348E+02  0.50528862569E+02  0.30000008264E+02 0.  0.
         12    1    1    2    0    0  0.11734971404E+02 -0.10644123795E+02 -0.37445407348E+02  0.40659137431E+02  0.00000000000E+00 0. -1.
         11    1    3    3    0    0  0.36285448793E+01  0.24090442887E+00  0.22677708539E+02  0.22967429933E+02  0.51100000000E-03 0. -1.
        -11    1    3    3    0    0 -0.91278403642E+01  0.12028815502E+01  0.13548076990E+02  0.16380316972E+02  0.51100000000E-03 0.  1.
         12    1    3    3    0    0 -0.62356759193E+01  0.92003378158E+01  0.12196218187E+01  0.11181115663E+02  0.00000000000E+00 0. -1.
</event>
<event>
 7    1  0.5946946E-013  0.5052885E+02  0.7816164E-02  0.1300439E+00
        -11   -1    0    0    0    0  0.00000000000E+00  0.00000000000E+00  0.45593999997E+02  0.45594000000E+02  0.51100000000E-03 0. -1.
         11   -1    0    0    0    0 -0.00000000000E+00 -0.00000000000E+00 -0.45593999997E+02  0.45594000000E+02  0.51100000000E-03 0.  1.
    9900012    2    1    2    0    0  0.10488729563E+02  0.79150275874E+01 -0.38477331782E+02  0.50528853789E+02  0.29999981576E+02 0.  0.
         12    1    1    2    0    0 -0.10488729563E+02 -0.79150275874E+01  0.38477331782E+02  0.40659146211E+02  0.00000000000E+00 0. -1.
         11    1    3    3    0    0 -0.64682844082E+00  0.11166301855E+02 -0.34561477282E+01  0.11706820300E+02  0.51100000000E-03 0. -1.
        -11    1    3    3    0    0  0.32987631158E+01 -0.67526467401E+01 -0.21799042105E+02  0.23058150685E+02  0.51100000000E-03 0.  1.
         12    1    3    3    0    0  0.78367948877E+01  0.35013724722E+01 -0.13222141950E+02  0.15763882803E+02  0.00000000000E+00 0. -1.
</event>
<event>
 7    1  0.5946946E-013  0.5052886E+02  0.7816164E-02  0.1300439E+00
        -11   -1    0    0    0    0  0.00000000000E+00  0.00000000000E+00  0.45593999997E+02  0.45594000000E+02  0.51100000000E-03 0. -1.
         11   -1    0    0    0    0 -0.00000000000E+00 -0.00000000000E+00 -0.45593999997E+02  0.45594000000E+02  0.51100000000E-03 0.  1.
    9900012    2    1    2    0    0  0.21565363766E+02  0.29240568056E+02 -0.18250755711E+02  0.50528858117E+02  0.29999994734E+02 0.  0.
         12    1    1    2    0    0 -0.21565363766E+02 -0.29240568056E+02  0.18250755711E+02  0.40659141883E+02  0.00000000000E+00 0. -1.
         11    1    3    3    0    0  0.13266971652E+01 -0.48646946983E+01 -0.54231823183E+01  0.74051527057E+01  0.51100000000E-03 0. -1.
        -11    1    3    3    0    0  0.14665952664E+02  0.14706604360E+02 -0.87248373516E+01  0.22527697761E+02  0.51100000000E-03 0.  1.
         12    1    3    3    0    0  0.55727139372E+01  0.19398658394E+02 -0.41027360411E+01  0.20596007651E+02  0.00000000000E+00 0. -1.
</event>
<event>
 7    1  0.5946946E-013  0.5052886E+02  0.7816164E-02  0.1300439E+00
        -11   -1    0    0    0    0  0.00000000000E+00  0.00000000000E+00  0.45593999997E+02  0.45594000000E+02  0.51100000000E-03 0.  1.
         11   -1    0    0    0    0 -0.00000000000E+00 -0.00000000000E+00 -0.45593999997E+02  0.45594000000E+02  0.51100000000E-03 0. -1.
    9900012    2    1    2    0    0 -0.38182997339E+02 -0.38978373077E+01  0.13417573915E+02  0.50528859438E+02  0.29999998749E+02 0.  0.
         12    1    1    2    0    0  0.38182997339E+02  0.38978373077E+01 -0.13417573915E+02  0.40659140562E+02  0.00000000000E+00 0. -1.
         11    1    3    3    0    0 -0.19711522596E+02 -0.65006138588E+01  0.38116286819E+01  0.21102858031E+02  0.51100000000E-03 0.  1.
        -11    1    3    3    0    0 -0.69625804270E+01  0.91634921032E+01  0.11229354161E+02  0.16079350387E+02  0.51100000000E-03 0. -1.
         12    1    3    3    0    0 -0.11508894316E+02 -0.65607155521E+01 -0.16234089277E+01  0.13346651021E+02  0.00000000000E+00 0. -1.
</event>
<event>
 7    1  0.5946946E-013  0.5052886E+02  0.7816164E-02  0.1300439E+00
        -11   -1    0    0    0    0  0.00000000000E+00  0.00000000000E+00  0.45593999997E+02  0.45594000000E+02  0.51100000000E-03 0.  1.
         11   -1    0    0    0    0 -0.00000000000E+00 -0.00000000000E+00 -0.45593999997E+02  0.45594000000E+02  0.51100000000E-03 0. -1.
    9900012    2    1    2    0    0 -0.12104743519E+02 -0.20123193211E+02  0.33191830693E+02  0.50528863936E+02  0.30000012421E+02 0.  0.
         12    1    1    2    0    0  0.12104743519E+02  0.20123193211E+02 -0.33191830693E+02  0.40659136064E+02  0.00000000000E+00 0. -1.
         11    1    3    3    0    0 -0.91172337342E+01 -0.11288649166E+02  0.35055088866E+01  0.14928032147E+02  0.51100000000E-03 0. -1.
        -11    1    3    3    0    0 -0.80138183852E+01 -0.98864744417E+01  0.26899572581E+02  0.29758203362E+02  0.51100000000E-03 0.  1.
         12    1    3    3    0    0  0.50263085999E+01  0.10519303968E+01  0.27867492254E+01  0.58426284279E+01  0.00000000000E+00 0. -1.
</event>
<event>
 7    1  0.5946946E-013  0.5052885E+02  0.7816164E-02  0.1300439E+00
        -11   -1    0    0    0    0  0.00000000000E+00  0.00000000000E+00  0.45593999997E+02  0.45594000000E+02  0.51100000000E-03 0.  1.
         11   -1    0    0    0    0 -0.00000000000E+00 -0.00000000000E+00 -0.45593999997E+02  0.45594000000E+02  0.51100000000E-03 0. -1.
    9900012    2    1    2    0    0  0.29207625328E+02  0.33571146174E+01  0.28085779892E+02  0.50528848164E+02  0.29999964480E+02 0.  0.
         12    1    1    2    0    0 -0.29207625328E+02 -0.33571146174E+01 -0.28085779892E+02  0.40659151836E+02  0.00000000000E+00 0. -1.
         11    1    3    3    0    0  0.30124027349E+02  0.32089301501E+01  0.13965726505E+02  0.33358593698E+02  0.51100000000E-03 0. -1.
        -11    1    3    3    0    0 -0.32687536459E+01 -0.38012462500E+01  0.58143629676E+01  0.76773068475E+01  0.51100000000E-03 0.  1.
        -12    1    3    3    0    0  0.23523516250E+01  0.39494307172E+01  0.83056904189E+01  0.94929476188E+01  0.00000000000E+00 0.  1.
</event>
<event>
 7    1  0.5946946E-013  0.5052886E+02  0.7816164E-02  0.1300439E+00
        -11   -1    0    0    0    0  0.00000000000E+00  0.00000000000E+00  0.45593999997E+02  0.45594000000E+02  0.51100000000E-03 0. -1.
         11   -1    0    0    0    0 -0.00000000000E+00 -0.00000000000E+00 -0.45593999997E+02  0.45594000000E+02  0.51100000000E-03 0.  1.
    9900012    2    1    2    0    0  0.27812495610E+01 -0.34727502744E+02 -0.20962612222E+02  0.50528857029E+02  0.29999991427E+02 0.  0.
         12    1    1    2    0    0 -0.27812495610E+01  0.34727502744E+02  0.20962612222E+02  0.40659142971E+02  0.00000000000E+00 0. -1.
         11    1    3    3    0    0  0.74794337086E+01 -0.10978588542E+02 -0.19953759368E+01  0.13433274372E+02  0.51100000000E-03 0. -1.
        -11    1    3    3    0    0 -0.30472752218E+01 -0.81139517761E+01 -0.19526594340E+02  0.21363754036E+02  0.51100000000E-03 0.  1.
        -12    1    3    3    0    0 -0.16509089258E+01 -0.15634962426E+02  0.55935805551E+00  0.15731828621E+02  0.00000000000E+00 0.  1.
</event>
<event>
 7    1  0.5946946E-013  0.5052885E+02  0.7816164E-02  0.1300439E+00
        -11   -1    0    0    0    0  0.00000000000E+00  0.00000000000E+00  0.45593999997E+02  0.45594000000E+02  0.51100000000E-03 0.  1.
         11   -1    0    0    0    0 -0.00000000000E+00 -0.00000000000E+00 -0.45593999997E+02  0.45594000000E+02  0.51100000000E-03 0. -1.
    9900012    2    1    2    0    0 -0.19674904760E+02 -0.27296351776E+02  0.22824852448E+02  0.50528848670E+02  0.29999966017E+02 0.  0.
         12    1    1    2    0    0  0.19674904760E+02  0.27296351776E+02 -0.22824852448E+02  0.40659151330E+02  0.00000000000E+00 0. -1.
         11    1    3    3    0    0 -0.46593832254E+01 -0.14188369055E+02  0.19657061451E+02  0.24686428126E+02  0.51100000000E-03 0. -1.
        -11    1    3    3    0    0 -0.13806361153E+02 -0.27444626731E+01  0.55652518018E+01  0.15136700814E+02  0.51100000000E-03 0.  1.
        -12    1    3    3    0    0 -0.12091603817E+01 -0.10363520048E+02 -0.23974608051E+01  0.10705719730E+02  0.00000000000E+00 0.  1.
</event>
<event>
 7    1  0.5946946E-013  0.5052886E+02  0.7816164E-02  0.1300439E+00
        -11   -1    0    0    0    0  0.00000000000E+00  0.00000000000E+00  0.45593999997E+02  0.45594000000E+02  0.51100000000E-03 0.  1.
         11   -1    0    0    0    0 -0.00000000000E+00 -0.00000000000E+00 -0.45593999997E+02  0.45594000000E+02  0.51100000000E-03 0. -1.
    9900012    2    1    2    0    0  0.20396453631E+02  0.16181036181E+02  0.31230186983E+02  0.50528857958E+02  0.29999994250E+02 0.  0.
         12    1    1    2    0    0 -0.20396453631E+02 -0.16181036181E+02 -0.31230186983E+02  0.40659142042E+02  0.00000000000E+00 0. -1.
         11    1    3    3    0    0 -0.16711140310E+01  0.21122428696E+01  0.84997049776E+01  0.89162310990E+01  0.51100000000E-03 0. -1.
        -11    1    3    3    0    0  0.13221819938E+02 -0.28858646255E+01  0.24778637590E+01  0.13758072037E+02  0.51100000000E-03 0.  1.
        -12    1    3    3    0    0  0.88457477243E+01  0.16954657936E+02  0.20252618246E+02  0.27854554823E+02  0.00000000000E+00 0.  1.
</event>
<event>
 7    1  0.5946946E-013  0.5052885E+02  0.7816164E-02  0.1300439E+00
        -11   -1    0    0    0    0  0.00000000000E+00  0.00000000000E+00  0.45593999997E+02  0.45594000000E+02  0.51100000000E-03 0.  1.
         11   -1    0    0    0    0 -0.00000000000E+00 -0.00000000000E+00 -0.45593999997E+02  0.45594000000E+02  0.51100000000E-03 0. -1.
    9900012    2    1    2    0    0 -0.35751676037E+01  0.39299311163E+02  0.97953323711E+01  0.50528853212E+02  0.29999979822E+02 0.  0.
         12    1    1    2    0    0  0.35751676037E+01 -0.39299311163E+02 -0.97953323711E+01  0.40659146788E+02  0.00000000000E+00 0. -1.
         11    1    3    3    0    0 -0.19368180514E+01  0.13216200946E+02 -0.20779749184E+01  0.13518032832E+02  0.51100000000E-03 0. -1.
        -11    1    3    3    0    0 -0.99804414734E+01  0.20741663947E+02  0.13914837350E+02  0.26896998606E+02  0.51100000000E-03 0.  1.
        -12    1    3    3    0    0  0.83420919211E+01  0.53414462701E+01 -0.20415300608E+01  0.10113821773E+02  0.00000000000E+00 0.  1.
</event>
<event>
 7    1  0.5946946E-013  0.5052886E+02  0.7816164E-02  0.1300439E+00
        -11   -1    0    0    0    0  0.00000000000E+00  0.00000000000E+00  0.45593999997E+02  0.45594000000E+02  0.51100000000E-03 0. -1.
         11   -1    0    0    0    0 -0.00000000000E+00 -0.00000000000E+00 -0.45593999997E+02  0.45594000000E+02  0.51100000000E-03 0.  1.
    9900012    2    1    2    0    0 -0.62162259130E+00 -0.38939198632E+02 -0.11684083529E+02  0.50528863109E+02  0.30000009907E+02 0.  0.
         12    1    1    2    0    0  0.62162259130E+00  0.38939198632E+02  0.11684083529E+02  0.40659136891E+02  0.00000000000E+00 0. -1.
         11    1    3    3    0    0  0.54557500795E+01 -0.15842209274E+02  0.87382431248E+01  0.18897028782E+02  0.51100000000E-03 0. -1.
        -11    1    3    3    0    0 -0.41010927326E+01 -0.20063196894E+02 -0.16542541434E+02  0.26325016782E+02  0.51100000000E-03 0.  1.
         12    1    3    3    0    0 -0.19762799382E+01 -0.30337924647E+01 -0.38797852200E+01  0.53068175460E+01  0.00000000000E+00 0. -1.
</event>
<event>
 7    1  0.5946946E-013  0.5052886E+02  0.7816164E-02  0.1300439E+00
        -11   -1    0    0    0    0  0.00000000000E+00  0.00000000000E+00  0.45593999997E+02  0.45594000000E+02  0.51100000000E-03 0.  1.
         11   -1    0    0    0    0 -0.00000000000E+00 -0.00000000000E+00 -0.45593999997E+02  0.45594000000E+02  0.51100000000E-03 0. -1.
    9900012    2    1    2    0    0 -0.16928761778E+02 -0.10431711031E+02  0.35464940335E+02  0.50528861257E+02  0.30000004276E+02 0.  0.
         12    1    1    2    0    0  0.16928761778E+02  0.10431711031E+02 -0.35464940335E+02  0.40659138743E+02  0.00000000000E+00 0. -1.
         11    1    3    3    0    0  0.14119803533E+01 -0.68275590915E+01 -0.16349854204E+01  0.71611751307E+01  0.51100000000E-03 0. -1.
        -11    1    3    3    0    0 -0.18165704358E+02 -0.37168298846E+01  0.24301049483E+02  0.30567117062E+02  0.51100000000E-03 0.  1.
        -12    1    3    3    0    0 -0.17503777313E+00  0.11267794498E+00  0.12798876272E+02  0.12800569064E+02  0.00000000000E+00 0.  1.
</event>
<event>
 7    1  0.5946946E-013  0.5052887E+02  0.7816164E-02  0.1300439E+00
        -11   -1    0    0    0    0  0.00000000000E+00  0.00000000000E+00  0.45593999997E+02  0.45594000000E+02  0.51100000000E-03 0.  1.
         11   -1    0    0    0    0 -0.00000000000E+00 -0.00000000000E+00 -0.45593999997E+02  0.45594000000E+02  0.51100000000E-03 0. -1.
    9900012    2    1    2    0    0  0.13442172436E+02 -0.15610319962E+02  0.35054110502E+02  0.50528871231E+02  0.30000034595E+02 0.  0.
         12    1    1    2    0    0 -0.13442172436E+02  0.15610319962E+02 -0.35054110502E+02  0.40659128769E+02  0.00000000000E+00 0. -1.
         11    1    3    3    0    0 -0.20825141345E+01 -0.13444940410E+01 -0.84427518332E+00  0.26186504526E+01  0.51100000000E-03 0. -1.
        -11    1    3    3    0    0  0.85753523070E+01 -0.15751239600E+02  0.36611589543E+02  0.40768207040E+02  0.51100000000E-03 0.  1.
        -12    1    3    3    0    0  0.69493342634E+01  0.14854136791E+01 -0.71320385727E+00  0.71420137388E+01  0.00000000000E+00 0.  1.
</event>
<event>
 7    1  0.6153649E-013  0.5052886E+02  0.7816164E-02  0.1300439E+00
        -11   -1    0    0    0    0  0.00000000000E+00  0.00000000000E+00  0.45593999997E+02  0.45594000000E+02  0.51100000000E-03 0.  1.
         11   -1    0    0    0    0 -0.00000000000E+00 -0.00000000000E+00 -0.45593999997E+02  0.45594000000E+02  0.51100000000E-03 0. -1.
    9900012    2    1    2    0    0 -0.46961031185E+01 -0.40352933858E+02 -0.16592268569E+01  0.50528859709E+02  0.29999999570E+02 0.  0.
         12    1    1    2    0    0  0.46961031185E+01  0.40352933858E+02  0.16592268569E+01  0.40659140291E+02  0.00000000000E+00 0. -1.
         11    1    3    3    0    0  0.74229758472E+00  0.19458125731E+01 -0.45740976594E+01  0.50258891684E+01  0.51100000000E-03 0. -1.
        -11    1    3    3    0    0 -0.52630919925E+01 -0.16705334242E+02  0.82472425818E+01  0.19359373438E+02  0.51100000000E-03 0.  1.
        -12    1    3    3    0    0 -0.17530871076E+00 -0.25593412190E+02 -0.53323717793E+01  0.26143597102E+02  0.00000000000E+00 0.  1.
</event>
<event>
 7    1  0.5978179E-013  0.5052887E+02  0.7816164E-02  0.1300439E+00
        -11   -1    0    0    0    0  0.00000000000E+00  0.00000000000E+00  0.45593999997E+02  0.45594000000E+02  0.51100000000E-03 0. -1.
         11   -1    0    0    0    0 -0.00000000000E+00 -0.00000000000E+00 -0.45593999997E+02  0.45594000000E+02  0.51100000000E-03 0.  1.
    9900012    2    1    2    0    0  0.37636228818E+02 -0.15384237585E+02  0.67283017658E-01  0.50528868028E+02  0.30000024857E+02 0.  0.
         12    1    1    2    0    0 -0.37636228818E+02  0.15384237585E+02 -0.67283017658E-01  0.40659131972E+02  0.00000000000E+00 0. -1.
         11    1    3    3    0    0  0.22084422811E+01 -0.26065536070E+01  0.90008730464E+01  0.96274116394E+01  0.51100000000E-03 0. -1.
        -11    1    3    3    0    0  0.14455093159E+02 -0.15027171773E+01 -0.89923612301E+01  0.17090068399E+02  0.51100000000E-03 0.  1.
        -12    1    3    3    0    0  0.20972693379E+02 -0.11274966801E+02  0.58771201396E-01  0.23811387989E+02  0.00000000000E+00 0.  1.
</event>
<event>
 7    1  0.5946946E-013  0.5052886E+02  0.7816164E-02  0.1300439E+00
        -11   -1    0    0    0    0  0.00000000000E+00  0.00000000000E+00  0.45593999997E+02  0.45594000000E+02  0.51100000000E-03 0.  1.
         11   -1    0    0    0    0 -0.00000000000E+00 -0.00000000000E+00 -0.45593999997E+02  0.45594000000E+02  0.51100000000E-03 0. -1.
    9900012    2    1    2    0    0  0.35699619987E+02 -0.65549823552E+01  0.18323066600E+02  0.50528862890E+02  0.30000009239E+02 0.  0.
         12    1    1    2    0    0 -0.35699619987E+02  0.65549823552E+01 -0.18323066600E+02  0.40659137110E+02  0.00000000000E+00 0. -1.
         11    1    3    3    0    0  0.40147832887E+02 -0.59125873470E+01  0.17671467651E+02  0.44261585420E+02  0.51100000000E-03 0. -1.
        -11    1    3    3    0    0 -0.34596851809E+01  0.15036964571E+01  0.93789543451E+00  0.38871805584E+01  0.51100000000E-03 0.  1.
         12    1    3    3    0    0 -0.98852771879E+00 -0.21460914654E+01 -0.28629648559E+00  0.23800969111E+01  0.00000000000E+00 0. -1.
</event>
<event>
 7    1  0.5946946E-013  0.5052887E+02  0.7816164E-02  0.1300439E+00
        -11   -1    0    0    0    0  0.00000000000E+00  0.00000000000E+00  0.45593999997E+02  0.45594000000E+02  0.51100000000E-03 0. -1.
         11   -1    0    0    0    0 -0.00000000000E+00 -0.00000000000E+00 -0.45593999997E+02  0.45594000000E+02  0.51100000000E-03 0.  1.
    9900012    2    1    2    0    0  0.31810661055E+02  0.40369191800E+01 -0.24998997063E+02  0.50528871537E+02  0.30000035523E+02 0.  0.
         12    1    1    2    0    0 -0.31810661055E+02 -0.40369191800E+01  0.24998997063E+02  0.40659128463E+02  0.00000000000E+00 0. -1.
         11    1    3    3    0    0  0.17139808666E+01  0.63681999863E+01  0.33473797513E+01  0.73957185545E+01  0.51100000000E-03 0. -1.
        -11    1    3    3    0    0  0.19753353595E+02  0.39699222779E+01 -0.20241095835E+02  0.28559713269E+02  0.51100000000E-03 0.  1.
         12    1    3    3    0    0  0.10343326594E+02 -0.63012030841E+01 -0.81052809790E+01  0.14573439714E+02  0.00000000000E+00 0. -1.
</event>
<event>
 7    1  0.5946946E-013  0.5052886E+02  0.7816164E-02  0.1300439E+00
        -11   -1    0    0    0    0  0.00000000000E+00  0.00000000000E+00  0.45593999997E+02  0.45594000000E+02  0.51100000000E-03 0.  1.
         11   -1    0    0    0    0 -0.00000000000E+00 -0.00000000000E+00 -0.45593999997E+02  0.45594000000E+02  0.51100000000E-03 0. -1.
    9900012    2    1    2    0    0  0.24244571000E+02  0.12250083079E+02  0.30253958712E+02  0.50528858639E+02  0.29999996319E+02 0.  0.
         12    1    1    2    0    0 -0.24244571000E+02 -0.12250083079E+02 -0.30253958712E+02  0.40659141361E+02  0.00000000000E+00 0. -1.
         11    1    3    3    0    0  0.50565583635E+01 -0.44486672416E+00 -0.42509069222E+01  0.66209439514E+01  0.51100000000E-03 0. -1.
        -11    1    3    3    0    0  0.18195128120E+02  0.43447071747E+01  0.24858889536E+02  0.31111148435E+02  0.51100000000E-03 0.  1.
         12    1    3    3    0    0  0.99288451679E+00  0.83502426285E+01  0.96459760989E+01  0.12796766252E+02  0.00000000000E+00 0. -1.
</event>
<event>
 7    1  0.5946946E-013  0.5052887E+02  0.7816164E-02  0.1300439E+00
        -11   -1    0    0    0    0  0.00000000000E+00  0.00000000000E+00  0.45593999997E+02  0.45594000000E+02  0.51100000000E-03 0.  1.
         11   -1    0    0    0    0 -0.00000000000E+00 -0.00000000000E+00 -0.45593999997E+02  0.45594000000E+02  0.51100000000E-03 0. -1.
    9900012    2    1    2    0    0  0.31660065942E+02  0.13377882155E+02  0.21721818059E+02  0.50528869584E+02  0.30000029587E+02 0.  0.
         12    1    1    2    0    0 -0.31660065942E+02 -0.13377882155E+02 -0.21721818059E+02  0.40659130416E+02  0.00000000000E+00 0. -1.
         11    1    3    3    0    0  0.13103163712E+01  0.27856513772E+01 -0.13744497311E+01  0.33713342926E+01  0.51100000000E-03 0. -1.
        -11    1    3    3    0    0  0.28889234607E+02 -0.30173594713E+00  0.11267204253E+02  0.31010140482E+02  0.51100000000E-03 0.  1.
        -12    1    3    3    0    0  0.14605149642E+01  0.10893966725E+02  0.11829063538E+02  0.16147394810E+02  0.00000000000E+00 0.  1.
</event>
<event>
 7    1  0.5946946E-013  0.5052888E+02  0.7816164E-02  0.1300439E+00
        -11   -1    0    0    0    0  0.00000000000E+00  0.00000000000E+00  0.45593999997E+02  0.45594000000E+02  0.51100000000E-03 0.  1.
         11   -1    0    0    0    0 -0.00000000000E+00 -0.00000000000E+00 -0.45593999997E+02  0.45594000000E+02  0.51100000000E-03 0. -1.
    9900012    2    1    2    0    0 -0.59236626546E+01  0.39794821275E+02  0.58691417974E+01  0.50528875502E+02  0.30000047575E+02 0.  0.
         12    1    1    2    0    0  0.59236626546E+01 -0.39794821275E+02 -0.58691417974E+01  0.40659124498E+02  0.00000000000E+00 0. -1.
         11    1    3    3    0    0 -0.62231880335E+01  0.35594886426E+01  0.10235226531E+02  0.12496315101E+02  0.51100000000E-03 0. -1.
        -11    1    3    3    0    0  0.11060503775E+01  0.32577449612E+02 -0.43005005381E+00  0.32599056949E+02  0.51100000000E-03 0.  1.
         12    1    3    3    0    0 -0.80652499868E+00  0.36578830198E+01 -0.39360346795E+01  0.54335034515E+01  0.00000000000E+00 0. -1.
</event>
<event>
 7    1  0.5946946E-013  0.5052886E+02  0.7816164E-02  0.1300439E+00
        -11   -1    0    0    0    0  0.00000000000E+00  0.00000000000E+00  0.45593999997E+02  0.45594000000E+02  0.51100000000E-03 0.  1.
         11   -1    0    0    0    0 -0.00000000000E+00 -0.00000000000E+00 -0.45593999997E+02  0.45594000000E+02  0.51100000000E-03 0. -1.
    9900012    2    1    2    0    0 -0.21819916971E+02 -0.41992774413E+01  0.34050296478E+02  0.50528863291E+02  0.30000010460E+02 0.  0.
         12    1    1    2    0    0  0.21819916971E+02  0.41992774413E+01 -0.34050296478E+02  0.40659136709E+02  0.00000000000E+00 0. -1.
         11    1    3    3    0    0  0.13484993123E+01  0.17143262243E+00 -0.27936357010E+01  0.31068054703E+01  0.51100000000E-03 0. -1.
        -11    1    3    3    0    0 -0.17156067654E+02  0.27958198045E+00  0.35865361134E+02  0.39758432476E+02  0.51100000000E-03 0.  1.
        -12    1    3    3    0    0 -0.60123486292E+01 -0.46502920442E+01  0.97857104526E+00  0.76636253448E+01  0.00000000000E+00 0.  1.
</event>
<event>
 7    1  0.5946946E-013  0.5052886E+02  0.7816164E-02  0.1300439E+00
        -11   -1    0    0    0    0  0.00000000000E+00  0.00000000000E+00  0.45593999997E+02  0.45594000000E+02  0.51100000000E-03 0. -1.
         11   -1    0    0    0    0 -0.00000000000E+00 -0.00000000000E+00 -0.45593999997E+02  0.45594000000E+02  0.51100000000E-03 0.  1.
    9900012    2    1    2    0    0 -0.43827036696E+01 -0.40143770239E+02  0.47366001902E+01  0.50528858816E+02  0.29999996858E+02 0.  0.
         12    1    1    2    0    0  0.43827036696E+01  0.40143770239E+02 -0.47366001902E+01  0.40659141184E+02  0.00000000000E+00 0. -1.
         11    1    3    3    0    0 -0.86534673413E+01 -0.33090848338E+02  0.13658223905E+02  0.36829795292E+02  0.51100000000E-03 0. -1.
        -11    1    3    3    0    0  0.12582948097E+01 -0.71838296730E+01 -0.70875741215E+01  0.10169779830E+02  0.51100000000E-03 0.  1.
         12    1    3    3    0    0  0.30124688620E+01  0.13090777199E+00 -0.18340495931E+01  0.35292836950E+01  0.00000000000E+00 0. -1.
</event>
<event>
 7    1  0.5946946E-013  0.5052886E+02  0.7816164E-02  0.1300439E+00
        -11   -1    0    0    0    0  0.00000000000E+00  0.00000000000E+00  0.45593999997E+02  0.45594000000E+02  0.51100000000E-03 0.  1.
         11   -1    0    0    0    0 -0.00000000000E+00 -0.00000000000E+00 -0.45593999997E+02  0.45594000000E+02  0.51100000000E-03 0. -1.
    9900012    2    1    2    0    0 -0.20577184479E+02 -0.17184161986E+02  0.30568771953E+02  0.50528858802E+02  0.29999996814E+02 0.  0.
         12    1    1    2    0    0  0.20577184479E+02  0.17184161986E+02 -0.30568771953E+02  0.40659141198E+02  0.00000000000E+00 0. -1.
         11    1    3    3    0    0 -0.21792742668E+02 -0.92125891791E+01  0.82557440513E+01  0.25058985264E+02  0.51100000000E-03 0. -1.
        -11    1    3    3    0    0 -0.39342589214E+01 -0.48787469577E+01  0.11829480908E+02  0.13387202245E+02  0.51100000000E-03 0.  1.
         12    1    3    3    0    0  0.51498171095E+01 -0.30928258494E+01  0.10483546994E+02  0.12082671293E+02  0.00000000000E+00 0. -1.
</event>
<event>
 7    1  0.5946946E-013  0.5052879E+02  0.7816164E-02  0.1300439E+00
        -11   -1    0    0    0    0  0.00000000000E+00  0.00000000000E+00  0.45593999997E+02  0.45594000000E+02  0.51100000000E-03 0.  1.
         11   -1    0    0    0    0 -0.00000000000E+00 -0.00000000000E+00 -0.45593999997E+02  0.45594000000E+02  0.51100000000E-03 0. -1.
    9900012    2    1    2    0    0  0.12004823744E+02 -0.26381739336E+02  0.28514203105E+02  0.50528785273E+02  0.29999773316E+02 0.  0.
         12    1    1    2    0    0 -0.12004823744E+02  0.26381739336E+02 -0.28514203105E+02  0.40659214727E+02  0.00000000000E+00 0. -1.
         11    1    3    3    0    0  0.13823940039E+02 -0.84741536678E+00  0.14013540032E+02  0.19702759591E+02  0.51100000000E-03 0. -1.
        -11    1    3    3    0    0  0.20381195923E+01 -0.10779565259E+02  0.10202120407E+02  0.14981195537E+02  0.51100000000E-03 0.  1.
         12    1    3    3    0    0 -0.38572358881E+01 -0.14754758710E+02  0.42985426655E+01  0.15844830145E+02  0.00000000000E+00 0. -1.
</event>
<event>
 7    1  0.5946946E-013  0.5052886E+02  0.7816164E-02  0.1300439E+00
        -11   -1    0    0    0    0  0.00000000000E+00  0.00000000000E+00  0.45593999997E+02  0.45594000000E+02  0.51100000000E-03 0.  1.
         11   -1    0    0    0    0 -0.00000000000E+00 -0.00000000000E+00 -0.45593999997E+02  0.45594000000E+02  0.51100000000E-03 0. -1.
    9900012    2    1    2    0    0  0.24587803422E+02 -0.30712693863E+02  0.10263345991E+02  0.50528856965E+02  0.29999991231E+02 0.  0.
         12    1    1    2    0    0 -0.24587803422E+02  0.30712693863E+02 -0.10263345991E+02  0.40659143035E+02  0.00000000000E+00 0. -1.
         11    1    3    3    0    0  0.25597219612E+01 -0.58968517271E+01  0.99663737478E+01  0.11859748849E+02  0.51100000000E-03 0. -1.
        -11    1    3    3    0    0  0.14448524671E+02 -0.25852891013E+02 -0.40151363149E+01  0.29887341113E+02  0.51100000000E-03 0.  1.
        -12    1    3    3    0    0  0.75795567892E+01  0.10370488771E+01  0.43121085580E+01  0.87817670038E+01  0.00000000000E+00 0.  1.
</event>
<event>
 7    1  0.5946946E-013  0.5052879E+02  0.7816164E-02  0.1300439E+00
        -11   -1    0    0    0    0  0.00000000000E+00  0.00000000000E+00  0.45593999997E+02  0.45594000000E+02  0.51100000000E-03 0.  1.
         11   -1    0    0    0    0 -0.00000000000E+00 -0.00000000000E+00 -0.45593999997E+02  0.45594000000E+02  0.51100000000E-03 0. -1.
    9900012    2    1    2    0    0 -0.24453407037E+02 -0.17952893022E+02  0.27072057050E+02  0.50528785097E+02  0.29999772780E+02 0.  0.
         12    1    1    2    0    0  0.24453407037E+02  0.17952893022E+02 -0.27072057050E+02  0.40659214903E+02  0.00000000000E+00 0. -1.
         11    1    3    3    0    0  0.32499286309E+01 -0.98239780391E+01  0.95528500087E+01  0.14082951543E+02  0.51100000000E-03 0.  1.
        -11    1    3    3    0    0 -0.44331752810E+01  0.18104500355E+01 -0.12401045511E+01  0.49465778031E+01  0.51100000000E-03 0. -1.
         12    1    3    3    0    0 -0.23270160387E+02 -0.99393650182E+01  0.18759311593E+02  0.31499255751E+02  0.00000000000E+00 0. -1.
</event>
<event>
 7    1  0.5946946E-013  0.5052890E+02  0.7816164E-02  0.1300439E+00
        -11   -1    0    0    0    0  0.00000000000E+00  0.00000000000E+00  0.45593999997E+02  0.45594000000E+02  0.51100000000E-03 0.  1.
         11   -1    0    0    0    0 -0.00000000000E+00 -0.00000000000E+00 -0.45593999997E+02  0.45594000000E+02  0.51100000000E-03 0. -1.
    9900012    2    1    2    0    0  0.17112758193E+01 -0.12674571854E+02  0.38595193525E+02  0.50528902619E+02  0.30000130001E+02 0.  0.
         12    1    1    2    0    0 -0.17112758193E+01  0.12674571854E+02 -0.38595193525E+02  0.40659097381E+02  0.00000000000E+00 0. -1.
         11    1    3    3    0    0 -0.56031510657E+01  0.28235607929E+01  0.62749482983E+00  0.63056758115E+01  0.51100000000E-03 0. -1.
        -11    1    3    3    0    0  0.51224336749E+01 -0.50282476878E+01  0.30101309824E+02  0.30945297784E+02  0.51100000000E-03 0.  1.
         12    1    3    3    0    0  0.21919932102E+01 -0.10469884959E+02  0.78663888715E+01  0.13277929024E+02  0.00000000000E+00 0. -1.
</event>
<event>
 7    1  0.5946946E-013  0.5052892E+02  0.7816164E-02  0.1300439E+00
        -11   -1    0    0    0    0  0.00000000000E+00  0.00000000000E+00  0.45593999997E+02  0.45594000000E+02  0.51100000000E-03 0.  1.
         11   -1    0    0    0    0 -0.00000000000E+00 -0.00000000000E+00 -0.45593999997E+02  0.45594000000E+02  0.51100000000E-03 0. -1.
    9900012    2    1    2    0    0 -0.11201166042E+02  0.12754472120E+00  0.39085526807E+02  0.50528919906E+02  0.30000182545E+02 0.  0.
         12    1    1    2    0    0  0.11201166042E+02 -0.12754472120E+00 -0.39085526807E+02  0.40659080094E+02  0.00000000000E+00 0. -1.
         11    1    3    3    0    0 -0.20813672762E+01 -0.60369445022E+01  0.11654039882E+02  0.13288846244E+02  0.51100000000E-03 0.  1.
        -11    1    3    3    0    0 -0.14024837713E+02 -0.68843871963E+00  0.82428043568E+01  0.16282316932E+02  0.51100000000E-03 0. -1.
        -12    1    3    3    0    0  0.49050389468E+01  0.68529279430E+01  0.19188682568E+02  0.20957756730E+02  0.00000000000E+00 0.  1.
</event>
<event>
 7    1  0.5946946E-013  0.5052886E+02  0.7816164E-02  0.1300439E+00
        -11   -1    0    0    0    0  0.00000000000E+00  0.00000000000E+00  0.45593999997E+02  0.45594000000E+02  0.51100000000E-03 0. -1.
         11   -1    0    0    0    0 -0.00000000000E+00 -0.00000000000E+00 -0.45593999997E+02  0.45594000000E+02  0.51100000000E-03 0.  1.
    9900012    2    1    2    0    0  0.14224814330E+00  0.38642402978E+02 -0.12645542789E+02  0.50528864558E+02  0.30000014311E+02 0.  0.
         12    1    1    2    0    0 -0.14224814330E+00 -0.38642402978E+02  0.12645542789E+02  0.40659135442E+02  0.00000000000E+00 0. -1.
         11    1    3    3    0    0 -0.48376954349E+01  0.18048020937E+01 -0.32487857962E+00  0.51736016537E+01  0.51100000000E-03 0. -1.
        -11    1    3    3    0    0  0.19027883546E+01  0.34857971630E+02 -0.17470938708E+02  0.39037577912E+02  0.51100000000E-03 0.  1.
        -12    1    3    3    0    0  0.30771552236E+01  0.19796292546E+01  0.51502744981E+01  0.63176849923E+01  0.00000000000E+00 0.  1.
</event>
<event>
 7    1  0.5946946E-013  0.5052885E+02  0.7816164E-02  0.1300439E+00
        -11   -1    0    0    0    0  0.00000000000E+00  0.00000000000E+00  0.45593999997E+02  0.45594000000E+02  0.51100000000E-03 0. -1.
         11   -1    0    0    0    0 -0.00000000000E+00 -0.00000000000E+00 -0.45593999997E+02  0.45594000000E+02  0.51100000000E-03 0.  1.
    9900012    2    1    2    0    0  0.96975244024E+01  0.13658050833E+02 -0.37048371475E+02  0.50528853906E+02  0.29999981934E+02 0.  0.
         12    1    1    2    0    0 -0.96975244024E+01 -0.13658050833E+02  0.37048371475E+02  0.40659146094E+02  0.00000000000E+00 0. -1.
         11    1    3    3    0    0 -0.74651420447E+01  0.85400111800E+01 -0.56284488301E+01  0.12662526336E+02  0.51100000000E-03 0. -1.
        -11    1    3    3    0    0  0.12446372204E+02  0.70768630805E+01 -0.28716830529E+02  0.32088168037E+02  0.51100000000E-03 0.  1.
         12    1    3    3    0    0  0.47162942436E+01 -0.19588234274E+01 -0.27030921164E+01  0.57781595341E+01  0.00000000000E+00 0. -1.
</event>
<event>
 7    1  0.5946946E-013  0.5052886E+02  0.7816164E-02  0.1300439E+00
        -11   -1    0    0    0    0  0.00000000000E+00  0.00000000000E+00  0.45593999997E+02  0.45594000000E+02  0.51100000000E-03 0. -1.
         11   -1    0    0    0    0 -0.00000000000E+00 -0.00000000000E+00 -0.45593999997E+02  0.45594000000E+02  0.51100000000E-03 0.  1.
    9900012    2    1    2    0    0  0.22227339071E+02  0.66163117393E+01 -0.33396641326E+02  0.50528857915E+02  0.29999994119E+02 0.  0.
         12    1    1    2    0    0 -0.22227339071E+02 -0.66163117393E+01  0.33396641326E+02  0.40659142085E+02  0.00000000000E+00 0. -1.
         11    1    3    3    0    0  0.36818869039E+01 -0.69315023051E+01 -0.83343399334E+01  0.11448285364E+02  0.51100000000E-03 0. -1.
        -11    1    3    3    0    0  0.99140270049E+01  0.11998167550E+02 -0.25956964567E+02  0.30265623500E+02  0.51100000000E-03 0.  1.
        -12    1    3    3    0    0  0.86314251624E+01  0.15496464942E+01  0.89466317488E+00  0.88149490519E+01  0.00000000000E+00 0.  1.
</event>
<event>
 7    1  0.5946946E-013  0.5052886E+02  0.7816164E-02  0.1300439E+00
        -11   -1    0    0    0    0  0.00000000000E+00  0.00000000000E+00  0.45593999997E+02  0.45594000000E+02  0.51100000000E-03 0.  1.
         11   -1    0    0    0    0 -0.00000000000E+00 -0.00000000000E+00 -0.45593999997E+02  0.45594000000E+02  0.51100000000E-03 0. -1.
    9900012    2    1    2    0    0 -0.39396270491E+02 -0.14703622973E+01 -0.99467192803E+01  0.50528864270E+02  0.30000013434E+02 0.  0.
         12    1    1    2    0    0  0.39396270491E+02  0.14703622973E+01  0.99467192803E+01  0.40659135730E+02  0.00000000000E+00 0. -1.
         11    1    3    3    0    0  0.59531346468E+00  0.61138138538E+01  0.29185232052E+01  0.68008011235E+01  0.51100000000E-03 0. -1.
        -11    1    3    3    0    0 -0.23530943916E+02 -0.90163183820E+01 -0.90091096024E+01  0.26761228948E+02  0.51100000000E-03 0.  1.
         12    1    3    3    0    0 -0.16460640040E+02  0.14321422308E+01 -0.38561328831E+01  0.16966834198E+02  0.00000000000E+00 0. -1.
</event>
<event>
 7    1  0.5946946E-013  0.5052886E+02  0.7816164E-02  0.1300439E+00
        -11   -1    0    0    0    0  0.00000000000E+00  0.00000000000E+00  0.45593999997E+02  0.45594000000E+02  0.51100000000E-03 0.  1.
         11   -1    0    0    0    0 -0.00000000000E+00 -0.00000000000E+00 -0.45593999997E+02  0.45594000000E+02  0.51100000000E-03 0. -1.
    9900012    2    1    2    0    0  0.25819876632E+02  0.27756209845E+02  0.14700096652E+02  0.50528855200E+02  0.29999985867E+02 0.  0.
         12    1    1    2    0    0 -0.25819876632E+02 -0.27756209845E+02 -0.14700096652E+02  0.40659144800E+02  0.00000000000E+00 0. -1.
         11    1    3    3    0    0  0.60929095225E+01 -0.92580346851E+00 -0.40265010216E+01  0.73616145817E+01  0.51100000000E-03 0. -1.
        -11    1    3    3    0    0  0.17475761051E+02  0.23190588138E+02  0.21961808784E+02  0.36407782792E+02  0.51100000000E-03 0.  1.
        -12    1    3    3    0    0  0.22512060587E+01  0.54914251756E+01 -0.32352111106E+01  0.67594578265E+01  0.00000000000E+00 0.  1.
</event>
<event>
 7    1  0.5946946E-013  0.5052888E+02  0.7816164E-02  0.1300439E+00
        -11   -1    0    0    0    0  0.00000000000E+00  0.00000000000E+00  0.45593999997E+02  0.45594000000E+02  0.51100000000E-03 0.  1.
         11   -1    0    0    0    0 -0.00000000000E+00 -0.00000000000E+00 -0.45593999997E+02  0.45594000000E+02  0.51100000000E-03 0. -1.
    9900012    2    1    2    0    0  0.10130098094E+02 -0.11164371216E+02  0.37761115714E+02  0.50528881318E+02  0.30000065253E+02 0.  0.
         12    1    1    2    0    0 -0.10130098094E+02  0.11164371216E+02 -0.37761115714E+02  0.40659118682E+02  0.00000000000E+00 0. -1.
         11    1    3    3    0    0  0.34436314943E+01 -0.11578477537E+02  0.10168214010E+02  0.15789626859E+02  0.51100000000E-03 0. -1.
        -11    1    3    3    0    0  0.99986130388E+01  0.77761296258E+01  0.19892180301E+02  0.23582605709E+02  0.51100000000E-03 0.  1.
        -12    1    3    3    0    0 -0.33121464388E+01 -0.73620233051E+01  0.77007214034E+01  0.11156648749E+02  0.00000000000E+00 0.  1.
</event>
<event>
 7    1  0.5946946E-013  0.5052884E+02  0.7816164E-02  0.1300439E+00
        -11   -1    0    0    0    0  0.00000000000E+00  0.00000000000E+00  0.45593999997E+02  0.45594000000E+02  0.51100000000E-03 0. -1.
         11   -1    0    0    0    0 -0.00000000000E+00 -0.00000000000E+00 -0.45593999997E+02  0.45594000000E+02  0.51100000000E-03 0.  1.
    9900012    2    1    2    0    0 -0.19846708486E+02 -0.27623070591E+02 -0.22276479661E+02  0.50528838515E+02  0.29999935150E+02 0.  0.
         12    1    1    2    0    0  0.19846708486E+02  0.27623070591E+02  0.22276479661E+02  0.40659161485E+02  0.00000000000E+00 0. -1.
         11    1    3    3    0    0 -0.97363310207E+00 -0.26129075709E+01  0.56859077538E+00  0.28457939353E+01  0.51100000000E-03 0. -1.
        -11    1    3    3    0    0 -0.15627481633E+02 -0.20075903401E+02 -0.29386882190E+02  0.38869640140E+02  0.51100000000E-03 0.  1.
        -12    1    3    3    0    0 -0.32455937511E+01 -0.49342596196E+01  0.65418117538E+01  0.88134044394E+01  0.00000000000E+00 0.  1.
</event>
<event>
 7    1  0.5946946E-013  0.5052884E+02  0.7816164E-02  0.1300439E+00
        -11   -1    0    0    0    0  0.00000000000E+00  0.00000000000E+00  0.45593999997E+02  0.45594000000E+02  0.51100000000E-03 0.  1.
         11   -1    0    0    0    0 -0.00000000000E+00 -0.00000000000E+00 -0.45593999997E+02  0.45594000000E+02  0.51100000000E-03 0. -1.
    9900012    2    1    2    0    0  0.36373117173E+02  0.52440348376E+01  0.17397224666E+02  0.50528843831E+02  0.29999951310E+02 0.  0.
         12    1    1    2    0    0 -0.36373117173E+02 -0.52440348376E+01 -0.17397224666E+02  0.40659156169E+02  0.00000000000E+00 0. -1.
         11    1    3    3    0    0 -0.19914985376E+01  0.50441124338E+00  0.59240190896E+01  0.62701275555E+01  0.51100000000E-03 0. -1.
        -11    1    3    3    0    0  0.37935548641E+02  0.79473053096E+01  0.12716515543E+02  0.40791853110E+02  0.51100000000E-03 0.  1.
         12    1    3    3    0    0  0.42906706960E+00 -0.32076817153E+01 -0.12433099658E+01  0.34668631655E+01  0.00000000000E+00 0. -1.
</event>
<event>
 7    1  0.5946946E-013  0.5052886E+02  0.7816164E-02  0.1300439E+00
        -11   -1    0    0    0    0  0.00000000000E+00  0.00000000000E+00  0.45593999997E+02  0.45594000000E+02  0.51100000000E-03 0.  1.
         11   -1    0    0    0    0 -0.00000000000E+00 -0.00000000000E+00 -0.45593999997E+02  0.45594000000E+02  0.51100000000E-03 0. -1.
    9900012    2    1    2    0    0  0.37575550954E+02 -0.45860133300E+00  0.15525238228E+02  0.50528863675E+02  0.30000011627E+02 0.  0.
         12    1    1    2    0    0 -0.37575550954E+02  0.45860133300E+00 -0.15525238228E+02  0.40659136325E+02  0.00000000000E+00 0. -1.
         11    1    3    3    0    0  0.15938348555E+02 -0.35757764135E+01 -0.61753957974E+01  0.17462893378E+02  0.51100000000E-03 0. -1.
        -11    1    3    3    0    0  0.11892957262E+02 -0.42818250415E+01  0.97582363884E+01  0.15968708019E+02  0.51100000000E-03 0.  1.
         12    1    3    3    0    0  0.97442451360E+01  0.73990001220E+01  0.11942397637E+02  0.17097262278E+02  0.00000000000E+00 0. -1.
</event>
<event>
 7    1  0.5946946E-013  0.5052878E+02  0.7816164E-02  0.1300439E+00
        -11   -1    0    0    0    0  0.00000000000E+00  0.00000000000E+00  0.45593999997E+02  0.45594000000E+02  0.51100000000E-03 0. -1.
         11   -1    0    0    0    0 -0.00000000000E+00 -0.00000000000E+00 -0.45593999997E+02  0.45594000000E+02  0.51100000000E-03 0.  1.
    9900012    2    1    2    0    0 -0.84802747712E+01 -0.21956167608E+02 -0.33153937421E+02  0.50528783053E+02  0.29999766568E+02 0.  0.
         12    1    1    2    0    0  0.84802747712E+01  0.21956167608E+02  0.33153937421E+02  0.40659216947E+02  0.00000000000E+00 0. -1.
         11    1    3    3    0    0 -0.25124331925E+01  0.35278443468E+01 -0.17715369151E+02  0.18237113552E+02  0.51100000000E-03 0. -1.
        -11    1    3    3    0    0  0.86441674878E+00 -0.14719349334E+02 -0.12198482337E+02  0.19136599299E+02  0.51100000000E-03 0.  1.
         12    1    3    3    0    0 -0.68322583275E+01 -0.10764662620E+02 -0.32400859328E+01  0.13155070203E+02  0.00000000000E+00 0. -1.
</event>
<event>
 7    1  0.5946946E-013  0.5052887E+02  0.7816164E-02  0.1300439E+00
        -11   -1    0    0    0    0  0.00000000000E+00  0.00000000000E+00  0.45593999997E+02  0.45594000000E+02  0.51100000000E-03 0.  1.
         11   -1    0    0    0    0 -0.00000000000E+00 -0.00000000000E+00 -0.45593999997E+02  0.45594000000E+02  0.51100000000E-03 0. -1.
    9900012    2    1    2    0    0 -0.22159691284E+02  0.11150467175E+02  0.32214598026E+02  0.50528866192E+02  0.30000019277E+02 0.  0.
         12    1    1    2    0    0  0.22159691284E+02 -0.11150467175E+02 -0.32214598026E+02  0.40659133808E+02  0.00000000000E+00 0. -1.
         11    1    3    3    0    0 -0.62681940325E+01  0.28433777484E-05  0.23643240523E+01  0.66992749544E+01  0.51100000000E-03 0. -1.
        -11    1    3    3    0    0 -0.28405639171E+01  0.66948958531E+01  0.29125798293E+02  0.30020035981E+02  0.51100000000E-03 0.  1.
        -12    1    3    3    0    0 -0.13050933335E+02  0.44555684780E+01  0.72447568141E+00  0.13809555257E+02  0.00000000000E+00 0.  1.
</event>
<event>
 7    1  0.5946946E-013  0.5052886E+02  0.7816164E-02  0.1300439E+00
        -11   -1    0    0    0    0  0.00000000000E+00  0.00000000000E+00  0.45593999997E+02  0.45594000000E+02  0.51100000000E-03 0. -1.
         11   -1    0    0    0    0 -0.00000000000E+00 -0.00000000000E+00 -0.45593999997E+02  0.45594000000E+02  0.51100000000E-03 0.  1.
    9900012    2    1    2    0    0  0.16730866678E+02 -0.37632123449E+01 -0.36865732155E+02  0.50528857433E+02  0.29999992654E+02 0.  0.
         12    1    1    2    0    0 -0.16730866678E+02  0.37632123449E+01  0.36865732155E+02  0.40659142567E+02  0.00000000000E+00 0. -1.
         11    1    3    3    0    0  0.13199666118E+02 -0.29032646980E+00 -0.31739196051E+01  0.13579000000E+02  0.51100000000E-03 0. -1.
        -11    1    3    3    0    0  0.61996543507E+01  0.37310638719E+01 -0.19715218308E+02  0.21001104372E+02  0.51100000000E-03 0.  1.
         12    1    3    3    0    0 -0.26684537904E+01 -0.72039497471E+01 -0.13976594242E+02  0.15948753061E+02  0.00000000000E+00 0. -1.
</event>
<event>
 7    1  0.5946946E-013  0.5052886E+02  0.7816164E-02  0.1300439E+00
        -11   -1    0    0    0    0  0.00000000000E+00  0.00000000000E+00  0.45593999997E+02  0.45594000000E+02  0.51100000000E-03 0.  1.
         11   -1    0    0    0    0 -0.00000000000E+00 -0.00000000000E+00 -0.45593999997E+02  0.45594000000E+02  0.51100000000E-03 0. -1.
    9900012    2    1    2    0    0  0.26853809379E+02 -0.28612685497E+02  0.10646728059E+02  0.50528859972E+02  0.30000000370E+02 0.  0.
         12    1    1    2    0    0 -0.26853809379E+02  0.28612685497E+02 -0.10646728059E+02  0.40659140028E+02  0.00000000000E+00 0. -1.
         11    1    3    3    0    0  0.46628776359E+01 -0.10245849606E+02  0.11589550673E+02  0.16156656432E+02  0.51100000000E-03 0.  1.
        -11    1    3    3    0    0  0.91718988310E+01  0.83605875675E+00 -0.55021626956E+01  0.10728304479E+02  0.51100000000E-03 0. -1.
         12    1    3    3    0    0  0.13019032912E+02 -0.19202894647E+02  0.45593400816E+01  0.23643899060E+02  0.00000000000E+00 0. -1.
</event>
<event>
 7    1  0.5946946E-013  0.5052885E+02  0.7816164E-02  0.1300439E+00
        -11   -1    0    0    0    0  0.00000000000E+00  0.00000000000E+00  0.45593999997E+02  0.45594000000E+02  0.51100000000E-03 0. -1.
         11   -1    0    0    0    0 -0.00000000000E+00 -0.00000000000E+00 -0.45593999997E+02  0.45594000000E+02  0.51100000000E-03 0.  1.
    9900012    2    1    2    0    0 -0.23944087280E+02  0.17210809880E+02 -0.27993486667E+02  0.50528848654E+02  0.29999965968E+02 0.  0.
         12    1    1    2    0    0  0.23944087280E+02 -0.17210809880E+02  0.27993486667E+02  0.40659151346E+02  0.00000000000E+00 0. -1.
         11    1    3    3    0    0 -0.54610741055E+01 -0.79189824612E+00 -0.11774188862E+02  0.13003151804E+02  0.51100000000E-03 0. -1.
        -11    1    3    3    0    0 -0.13669887050E+01  0.57636741299E+01  0.49191376378E+01  0.76997735652E+01  0.51100000000E-03 0.  1.
        -12    1    3    3    0    0 -0.17116024470E+02  0.12239033996E+02 -0.21138435442E+02  0.29825923284E+02  0.00000000000E+00 0.  1.
</event>
<event>
 7    1  0.5946946E-013  0.5052886E+02  0.7816164E-02  0.1300439E+00
        -11   -1    0    0    0    0  0.00000000000E+00  0.00000000000E+00  0.45593999997E+02  0.45594000000E+02  0.51100000000E-03 0. -1.
         11   -1    0    0    0    0 -0.00000000000E+00 -0.00000000000E+00 -0.45593999997E+02  0.45594000000E+02  0.51100000000E-03 0.  1.
    9900012    2    1    2    0    0 -0.90852549930E+00 -0.33391113787E+02 -0.23181328014E+02  0.50528857523E+02  0.29999992926E+02 0.  0.
         12    1    1    2    0    0  0.90852549930E+00  0.33391113787E+02  0.23181328014E+02  0.40659142477E+02  0.00000000000E+00 0. -1.
         11    1    3    3    0    0 -0.13349525845E+02 -0.17013349972E+02 -0.14294149668E+02  0.25922704962E+02  0.51100000000E-03 0.  1.
        -11    1    3    3    0    0  0.10721401989E+02 -0.17468715534E+02 -0.93332367872E+01  0.22521407421E+02  0.51100000000E-03 0. -1.
         12    1    3    3    0    0  0.17195983565E+01  0.10909517202E+01  0.44605844159E+00  0.20847451396E+01  0.00000000000E+00 0. -1.
</event>
<event>
 7    1  0.5946946E-013  0.5052886E+02  0.7816164E-02  0.1300439E+00
        -11   -1    0    0    0    0  0.00000000000E+00  0.00000000000E+00  0.45593999997E+02  0.45594000000E+02  0.51100000000E-03 0.  1.
         11   -1    0    0    0    0 -0.00000000000E+00 -0.00000000000E+00 -0.45593999997E+02  0.45594000000E+02  0.51100000000E-03 0. -1.
    9900012    2    1    2    0    0  0.18102219375E+01 -0.34700267735E+02  0.21113511399E+02  0.50528857757E+02  0.29999993638E+02 0.  0.
         12    1    1    2    0    0 -0.18102219375E+01  0.34700267735E+02 -0.21113511399E+02  0.40659142243E+02  0.00000000000E+00 0. -1.
         11    1    3    3    0    0 -0.65866086687E+01 -0.11113615139E+00  0.13794171557E+01  0.67304202654E+01  0.51100000000E-03 0. -1.
        -11    1    3    3    0    0  0.24535731705E+01 -0.22993717618E+02  0.20279900570E+02  0.30757201410E+02  0.51100000000E-03 0.  1.
        -12    1    3    3    0    0  0.59432574357E+01 -0.11595413966E+02 -0.54580632673E+00  0.13041236082E+02  0.00000000000E+00 0.  1.
</event>
<event>
 7    1  0.5946946E-013  0.5052887E+02  0.7816164E-02  0.1300439E+00
        -11   -1    0    0    0    0  0.00000000000E+00  0.00000000000E+00  0.45593999997E+02  0.45594000000E+02  0.51100000000E-03 0.  1.
         11   -1    0    0    0    0 -0.00000000000E+00 -0.00000000000E+00 -0.45593999997E+02  0.45594000000E+02  0.51100000000E-03 0. -1.
    9900012    2    1    2    0    0 -0.78881627290E+01  0.19387185262E+02  0.34857985411E+02  0.50528865595E+02  0.30000017464E+02 0.  0.
         12    1    1    2    0    0  0.78881627290E+01 -0.19387185262E+02 -0.34857985411E+02  0.40659134405E+02  0.00000000000E+00 0. -1.
         11    1    3    3    0    0 -0.69178679238E+01  0.14790070427E+02  0.40337024669E+01  0.16818853578E+02  0.51100000000E-03 0. -1.
        -11    1    3    3    0    0 -0.11744498894E+00  0.77431933141E+01  0.28911339258E+02  0.29930525788E+02  0.51100000000E-03 0.  1.
         12    1    3    3    0    0 -0.85284981631E+00 -0.31460784792E+01  0.19129436862E+01  0.37794862287E+01  0.00000000000E+00 0. -1.
</event>
<event>
 7    1  0.5946946E-013  0.5052884E+02  0.7816164E-02  0.1300439E+00
        -11   -1    0    0    0    0  0.00000000000E+00  0.00000000000E+00  0.45593999997E+02  0.45594000000E+02  0.51100000000E-03 0. -1.
         11   -1    0    0    0    0 -0.00000000000E+00 -0.00000000000E+00 -0.45593999997E+02  0.45594000000E+02  0.51100000000E-03 0.  1.
    9900012    2    1    2    0    0 -0.23473127845E+02 -0.10342287565E+02 -0.31547050368E+02  0.50528843223E+02  0.29999949460E+02 0.  0.
         12    1    1    2    0    0  0.23473127845E+02  0.10342287565E+02  0.31547050368E+02  0.40659156777E+02  0.00000000000E+00 0. -1.
         11    1    3    3    0    0 -0.96987171080E+01 -0.12840142415E+02 -0.26267121064E+02  0.30804155889E+02  0.51100000000E-03 0.  1.
        -11    1    3    3    0    0 -0.50692585019E+01 -0.91444564659E+00  0.40223076776E+01  0.65354840612E+01  0.51100000000E-03 0. -1.
         12    1    3    3    0    0 -0.87051522347E+01  0.34123004962E+01 -0.93022369819E+01  0.13189203273E+02  0.00000000000E+00 0. -1.
</event>
<event>
 7    1  0.5946946E-013  0.5052891E+02  0.7816164E-02  0.1300439E+00
        -11   -1    0    0    0    0  0.00000000000E+00  0.00000000000E+00  0.45593999997E+02  0.45594000000E+02  0.51100000000E-03 0.  1.
         11   -1    0    0    0    0 -0.00000000000E+00 -0.00000000000E+00 -0.45593999997E+02  0.45594000000E+02  0.51100000000E-03 0. -1.
    9900012    2    1    2    0    0 -0.23483428980E+02 -0.99071917676E+01  0.31678667554E+02  0.50528906756E+02  0.30000142576E+02 0.  0.
         12    1    1    2    0    0  0.23483428980E+02  0.99071917676E+01 -0.31678667554E+02  0.40659093244E+02  0.00000000000E+00 0. -1.
         11    1    3    3    0    0 -0.10106197747E+02  0.51322188788E+01  0.19804076573E+02  0.22818333697E+02  0.51100000000E-03 0. -1.
        -11    1    3    3    0    0 -0.15891767461E+02 -0.85128137375E+01  0.81229146672E+01  0.19773669708E+02  0.51100000000E-03 0.  1.
         12    1    3    3    0    0  0.25145362278E+01 -0.65265969089E+01  0.37516763139E+01  0.79369033518E+01  0.00000000000E+00 0. -1.
</event>
<event>
 7    1  0.5946946E-013  0.5052888E+02  0.7816164E-02  0.1300439E+00
        -11   -1    0    0    0    0  0.00000000000E+00  0.00000000000E+00  0.45593999997E+02  0.45594000000E+02  0.51100000000E-03 0.  1.
         11   -1    0    0    0    0 -0.00000000000E+00 -0.00000000000E+00 -0.45593999997E+02  0.45594000000E+02  0.51100000000E-03 0. -1.
    9900012    2    1    2    0    0  0.23002258811E+02  0.18952458521E+02  0.27656175845E+02  0.50528884702E+02  0.30000075541E+02 0.  0.
         12    1    1    2    0    0 -0.23002258811E+02 -0.18952458521E+02 -0.27656175845E+02  0.40659115298E+02  0.00000000000E+00 0. -1.
         11    1    3    3    0    0  0.49035786100E+01 -0.53575215746E+01  0.13099329556E+02  0.14978002393E+02  0.51100000000E-03 0. -1.
        -11    1    3    3    0    0  0.14641214280E+02  0.10137807290E+02  0.88532263029E+01  0.19887682330E+02  0.51100000000E-03 0.  1.
         12    1    3    3    0    0  0.34574659211E+01  0.14172172806E+02  0.57036199865E+01  0.15663199979E+02  0.00000000000E+00 0. -1.
</event>
<event>
 7    1  0.5946946E-013  0.5052886E+02  0.7816164E-02  0.1300439E+00
        -11   -1    0    0    0    0  0.00000000000E+00  0.00000000000E+00  0.45593999997E+02  0.45594000000E+02  0.51100000000E-03 0.  1.
         11   -1    0    0    0    0 -0.00000000000E+00 -0.00000000000E+00 -0.45593999997E+02  0.45594000000E+02  0.51100000000E-03 0. -1.
    9900012    2    1    2    0    0  0.24036214037E+02  0.29613540763E+02  0.14087727349E+02  0.50528862729E+02  0.30000008751E+02 0.  0.
         12    1    1    2    0    0 -0.24036214037E+02 -0.29613540763E+02 -0.14087727349E+02  0.40659137271E+02  0.00000000000E+00 0. -1.
         11    1    3    3    0    0  0.89436563597E+01  0.37393750217E+01 -0.71018791950E+01  0.12017013065E+02  0.51100000000E-03 0. -1.
        -11    1    3    3    0    0  0.58069797633E+01  0.20661676921E+02  0.15138905402E+02  0.26264279243E+02  0.51100000000E-03 0.  1.
        -12    1    3    3    0    0  0.92855779136E+01  0.52124888209E+01  0.60507011426E+01  0.12247570421E+02  0.00000000000E+00 0.  1.
</event>
<event>
 7    1  0.5946946E-013  0.5052886E+02  0.7816164E-02  0.1300439E+00
        -11   -1    0    0    0    0  0.00000000000E+00  0.00000000000E+00  0.45593999997E+02  0.45594000000E+02  0.51100000000E-03 0.  1.
         11   -1    0    0    0    0 -0.00000000000E+00 -0.00000000000E+00 -0.45593999997E+02  0.45594000000E+02  0.51100000000E-03 0. -1.
    9900012    2    1    2    0    0 -0.11808599992E+02 -0.15598270293E+02  0.35642902583E+02  0.50528861120E+02  0.30000003862E+02 0.  0.
         12    1    1    2    0    0  0.11808599992E+02  0.15598270293E+02 -0.35642902583E+02  0.40659138880E+02  0.00000000000E+00 0. -1.
         11    1    3    3    0    0  0.34265497058E+01  0.23526754631E+01  0.24543870538E+01  0.48270426549E+01  0.51100000000E-03 0. -1.
        -11    1    3    3    0    0 -0.73958043037E+01 -0.20547032992E+02  0.29382621084E+02  0.36608973054E+02  0.51100000000E-03 0.  1.
        -12    1    3    3    0    0 -0.78393453945E+01  0.25960872357E+01  0.38058944449E+01  0.90928454114E+01  0.00000000000E+00 0.  1.
</event>
<event>
 7    1  0.5946946E-013  0.5052886E+02  0.7816164E-02  0.1300439E+00
        -11   -1    0    0    0    0  0.00000000000E+00  0.00000000000E+00  0.45593999997E+02  0.45594000000E+02  0.51100000000E-03 0. -1.
         11   -1    0    0    0    0 -0.00000000000E+00 -0.00000000000E+00 -0.45593999997E+02  0.45594000000E+02  0.51100000000E-03 0.  1.
    9900012    2    1    2    0    0  0.18976995003E+02  0.35136354864E+02  0.76469292430E+01  0.50528864504E+02  0.30000014145E+02 0.  0.
         12    1    1    2    0    0 -0.18976995003E+02 -0.35136354864E+02 -0.76469292430E+01  0.40659135496E+02  0.00000000000E+00 0. -1.
         11    1    3    3    0    0 -0.96238454180E+00 -0.75572263150E+00  0.10663510671E-02  0.12236429627E+01  0.51100000000E-03 0. -1.
        -11    1    3    3    0    0  0.81685894229E+01  0.28650481014E+02 -0.54261794300E+01  0.30282327172E+02  0.51100000000E-03 0.  1.
        -12    1    3    3    0    0  0.11770790122E+02  0.72415964811E+01  0.13072042322E+02  0.19022894369E+02  0.00000000000E+00 0.  1.
</event>
<event>
 7    1  0.5946946E-013  0.5052886E+02  0.7816164E-02  0.1300439E+00
        -11   -1    0    0    0    0  0.00000000000E+00  0.00000000000E+00  0.45593999997E+02  0.45594000000E+02  0.51100000000E-03 0.  1.
         11   -1    0    0    0    0 -0.00000000000E+00 -0.00000000000E+00 -0.45593999997E+02  0.45594000000E+02  0.51100000000E-03 0. -1.
    9900012    2    1    2    0    0  0.15378655417E+02  0.21175101523E+02  0.31117159683E+02  0.50528860884E+02  0.30000003142E+02 0.  0.
         12    1    1    2    0    0 -0.15378655417E+02 -0.21175101523E+02 -0.31117159683E+02  0.40659139116E+02  0.00000000000E+00 0. -1.
         11    1    3    3    0    0 -0.53174762808E+01  0.22376291583E+00  0.82746924478E+01  0.98385039109E+01  0.51100000000E-03 0. -1.
        -11    1    3    3    0    0  0.20828647177E+02  0.22690261750E+02  0.18305525129E+02  0.35829774937E+02  0.51100000000E-03 0.  1.
        -12    1    3    3    0    0 -0.13251547959E+00 -0.17389231429E+01  0.45369421066E+01  0.48605820359E+01  0.00000000000E+00 0.  1.
</event>
<event>
 7    1  0.5946946E-013  0.5052886E+02  0.7816164E-02  0.1300439E+00
        -11   -1    0    0    0    0  0.00000000000E+00  0.00000000000E+00  0.45593999997E+02  0.45594000000E+02  0.51100000000E-03 0.  1.
         11   -1    0    0    0    0 -0.00000000000E+00 -0.00000000000E+00 -0.45593999997E+02  0.45594000000E+02  0.51100000000E-03 0. -1.
    9900012    2    1    2    0    0 -0.30534506959E+02 -0.81981656983E+01  0.25565592493E+02  0.50528861352E+02  0.30000004566E+02 0.  0.
         12    1    1    2    0    0  0.30534506959E+02  0.81981656983E+01 -0.25565592493E+02  0.40659138648E+02  0.00000000000E+00 0. -1.
         11    1    3    3    0    0  0.46589708577E+01 -0.53708520462E+01  0.34220215441E+01  0.78906459091E+01  0.51100000000E-03 0. -1.
        -11    1    3    3    0    0 -0.30440151408E+02  0.81106086911E+00  0.18430567096E+02  0.35594191116E+02  0.51100000000E-03 0.  1.
        -12    1    3    3    0    0 -0.47533264087E+01 -0.36383745213E+01  0.37130038527E+01  0.70440243267E+01  0.00000000000E+00 0.  1.
</event>
<event>
 7    1  0.5946946E-013  0.5052887E+02  0.7816164E-02  0.1300439E+00
        -11   -1    0    0    0    0  0.00000000000E+00  0.00000000000E+00  0.45593999997E+02  0.45594000000E+02  0.51100000000E-03 0. -1.
         11   -1    0    0    0    0 -0.00000000000E+00 -0.00000000000E+00 -0.45593999997E+02  0.45594000000E+02  0.51100000000E-03 0.  1.
    9900012    2    1    2    0    0 -0.49423033815E+00  0.12931122930E+02 -0.38544868322E+02  0.50528867227E+02  0.30000022424E+02 0.  0.
         12    1    1    2    0    0  0.49423033815E+00 -0.12931122930E+02  0.38544868322E+02  0.40659132773E+02  0.00000000000E+00 0. -1.
         11    1    3    3    0    0 -0.42547135294E+00  0.78797884051E+01 -0.36649731764E+02  0.37489664306E+02  0.51100000000E-03 0.  1.
        -11    1    3    3    0    0  0.48669437884E+01  0.33030613994E+01  0.23142310419E+01  0.63208402942E+01  0.51100000000E-03 0. -1.
         12    1    3    3    0    0 -0.49357027736E+01  0.17482731257E+01 -0.42093676003E+01  0.67183626269E+01  0.00000000000E+00 0. -1.
</event>
<event>
 7    1  0.5946946E-013  0.5052886E+02  0.7816164E-02  0.1300439E+00
        -11   -1    0    0    0    0  0.00000000000E+00  0.00000000000E+00  0.45593999997E+02  0.45594000000E+02  0.51100000000E-03 0. -1.
         11   -1    0    0    0    0 -0.00000000000E+00 -0.00000000000E+00 -0.45593999997E+02  0.45594000000E+02  0.51100000000E-03 0.  1.
    9900012    2    1    2    0    0 -0.20146378349E+02 -0.12248192887E+02 -0.33125074039E+02  0.50528864253E+02  0.30000013383E+02 0.  0.
         12    1    1    2    0    0  0.20146378349E+02  0.12248192887E+02  0.33125074039E+02  0.40659135747E+02  0.00000000000E+00 0. -1.
         11    1    3    3    0    0 -0.96480301122E+01  0.70988509641E+01 -0.15871765785E+02  0.19884444158E+02  0.51100000000E-03 0. -1.
        -11    1    3    3    0    0 -0.97908422895E+01 -0.79616030745E+01 -0.41793219565E+01  0.13293398682E+02  0.51100000000E-03 0.  1.
         12    1    3    3    0    0 -0.70750594751E+00 -0.11385440777E+02 -0.13073986298E+02  0.17351021413E+02  0.00000000000E+00 0. -1.
</event>
<event>
 7    1  0.5946946E-013  0.5052885E+02  0.7816164E-02  0.1300439E+00
        -11   -1    0    0    0    0  0.00000000000E+00  0.00000000000E+00  0.45593999997E+02  0.45594000000E+02  0.51100000000E-03 0. -1.
         11   -1    0    0    0    0 -0.00000000000E+00 -0.00000000000E+00 -0.45593999997E+02  0.45594000000E+02  0.51100000000E-03 0.  1.
    9900012    2    1    2    0    0  0.12289510849E+02  0.18172808673E+02 -0.34232783865E+02  0.50528849208E+02  0.29999967652E+02 0.  0.
         12    1    1    2    0    0 -0.12289510849E+02 -0.18172808673E+02  0.34232783865E+02  0.40659150792E+02  0.00000000000E+00 0. -1.
         11    1    3    3    0    0  0.33493732969E+01  0.25519328626E+01  0.21518214913E+01  0.47287417786E+01  0.51100000000E-03 0. -1.
        -11    1    3    3    0    0  0.11215152072E+02  0.34723931015E+00 -0.22000017502E+02  0.24696173418E+02  0.51100000000E-03 0.  1.
        -12    1    3    3    0    0 -0.22750145192E+01  0.15273636501E+02 -0.14384587854E+02  0.21103934011E+02  0.00000000000E+00 0.  1.
</event>
<event>
 7    1  0.5946946E-013  0.5052886E+02  0.7816164E-02  0.1300439E+00
        -11   -1    0    0    0    0  0.00000000000E+00  0.00000000000E+00  0.45593999997E+02  0.45594000000E+02  0.51100000000E-03 0.  1.
         11   -1    0    0    0    0 -0.00000000000E+00 -0.00000000000E+00 -0.45593999997E+02  0.45594000000E+02  0.51100000000E-03 0. -1.
    9900012    2    1    2    0    0  0.14983713200E+02 -0.23304046774E+02  0.29758617802E+02  0.50528860919E+02  0.30000003250E+02 0.  0.
         12    1    1    2    0    0 -0.14983713200E+02  0.23304046774E+02 -0.29758617802E+02  0.40659139081E+02  0.00000000000E+00 0. -1.
         11    1    3    3    0    0  0.88978148007E+01 -0.15973002343E+02  0.43936088430E+01  0.18804566227E+02  0.51100000000E-03 0. -1.
        -11    1    3    3    0    0  0.47744489014E+01 -0.25231285492E+01  0.26130158610E+02  0.26682329906E+02  0.51100000000E-03 0.  1.
        -12    1    3    3    0    0  0.13114494977E+01 -0.48079158821E+01 -0.76514965065E+00  0.50419647859E+01  0.00000000000E+00 0.  1.
</event>
<event>
 7    1  0.5946946E-013  0.5052886E+02  0.7816164E-02  0.1300439E+00
        -11   -1    0    0    0    0  0.00000000000E+00  0.00000000000E+00  0.45593999997E+02  0.45594000000E+02  0.51100000000E-03 0.  1.
         11   -1    0    0    0    0 -0.00000000000E+00 -0.00000000000E+00 -0.45593999997E+02  0.45594000000E+02  0.51100000000E-03 0. -1.
    9900012    2    1    2    0    0  0.34234981371E+02  0.47237749115E+01  0.21420027717E+02  0.50528860975E+02  0.30000003419E+02 0.  0.
         12    1    1    2    0    0 -0.34234981371E+02 -0.47237749115E+01 -0.21420027717E+02  0.40659139025E+02  0.00000000000E+00 0. -1.
         11    1    3    3    0    0  0.57363820101E+01 -0.60421306543E+01 -0.25833204969E+00  0.83354758184E+01  0.51100000000E-03 0. -1.
        -11    1    3    3    0    0  0.30723525362E+02  0.12404380109E+02  0.18376789301E+02  0.37888125341E+02  0.51100000000E-03 0.  1.
        -12    1    3    3    0    0 -0.22249260016E+01 -0.16384745430E+01  0.33015704656E+01  0.43052598156E+01  0.00000000000E+00 0.  1.
</event>
<event>
 7    1  0.5946946E-013  0.5052886E+02  0.7816164E-02  0.1300439E+00
        -11   -1    0    0    0    0  0.00000000000E+00  0.00000000000E+00  0.45593999997E+02  0.45594000000E+02  0.51100000000E-03 0.  1.
         11   -1    0    0    0    0 -0.00000000000E+00 -0.00000000000E+00 -0.45593999997E+02  0.45594000000E+02  0.51100000000E-03 0. -1.
    9900012    2    1    2    0    0  0.29866014446E+02  0.13245341810E+02  0.24202231005E+02  0.50528857311E+02  0.29999992282E+02 0.  0.
         12    1    1    2    0    0 -0.29866014446E+02 -0.13245341810E+02 -0.24202231005E+02  0.40659142689E+02  0.00000000000E+00 0. -1.
         11    1    3    3    0    0 -0.26259604065E+01  0.69107431072E+01  0.52300619400E+01  0.90558040232E+01  0.51100000000E-03 0. -1.
        -11    1    3    3    0    0  0.31624979244E+02  0.17199488921E+01  0.13980631040E+02  0.34620161480E+02  0.51100000000E-03 0.  1.
        -12    1    3    3    0    0  0.86699560877E+00  0.46146498111E+01  0.49915380256E+01  0.68528918075E+01  0.00000000000E+00 0.  1.
</event>
<event>
 7    1  0.5946946E-013  0.5052885E+02  0.7816164E-02  0.1300439E+00
        -11   -1    0    0    0    0  0.00000000000E+00  0.00000000000E+00  0.45593999997E+02  0.45594000000E+02  0.51100000000E-03 0.  1.
         11   -1    0    0    0    0 -0.00000000000E+00 -0.00000000000E+00 -0.45593999997E+02  0.45594000000E+02  0.51100000000E-03 0. -1.
    9900012    2    1    2    0    0 -0.16819904269E+02  0.29173545746E+02  0.22785121922E+02  0.50528846885E+02  0.29999960590E+02 0.  0.
         12    1    1    2    0    0  0.16819904269E+02 -0.29173545746E+02 -0.22785121922E+02  0.40659153115E+02  0.00000000000E+00 0. -1.
         11    1    3    3    0    0 -0.24540913385E+02  0.23056924913E+02  0.17615463057E+02  0.38002404598E+02  0.51100000000E-03 0.  1.
        -11    1    3    3    0    0  0.64911295056E+01  0.63140913551E+01  0.61456258737E+01  0.10944004274E+02  0.51100000000E-03 0. -1.
        -12    1    3    3    0    0  0.12298796106E+01 -0.19747052205E+00 -0.97596700845E+00  0.15824380131E+01  0.00000000000E+00 0.  1.
</event>
<event>
 7    1  0.5946946E-013  0.5052888E+02  0.7816164E-02  0.1300439E+00
        -11   -1    0    0    0    0  0.00000000000E+00  0.00000000000E+00  0.45593999997E+02  0.45594000000E+02  0.51100000000E-03 0.  1.
         11   -1    0    0    0    0 -0.00000000000E+00 -0.00000000000E+00 -0.45593999997E+02  0.45594000000E+02  0.51100000000E-03 0. -1.
    9900012    2    1    2    0    0 -0.46938890127E+01  0.38938228318E+02  0.10721297388E+02  0.50528875117E+02  0.30000046405E+02 0.  0.
         12    1    1    2    0    0  0.46938890127E+01 -0.38938228318E+02 -0.10721297388E+02  0.40659124883E+02  0.00000000000E+00 0. -1.
         11    1    3    3    0    0 -0.48713563068E+01  0.17403764448E+02  0.19098631970E+02  0.26294084365E+02  0.51100000000E-03 0. -1.
        -11    1    3    3    0    0 -0.21932229827E+00  0.72391396633E+00  0.11236734166E+01  0.13545463851E+01  0.51100000000E-03 0.  1.
         12    1    3    3    0    0  0.39678959232E+00  0.20810549904E+02 -0.95010079989E+01  0.22880244367E+02  0.00000000000E+00 0. -1.
</event>
<event>
 7    1  0.5946946E-013  0.5052884E+02  0.7816164E-02  0.1300439E+00
        -11   -1    0    0    0    0  0.00000000000E+00  0.00000000000E+00  0.45593999997E+02  0.45594000000E+02  0.51100000000E-03 0. -1.
         11   -1    0    0    0    0 -0.00000000000E+00 -0.00000000000E+00 -0.45593999997E+02  0.45594000000E+02  0.51100000000E-03 0.  1.
    9900012    2    1    2    0    0  0.10570124267E+02 -0.59441724432E+01 -0.38808586844E+02  0.50528842042E+02  0.29999945870E+02 0.  0.
         12    1    1    2    0    0 -0.10570124267E+02  0.59441724432E+01  0.38808586844E+02  0.40659157958E+02  0.00000000000E+00 0. -1.
         11    1    3    3    0    0  0.11556679782E+02  0.48770005913E+01 -0.29006656608E+02  0.31602659859E+02  0.51100000000E-03 0. -1.
        -11    1    3    3    0    0  0.26309207114E+01 -0.83376358070E+01 -0.11301993948E+02  0.14288911159E+02  0.51100000000E-03 0.  1.
         12    1    3    3    0    0 -0.36174762264E+01 -0.24835372275E+01  0.15000637118E+01  0.46372710238E+01  0.00000000000E+00 0. -1.
</event>
<event>
 7    1  0.5946946E-013  0.5052886E+02  0.7816164E-02  0.1300439E+00
        -11   -1    0    0    0    0  0.00000000000E+00  0.00000000000E+00  0.45593999997E+02  0.45594000000E+02  0.51100000000E-03 0. -1.
         11   -1    0    0    0    0 -0.00000000000E+00 -0.00000000000E+00 -0.45593999997E+02  0.45594000000E+02  0.51100000000E-03 0.  1.
    9900012    2    1    2    0    0 -0.26930122797E+02 -0.28458407499E+02  0.10865225921E+02  0.50528860738E+02  0.30000002700E+02 0.  0.
         12    1    1    2    0    0  0.26930122797E+02  0.28458407499E+02 -0.10865225921E+02  0.40659139262E+02  0.00000000000E+00 0. -1.
         11    1    3    3    0    0 -0.82482582717E+01 -0.11858517697E+02 -0.88077454450E+01  0.16918468801E+02  0.51100000000E-03 0. -1.
        -11    1    3    3    0    0 -0.25210358252E+01 -0.34009083887E+01 -0.87788503328E+00  0.43234802987E+01  0.51100000000E-03 0.  1.
         12    1    3    3    0    0 -0.16160828700E+02 -0.13198981413E+02  0.20550856399E+02  0.29286911639E+02  0.00000000000E+00 0. -1.
</event>
<event>
 7    1  0.5946946E-013  0.5052887E+02  0.7816164E-02  0.1300439E+00
        -11   -1    0    0    0    0  0.00000000000E+00  0.00000000000E+00  0.45593999997E+02  0.45594000000E+02  0.51100000000E-03 0. -1.
         11   -1    0    0    0    0 -0.00000000000E+00 -0.00000000000E+00 -0.45593999997E+02  0.45594000000E+02  0.51100000000E-03 0.  1.
    9900012    2    1    2    0    0 -0.37500208857E+02  0.12648622303E+02  0.93226472380E+01  0.50528867422E+02  0.30000023017E+02 0.  0.
         12    1    1    2    0    0  0.37500208857E+02 -0.12648622303E+02 -0.93226472380E+01  0.40659132578E+02  0.00000000000E+00 0. -1.
         11    1    3    3    0    0 -0.19154498021E+02  0.95110611718E+01  0.71608020249E+00  0.21397846858E+02  0.51100000000E-03 0. -1.
        -11    1    3    3    0    0 -0.16216344166E+02 -0.17788993818E+01  0.14023069771E+02  0.21512340346E+02  0.51100000000E-03 0.  1.
        -12    1    3    3    0    0 -0.21293666703E+01  0.49164605126E+01 -0.54165027351E+01  0.76186802182E+01  0.00000000000E+00 0.  1.
</event>
<event>
 7    1  0.5946946E-013  0.5052886E+02  0.7816164E-02  0.1300439E+00
        -11   -1    0    0    0    0  0.00000000000E+00  0.00000000000E+00  0.45593999997E+02  0.45594000000E+02  0.51100000000E-03 0.  1.
         11   -1    0    0    0    0 -0.00000000000E+00 -0.00000000000E+00 -0.45593999997E+02  0.45594000000E+02  0.51100000000E-03 0. -1.
    9900012    2    1    2    0    0  0.21433296118E+02 -0.26004415501E+02  0.22749716001E+02  0.50528863436E+02  0.30000010900E+02 0.  0.
         12    1    1    2    0    0 -0.21433296118E+02  0.26004415501E+02 -0.22749716001E+02  0.40659136564E+02  0.00000000000E+00 0. -1.
         11    1    3    3    0    0  0.40530393904E+01  0.20729228594E+00  0.64246718669E+01  0.75991122673E+01  0.51100000000E-03 0. -1.
        -11    1    3    3    0    0  0.32471442799E+01 -0.24690225593E+02  0.67857050128E+01  0.25810791901E+02  0.51100000000E-03 0.  1.
        -12    1    3    3    0    0  0.14133112448E+02 -0.15214821940E+01  0.95393391208E+01  0.17118959267E+02  0.00000000000E+00 0.  1.
</event>
<event>
 7    1  0.5946946E-013  0.5052885E+02  0.7816164E-02  0.1300439E+00
        -11   -1    0    0    0    0  0.00000000000E+00  0.00000000000E+00  0.45593999997E+02  0.45594000000E+02  0.51100000000E-03 0. -1.
         11   -1    0    0    0    0 -0.00000000000E+00 -0.00000000000E+00 -0.45593999997E+02  0.45594000000E+02  0.51100000000E-03 0.  1.
    9900012    2    1    2    0    0 -0.60593828224E+01 -0.15094797895E+02 -0.37263890452E+02  0.50528848812E+02  0.29999966450E+02 0.  0.
         12    1    1    2    0    0  0.60593828224E+01  0.15094797895E+02  0.37263890452E+02  0.40659151188E+02  0.00000000000E+00 0. -1.
         11    1    3    3    0    0 -0.55581327531E+00 -0.37757475216E+01 -0.20405573110E+01  0.43277098036E+01  0.51100000000E-03 0. -1.
        -11    1    3    3    0    0 -0.12799706234E+02 -0.16456499238E+01 -0.53609386784E+01  0.13974273045E+02  0.51100000000E-03 0.  1.
        -12    1    3    3    0    0  0.72961366869E+01 -0.96734004492E+01 -0.29862394463E+02  0.32226865964E+02  0.00000000000E+00 0.  1.
</event>
<event>
 7    1  0.5946946E-013  0.5052886E+02  0.7816164E-02  0.1300439E+00
        -11   -1    0    0    0    0  0.00000000000E+00  0.00000000000E+00  0.45593999997E+02  0.45594000000E+02  0.51100000000E-03 0.  1.
         11   -1    0    0    0    0 -0.00000000000E+00 -0.00000000000E+00 -0.45593999997E+02  0.45594000000E+02  0.51100000000E-03 0. -1.
    9900012    2    1    2    0    0 -0.34519890351E+02  0.25828153803E+01  0.21327729072E+02  0.50528858438E+02  0.29999995708E+02 0.  0.
         12    1    1    2    0    0  0.34519890351E+02 -0.25828153803E+01 -0.21327729072E+02  0.40659141562E+02  0.00000000000E+00 0. -1.
         11    1    3    3    0    0 -0.14125686773E+02  0.14263173176E+02  0.95424889296E+01  0.22226835832E+02  0.51100000000E-03 0. -1.
        -11    1    3    3    0    0 -0.11155894016E+02 -0.63040548442E+00  0.36198568640E+01  0.11745413843E+02  0.51100000000E-03 0.  1.
         12    1    3    3    0    0 -0.92383095621E+01 -0.11049952311E+02  0.81653832788E+01  0.16556608763E+02  0.00000000000E+00 0. -1.
</event>
<event>
 7    1  0.5946946E-013  0.5052886E+02  0.7816164E-02  0.1300439E+00
        -11   -1    0    0    0    0  0.00000000000E+00  0.00000000000E+00  0.45593999997E+02  0.45594000000E+02  0.51100000000E-03 0. -1.
         11   -1    0    0    0    0 -0.00000000000E+00 -0.00000000000E+00 -0.45593999997E+02  0.45594000000E+02  0.51100000000E-03 0.  1.
    9900012    2    1    2    0    0  0.96605465362E+01 -0.38080637785E+02  0.10473985163E+02  0.50528862051E+02  0.30000006691E+02 0.  0.
         12    1    1    2    0    0 -0.96605465362E+01  0.38080637785E+02 -0.10473985163E+02  0.40659137949E+02  0.00000000000E+00 0. -1.
         11    1    3    3    0    0  0.11927180983E+02 -0.71859012946E+01  0.10255797525E+01  0.13962329236E+02  0.51100000000E-03 0. -1.
        -11    1    3    3    0    0 -0.88987785202E+01 -0.17166505336E+02  0.15556377393E+01  0.19398380696E+02  0.51100000000E-03 0.  1.
         12    1    3    3    0    0  0.66321440733E+01 -0.13728231155E+02  0.78927676716E+01  0.17168152119E+02  0.00000000000E+00 0. -1.
</event>
<event>
 7    1  0.5946946E-013  0.5052887E+02  0.7816164E-02  0.1300439E+00
        -11   -1    0    0    0    0  0.00000000000E+00  0.00000000000E+00  0.45593999997E+02  0.45594000000E+02  0.51100000000E-03 0.  1.
         11   -1    0    0    0    0 -0.00000000000E+00 -0.00000000000E+00 -0.45593999997E+02  0.45594000000E+02  0.51100000000E-03 0. -1.
    9900012    2    1    2    0    0  0.40524738859E+02  0.12176720451E+01 -0.30704456460E+01  0.50528870383E+02  0.30000032016E+02 0.  0.
         12    1    1    2    0    0 -0.40524738859E+02 -0.12176720451E+01  0.30704456460E+01  0.40659129617E+02  0.00000000000E+00 0. -1.
         11    1    3    3    0    0  0.25576068330E+02 -0.65098241679E+01  0.30835168696E+01  0.26571058663E+02  0.51100000000E-03 0.  1.
        -11    1    3    3    0    0  0.88471946765E+01  0.22812509449E+01 -0.11118078048E+02  0.14390573973E+02  0.51100000000E-03 0. -1.
        -12    1    3    3    0    0  0.61014758518E+01  0.54462452680E+01  0.49641155325E+01  0.95672377471E+01  0.00000000000E+00 0.  1.
</event>
<event>
 7    1  0.5946946E-013  0.5052886E+02  0.7816164E-02  0.1300439E+00
        -11   -1    0    0    0    0  0.00000000000E+00  0.00000000000E+00  0.45593999997E+02  0.45594000000E+02  0.51100000000E-03 0.  1.
         11   -1    0    0    0    0 -0.00000000000E+00 -0.00000000000E+00 -0.45593999997E+02  0.45594000000E+02  0.51100000000E-03 0. -1.
    9900012    2    1    2    0    0  0.37886243029E+02 -0.64282226721E+01 -0.13284437973E+02  0.50528858964E+02  0.29999997306E+02 0.  0.
         12    1    1    2    0    0 -0.37886243029E+02  0.64282226721E+01  0.13284437973E+02  0.40659141036E+02  0.00000000000E+00 0. -1.
         11    1    3    3    0    0  0.26162136714E+02 -0.98744421120E+01 -0.17420528777E+02  0.32945968306E+02  0.51100000000E-03 0. -1.
        -11    1    3    3    0    0  0.96154835527E+01  0.74244871698E+01  0.11995012309E+01  0.12207347671E+02  0.51100000000E-03 0.  1.
        -12    1    3    3    0    0  0.21086227627E+01 -0.39782677299E+01  0.29365895737E+01  0.53755429875E+01  0.00000000000E+00 0.  1.
</event>
<event>
 7    1  0.5946946E-013  0.5052886E+02  0.7816164E-02  0.1300439E+00
        -11   -1    0    0    0    0  0.00000000000E+00  0.00000000000E+00  0.45593999997E+02  0.45594000000E+02  0.51100000000E-03 0.  1.
         11   -1    0    0    0    0 -0.00000000000E+00 -0.00000000000E+00 -0.45593999997E+02  0.45594000000E+02  0.51100000000E-03 0. -1.
    9900012    2    1    2    0    0  0.74051833331E+01 -0.28332742127E+00  0.39978099951E+02  0.50528862155E+02  0.30000007006E+02 0.  0.
         12    1    1    2    0    0 -0.74051833331E+01  0.28332742127E+00 -0.39978099951E+02  0.40659137845E+02  0.00000000000E+00 0. -1.
         11    1    3    3    0    0 -0.77913420548E+00 -0.32197030091E+00 -0.12201129632E+01  0.14830343519E+01  0.51100000000E-03 0. -1.
        -11    1    3    3    0    0  0.91134360651E+01 -0.99792841160E+01  0.34247072022E+02  0.36817153213E+02  0.51100000000E-03 0.  1.
        -12    1    3    3    0    0 -0.92911852655E+00  0.10017926996E+02  0.69511408923E+01  0.12228674590E+02  0.00000000000E+00 0.  1.
</event>
<event>
 7    1  0.5946946E-013  0.5052885E+02  0.7816164E-02  0.1300439E+00
        -11   -1    0    0    0    0  0.00000000000E+00  0.00000000000E+00  0.45593999997E+02  0.45594000000E+02  0.51100000000E-03 0. -1.
         11   -1    0    0    0    0 -0.00000000000E+00 -0.00000000000E+00 -0.45593999997E+02  0.45594000000E+02  0.51100000000E-03 0.  1.
    9900012    2    1    2    0    0  0.16506903643E+02 -0.95745611477E+01 -0.35902869497E+02  0.50528854324E+02  0.29999983202E+02 0.  0.
         12    1    1    2    0    0 -0.16506903643E+02  0.95745611477E+01  0.35902869497E+02  0.40659145676E+02  0.00000000000E+00 0. -1.
         11    1    3    3    0    0  0.10081665019E+02 -0.14877276414E+02 -0.83143099704E+01  0.19801542202E+02  0.51100000000E-03 0. -1.
        -11    1    3    3    0    0  0.40553396343E+01  0.24098206840E+01 -0.26378121196E+02  0.26796609737E+02  0.51100000000E-03 0.  1.
        -12    1    3    3    0    0  0.23698989896E+01  0.28928945822E+01 -0.12104383302E+01  0.39307023845E+01  0.00000000000E+00 0.  1.
</event>
<event>
 7    1  0.5946946E-013  0.5052886E+02  0.7816164E-02  0.1300439E+00
        -11   -1    0    0    0    0  0.00000000000E+00  0.00000000000E+00  0.45593999997E+02  0.45594000000E+02  0.51100000000E-03 0. -1.
         11   -1    0    0    0    0 -0.00000000000E+00 -0.00000000000E+00 -0.45593999997E+02  0.45594000000E+02  0.51100000000E-03 0.  1.
    9900012    2    1    2    0    0 -0.75255213375E+01  0.19834743340E+02 -0.34685949439E+02  0.50528860766E+02  0.30000002784E+02 0.  0.
         12    1    1    2    0    0  0.75255213375E+01 -0.19834743340E+02  0.34685949439E+02  0.40659139234E+02  0.00000000000E+00 0. -1.
         11    1    3    3    0    0  0.13127678752E+01  0.63479866840E+01 -0.39624305606E+01  0.75974436913E+01  0.51100000000E-03 0.  1.
        -11    1    3    3    0    0 -0.75479715137E+01 -0.15370564986E+01  0.10376573055E+01  0.77724609743E+01  0.51100000000E-03 0. -1.
        -12    1    3    3    0    0 -0.12903176990E+01  0.15023813154E+02 -0.31761176184E+02  0.35158956100E+02  0.00000000000E+00 0.  1.
</event>
<event>
 7    1  0.5946946E-013  0.5052886E+02  0.7816164E-02  0.1300439E+00
        -11   -1    0    0    0    0  0.00000000000E+00  0.00000000000E+00  0.45593999997E+02  0.45594000000E+02  0.51100000000E-03 0.  1.
         11   -1    0    0    0    0 -0.00000000000E+00 -0.00000000000E+00 -0.45593999997E+02  0.45594000000E+02  0.51100000000E-03 0. -1.
    9900012    2    1    2    0    0  0.28033864353E+02 -0.24634838766E+02 -0.16136691933E+02  0.50528860091E+02  0.30000000733E+02 0.  0.
         12    1    1    2    0    0 -0.28033864353E+02  0.24634838766E+02  0.16136691933E+02  0.40659139909E+02  0.00000000000E+00 0. -1.
         11    1    3    3    0    0 -0.17231901532E+01  0.38966154638E+01 -0.31790152118E-01  0.42607519585E+01  0.51100000000E-03 0. -1.
        -11    1    3    3    0    0  0.12401945119E+02 -0.14065377478E+02 -0.40720928024E+00  0.18756569675E+02  0.51100000000E-03 0.  1.
         12    1    3    3    0    0  0.17355109388E+02 -0.14466076752E+02 -0.15697692500E+02  0.27511538457E+02  0.00000000000E+00 0. -1.
</event>
<event>
 7    1  0.7709929E-013  0.5052886E+02  0.7816164E-02  0.1300439E+00
        -11   -1    0    0    0    0  0.00000000000E+00  0.00000000000E+00  0.45593999997E+02  0.45594000000E+02  0.51100000000E-03 0. -1.
         11   -1    0    0    0    0 -0.00000000000E+00 -0.00000000000E+00 -0.45593999997E+02  0.45594000000E+02  0.51100000000E-03 0.  1.
    9900012    2    1    2    0    0  0.11461689709E+02  0.30684992873E+01 -0.38889329216E+02  0.50528856554E+02  0.29999989982E+02 0.  0.
         12    1    1    2    0    0 -0.11461689709E+02 -0.30684992873E+01  0.38889329216E+02  0.40659143446E+02  0.00000000000E+00 0. -1.
         11    1    3    3    0    0  0.40692957899E+01 -0.33893616406E+01  0.15819627565E+01  0.55271644612E+01  0.51100000000E-03 0. -1.
        -11    1    3    3    0    0 -0.25344370665E+01  0.18636726947E+01 -0.28929603139E+02  0.29100147512E+02  0.51100000000E-03 0.  1.
        -12    1    3    3    0    0  0.99268309852E+01  0.45941882332E+01 -0.11541688834E+02  0.15901544581E+02  0.00000000000E+00 0.  1.
</event>
<event>
 7    1  0.5946946E-013  0.5052888E+02  0.7816164E-02  0.1300439E+00
        -11   -1    0    0    0    0  0.00000000000E+00  0.00000000000E+00  0.45593999997E+02  0.45594000000E+02  0.51100000000E-03 0.  1.
         11   -1    0    0    0    0 -0.00000000000E+00 -0.00000000000E+00 -0.45593999997E+02  0.45594000000E+02  0.51100000000E-03 0. -1.
    9900012    2    1    2    0    0 -0.26019599990E+02 -0.13018481144E+02  0.28401830324E+02  0.50528875555E+02  0.30000047736E+02 0.  0.
         12    1    1    2    0    0  0.26019599990E+02  0.13018481144E+02 -0.28401830324E+02  0.40659124445E+02  0.00000000000E+00 0. -1.
         11    1    3    3    0    0 -0.22305304963E+02 -0.29435109057E+01  0.88778184128E+01  0.24186908566E+02  0.51100000000E-03 0. -1.
        -11    1    3    3    0    0 -0.69730317604E+01 -0.11595101915E+02  0.17787667883E+02  0.22348840895E+02  0.51100000000E-03 0.  1.
         12    1    3    3    0    0  0.32587367341E+01  0.15201316771E+01  0.17363440282E+01  0.39931260939E+01  0.00000000000E+00 0. -1.
</event>
<event>
 7    1  0.5946946E-013  0.5052886E+02  0.7816164E-02  0.1300439E+00
        -11   -1    0    0    0    0  0.00000000000E+00  0.00000000000E+00  0.45593999997E+02  0.45594000000E+02  0.51100000000E-03 0.  1.
         11   -1    0    0    0    0 -0.00000000000E+00 -0.00000000000E+00 -0.45593999997E+02  0.45594000000E+02  0.51100000000E-03 0. -1.
    9900012    2    1    2    0    0  0.40465350816E+02 -0.29075210329E+01  0.26957507433E+01  0.50528863668E+02  0.30000011605E+02 0.  0.
         12    1    1    2    0    0 -0.40465350816E+02  0.29075210329E+01 -0.26957507433E+01  0.40659136332E+02  0.00000000000E+00 0. -1.
         11    1    3    3    0    0  0.20603918809E+02 -0.29112398557E+01 -0.44920733784E+01  0.21287919374E+02  0.51100000000E-03 0. -1.
        -11    1    3    3    0    0  0.48379839854E+01  0.27916053493E+01  0.11987470977E+02  0.13224923824E+02  0.51100000000E-03 0.  1.
        -12    1    3    3    0    0  0.15023448022E+02 -0.27878865265E+01 -0.47996468554E+01  0.16016020470E+02  0.00000000000E+00 0.  1.
</event>
<event>
 7    1  0.5946946E-013  0.5052886E+02  0.7816164E-02  0.1300439E+00
        -11   -1    0    0    0    0  0.00000000000E+00  0.00000000000E+00  0.45593999997E+02  0.45594000000E+02  0.51100000000E-03 0. -1.
         11   -1    0    0    0    0 -0.00000000000E+00 -0.00000000000E+00 -0.45593999997E+02  0.45594000000E+02  0.51100000000E-03 0.  1.
    9900012    2    1    2    0    0 -0.10037479880E+02 -0.36570499239E+02 -0.14663323444E+02  0.50528862388E+02  0.30000007716E+02 0.  0.
         12    1    1    2    0    0  0.10037479880E+02  0.36570499239E+02  0.14663323444E+02  0.40659137612E+02  0.00000000000E+00 0. -1.
         11    1    3    3    0    0 -0.79070254034E+01  0.21044853831E+01 -0.15599054919E+01  0.83296587483E+01  0.51100000000E-03 0. -1.
        -11    1    3    3    0    0 -0.25018557243E+00 -0.18025996016E+02 -0.11542160517E+02  0.21406087799E+02  0.51100000000E-03 0.  1.
         12    1    3    3    0    0 -0.18802689039E+01 -0.20648988606E+02 -0.15612574343E+01  0.20793115841E+02  0.00000000000E+00 0. -1.
</event>
<event>
 7    1  0.5946946E-013  0.5052886E+02  0.7816164E-02  0.1300439E+00
        -11   -1    0    0    0    0  0.00000000000E+00  0.00000000000E+00  0.45593999997E+02  0.45594000000E+02  0.51100000000E-03 0.  1.
         11   -1    0    0    0    0 -0.00000000000E+00 -0.00000000000E+00 -0.45593999997E+02  0.45594000000E+02  0.51100000000E-03 0. -1.
    9900012    2    1    2    0    0  0.25878393395E+02  0.20354062166E+02  0.23857639310E+02  0.50528855336E+02  0.29999986280E+02 0.  0.
         12    1    1    2    0    0 -0.25878393395E+02 -0.20354062166E+02 -0.23857639310E+02  0.40659144664E+02  0.00000000000E+00 0. -1.
         11    1    3    3    0    0  0.25107533545E+00  0.12692832668E+01 -0.54999824482E+01  0.56501261957E+01  0.51100000000E-03 0. -1.
        -11    1    3    3    0    0  0.49924099798E+01  0.64660748689E+01  0.14056294905E+02  0.16257727650E+02  0.51100000000E-03 0.  1.
         12    1    3    3    0    0  0.20634908080E+02  0.12618704031E+02  0.15301326853E+02  0.28621001491E+02  0.00000000000E+00 0. -1.
</event>
<event>
 7    1  0.5946946E-013  0.5052887E+02  0.7816164E-02  0.1300439E+00
        -11   -1    0    0    0    0  0.00000000000E+00  0.00000000000E+00  0.45593999997E+02  0.45594000000E+02  0.51100000000E-03 0.  1.
         11   -1    0    0    0    0 -0.00000000000E+00 -0.00000000000E+00 -0.45593999997E+02  0.45594000000E+02  0.51100000000E-03 0. -1.
    9900012    2    1    2    0    0 -0.91081728459E+00 -0.21099911500E+02  0.34743767404E+02  0.50528865395E+02  0.30000016854E+02 0.  0.
         12    1    1    2    0    0  0.91081728459E+00  0.21099911500E+02 -0.34743767404E+02  0.40659134605E+02  0.00000000000E+00 0. -1.
         11    1    3    3    0    0 -0.10857577119E+02 -0.35588868465E+01  0.78664232508E+01  0.13872031989E+02  0.51100000000E-03 0. -1.
        -11    1    3    3    0    0  0.26184788304E+01 -0.17364728407E+02  0.19833018336E+02  0.26490353727E+02  0.51100000000E-03 0.  1.
        -12    1    3    3    0    0  0.73282810038E+01 -0.17629624647E+00  0.70443258176E+01  0.10166479679E+02  0.00000000000E+00 0.  1.
</event>
<event>
 7    1  0.5946946E-013  0.5052889E+02  0.7816164E-02  0.1300439E+00
        -11   -1    0    0    0    0  0.00000000000E+00  0.00000000000E+00  0.45593999997E+02  0.45594000000E+02  0.51100000000E-03 0.  1.
         11   -1    0    0    0    0 -0.00000000000E+00 -0.00000000000E+00 -0.45593999997E+02  0.45594000000E+02  0.51100000000E-03 0. -1.
    9900012    2    1    2    0    0  0.20646612081E+02  0.17881414010E+02  0.30118698800E+02  0.50528885710E+02  0.30000078604E+02 0.  0.
         12    1    1    2    0    0 -0.20646612081E+02 -0.17881414010E+02 -0.30118698800E+02  0.40659114290E+02  0.00000000000E+00 0. -1.
         11    1    3    3    0    0 -0.20013953651E+01  0.67601522179E+01 -0.31897983307E+01  0.77382204071E+01  0.51100000000E-03 0. -1.
        -11    1    3    3    0    0  0.48699806291E+01  0.67128621425E+01  0.13214110805E+02  0.15601024136E+02  0.51100000000E-03 0.  1.
         12    1    3    3    0    0  0.17778026817E+02  0.44083996500E+01  0.20094386326E+02  0.27189641167E+02  0.00000000000E+00 0. -1.
</event>
<event>
 7    1  0.5946946E-013  0.5052887E+02  0.7816164E-02  0.1300439E+00
        -11   -1    0    0    0    0  0.00000000000E+00  0.00000000000E+00  0.45593999997E+02  0.45594000000E+02  0.51100000000E-03 0.  1.
         11   -1    0    0    0    0 -0.00000000000E+00 -0.00000000000E+00 -0.45593999997E+02  0.45594000000E+02  0.51100000000E-03 0. -1.
    9900012    2    1    2    0    0  0.18731824803E+02 -0.10514889418E+02  0.34521306275E+02  0.50528871297E+02  0.30000034794E+02 0.  0.
         12    1    1    2    0    0 -0.18731824803E+02  0.10514889418E+02 -0.34521306275E+02  0.40659128703E+02  0.00000000000E+00 0. -1.
         11    1    3    3    0    0 -0.60755452574E+01 -0.25529806022E+01  0.17926150184E+02  0.19099131415E+02  0.51100000000E-03 0. -1.
        -11    1    3    3    0    0  0.22184535351E+02 -0.55799157803E+01  0.15791277318E+02  0.27796645633E+02  0.51100000000E-03 0.  1.
         12    1    3    3    0    0  0.26228347100E+01 -0.23819930359E+01  0.80387877380E+00  0.36330942490E+01  0.00000000000E+00 0. -1.
</event>
<event>
 7    1  0.5946946E-013  0.5052888E+02  0.7816164E-02  0.1300439E+00
        -11   -1    0    0    0    0  0.00000000000E+00  0.00000000000E+00  0.45593999997E+02  0.45594000000E+02  0.51100000000E-03 0. -1.
         11   -1    0    0    0    0 -0.00000000000E+00 -0.00000000000E+00 -0.45593999997E+02  0.45594000000E+02  0.51100000000E-03 0.  1.
    9900012    2    1    2    0    0 -0.31414291265E+02  0.69146182071E+01 -0.24869541662E+02  0.50528883640E+02  0.30000072313E+02 0.  0.
         12    1    1    2    0    0  0.31414291265E+02 -0.69146182071E+01  0.24869541662E+02  0.40659116360E+02  0.00000000000E+00 0. -1.
         11    1    3    3    0    0 -0.13759245890E+02 -0.10822666810E+02 -0.49455745125E+01  0.18190812842E+02  0.51100000000E-03 0. -1.
        -11    1    3    3    0    0 -0.14365667776E+02  0.15597805822E+02 -0.18570183731E+02  0.28187154542E+02  0.51100000000E-03 0.  1.
         12    1    3    3    0    0 -0.32893775993E+01  0.21394791959E+01 -0.13537834184E+01  0.41509162560E+01  0.00000000000E+00 0. -1.
</event>
<event>
 7    1  0.5946946E-013  0.5052884E+02  0.7816164E-02  0.1300439E+00
        -11   -1    0    0    0    0  0.00000000000E+00  0.00000000000E+00  0.45593999997E+02  0.45594000000E+02  0.51100000000E-03 0. -1.
         11   -1    0    0    0    0 -0.00000000000E+00 -0.00000000000E+00 -0.45593999997E+02  0.45594000000E+02  0.51100000000E-03 0.  1.
    9900012    2    1    2    0    0 -0.83777503977E+01 -0.35314329153E+02 -0.18327002657E+02  0.50528836559E+02  0.29999929206E+02 0.  0.
         12    1    1    2    0    0  0.83777503977E+01  0.35314329153E+02  0.18327002657E+02  0.40659163441E+02  0.00000000000E+00 0. -1.
         11    1    3    3    0    0 -0.13888552319E+02 -0.15934307310E+02 -0.38991298996E+01  0.21494121271E+02  0.51100000000E-03 0. -1.
        -11    1    3    3    0    0  0.18588939526E+01 -0.15457672464E+02 -0.17032578678E+02  0.23076045185E+02  0.51100000000E-03 0.  1.
        -12    1    3    3    0    0  0.36519079687E+01 -0.39223493796E+01  0.26047059202E+01  0.59586701032E+01  0.00000000000E+00 0.  1.
</event>
<event>
 7    1  0.5946946E-013  0.5052886E+02  0.7816164E-02  0.1300439E+00
        -11   -1    0    0    0    0  0.00000000000E+00  0.00000000000E+00  0.45593999997E+02  0.45594000000E+02  0.51100000000E-03 0. -1.
         11   -1    0    0    0    0 -0.00000000000E+00 -0.00000000000E+00 -0.45593999997E+02  0.45594000000E+02  0.51100000000E-03 0.  1.
    9900012    2    1    2    0    0 -0.30549428619E+02  0.19316298733E+02 -0.18621998501E+02  0.50528858176E+02  0.29999994913E+02 0.  0.
         12    1    1    2    0    0  0.30549428619E+02 -0.19316298733E+02  0.18621998501E+02  0.40659141824E+02  0.00000000000E+00 0. -1.
         11    1    3    3    0    0 -0.40516688970E+00  0.35231900632E+01  0.20512848410E+01  0.40969254558E+01  0.51100000000E-03 0. -1.
        -11    1    3    3    0    0 -0.24826462380E+02  0.16844808117E+01 -0.64536397110E+01  0.25706811853E+02  0.51100000000E-03 0.  1.
        -12    1    3    3    0    0 -0.53177993494E+01  0.14108627858E+02 -0.14219643631E+02  0.20725120867E+02  0.00000000000E+00 0.  1.
</event>
<event>
 7    1  0.5946946E-013  0.5052885E+02  0.7816164E-02  0.1300439E+00
        -11   -1    0    0    0    0  0.00000000000E+00  0.00000000000E+00  0.45593999997E+02  0.45594000000E+02  0.51100000000E-03 0. -1.
         11   -1    0    0    0    0 -0.00000000000E+00 -0.00000000000E+00 -0.45593999997E+02  0.45594000000E+02  0.51100000000E-03 0.  1.
    9900012    2    1    2    0    0  0.37781769038E+02 -0.10519913570E+02 -0.10725457856E+02  0.50528854664E+02  0.29999984238E+02 0.  0.
         12    1    1    2    0    0 -0.37781769038E+02  0.10519913570E+02  0.10725457856E+02  0.40659145336E+02  0.00000000000E+00 0. -1.
         11    1    3    3    0    0  0.40438188795E+01 -0.10413216887E+02 -0.59845078718E+01  0.12672880169E+02  0.51100000000E-03 0. -1.
        -11    1    3    3    0    0  0.28303353328E+02  0.18080164347E+00 -0.10258922248E+02  0.30105779923E+02  0.51100000000E-03 0.  1.
         12    1    3    3    0    0  0.54345968312E+01 -0.28749832714E+00  0.55179722634E+01  0.77501945721E+01  0.00000000000E+00 0. -1.
</event>
<event>
 7    1  0.5946946E-013  0.5052886E+02  0.7816164E-02  0.1300439E+00
        -11   -1    0    0    0    0  0.00000000000E+00  0.00000000000E+00  0.45593999997E+02  0.45594000000E+02  0.51100000000E-03 0.  1.
         11   -1    0    0    0    0 -0.00000000000E+00 -0.00000000000E+00 -0.45593999997E+02  0.45594000000E+02  0.51100000000E-03 0. -1.
    9900012    2    1    2    0    0  0.22980384689E+02 -0.16465159345E+02  0.29222700475E+02  0.50528858644E+02  0.29999996334E+02 0.  0.
         12    1    1    2    0    0 -0.22980384689E+02  0.16465159345E+02 -0.29222700475E+02  0.40659141356E+02  0.00000000000E+00 0. -1.
         11    1    3    3    0    0  0.18482645069E+01  0.48439516265E+01  0.89456837297E+01  0.10339497410E+02  0.51100000000E-03 0. -1.
        -11    1    3    3    0    0  0.31299039796E+01 -0.13983534229E+02  0.41063989866E+01  0.14906308777E+02  0.51100000000E-03 0.  1.
        -12    1    3    3    0    0  0.18002216203E+02 -0.73255767427E+01  0.16170617759E+02  0.25283052457E+02  0.00000000000E+00 0.  1.
</event>
<event>
 7    1  0.5946946E-013  0.5052886E+02  0.7816164E-02  0.1300439E+00
        -11   -1    0    0    0    0  0.00000000000E+00  0.00000000000E+00  0.45593999997E+02  0.45594000000E+02  0.51100000000E-03 0. -1.
         11   -1    0    0    0    0 -0.00000000000E+00 -0.00000000000E+00 -0.45593999997E+02  0.45594000000E+02  0.51100000000E-03 0.  1.
    9900012    2    1    2    0    0  0.32051315837E+02  0.45266360999E+01 -0.24604648706E+02  0.50528855651E+02  0.29999987236E+02 0.  0.
         12    1    1    2    0    0 -0.32051315837E+02 -0.45266360999E+01  0.24604648706E+02  0.40659144349E+02  0.00000000000E+00 0. -1.
         11    1    3    3    0    0  0.13749016080E+01  0.44636513353E-01  0.14686890491E+00  0.13834441030E+01  0.51100000000E-03 0. -1.
        -11    1    3    3    0    0  0.14477853205E+02 -0.45834248371E+01  0.32691181234E+01  0.15533935440E+02  0.51100000000E-03 0.  1.
        -12    1    3    3    0    0  0.16198561024E+02  0.90654244237E+01 -0.28020635734E+02  0.33611476108E+02  0.00000000000E+00 0.  1.
</event>
<event>
 7    1  0.5946946E-013  0.5052885E+02  0.7816164E-02  0.1300439E+00
        -11   -1    0    0    0    0  0.00000000000E+00  0.00000000000E+00  0.45593999997E+02  0.45594000000E+02  0.51100000000E-03 0. -1.
         11   -1    0    0    0    0 -0.00000000000E+00 -0.00000000000E+00 -0.45593999997E+02  0.45594000000E+02  0.51100000000E-03 0.  1.
    9900012    2    1    2    0    0 -0.36868752836E+01 -0.32153386646E+02  0.24611641243E+02  0.50528853343E+02  0.29999980222E+02 0.  0.
         12    1    1    2    0    0  0.36868752836E+01  0.32153386646E+02 -0.24611641243E+02  0.40659146657E+02  0.00000000000E+00 0. -1.
         11    1    3    3    0    0  0.25398992121E+01 -0.19961014291E+02 -0.22070982556E+01  0.20242639711E+02  0.51100000000E-03 0.  1.
        -11    1    3    3    0    0 -0.39261245624E+01 -0.10392264521E+02  0.22131301166E+02  0.24763039141E+02  0.51100000000E-03 0. -1.
        -12    1    3    3    0    0 -0.23006499334E+01 -0.18001078346E+01  0.46874383326E+01  0.55231744907E+01  0.00000000000E+00 0.  1.
</event>
<event>
 7    1  0.5946946E-013  0.5052885E+02  0.7816164E-02  0.1300439E+00
        -11   -1    0    0    0    0  0.00000000000E+00  0.00000000000E+00  0.45593999997E+02  0.45594000000E+02  0.51100000000E-03 0. -1.
         11   -1    0    0    0    0 -0.00000000000E+00 -0.00000000000E+00 -0.45593999997E+02  0.45594000000E+02  0.51100000000E-03 0.  1.
    9900012    2    1    2    0    0 -0.32099220815E+02 -0.24105363466E+02 -0.64604668878E+01  0.50528853954E+02  0.29999982078E+02 0.  0.
         12    1    1    2    0    0  0.32099220815E+02  0.24105363466E+02  0.64604668878E+01  0.40659146046E+02  0.00000000000E+00 0. -1.
         11    1    3    3    0    0 -0.15427037120E+01 -0.74724938754E-01  0.24965094568E-01  0.15447142378E+01  0.51100000000E-03 0. -1.
        -11    1    3    3    0    0 -0.15623252270E+02  0.45762166688E+01 -0.24408010217E+01  0.16461630551E+02  0.51100000000E-03 0.  1.
        -12    1    3    3    0    0 -0.14933264833E+02 -0.28606855196E+02 -0.40446309607E+01  0.32522509165E+02  0.00000000000E+00 0.  1.
</event>
<event>
 7    1  0.5946946E-013  0.5052886E+02  0.7816164E-02  0.1300439E+00
        -11   -1    0    0    0    0  0.00000000000E+00  0.00000000000E+00  0.45593999997E+02  0.45594000000E+02  0.51100000000E-03 0.  1.
         11   -1    0    0    0    0 -0.00000000000E+00 -0.00000000000E+00 -0.45593999997E+02  0.45594000000E+02  0.51100000000E-03 0. -1.
    9900012    2    1    2    0    0  0.26327370548E+02 -0.24765332389E+02  0.18620235620E+02  0.50528864460E+02  0.30000014014E+02 0.  0.
         12    1    1    2    0    0 -0.26327370548E+02  0.24765332389E+02 -0.18620235620E+02  0.40659135540E+02  0.00000000000E+00 0. -1.
         11    1    3    3    0    0  0.91991260204E+01 -0.14021881002E+02  0.78792486993E-01  0.16770309326E+02  0.51100000000E-03 0. -1.
        -11    1    3    3    0    0  0.52567697041E+01 -0.13234179480E+02  0.15899713862E+02  0.21344274065E+02  0.51100000000E-03 0.  1.
         12    1    3    3    0    0  0.11871474823E+02  0.24907280932E+01  0.26417292713E+01  0.12414281069E+02  0.00000000000E+00 0. -1.
</event>
<event>
 7    1  0.5946946E-013  0.5052886E+02  0.7816164E-02  0.1300439E+00
        -11   -1    0    0    0    0  0.00000000000E+00  0.00000000000E+00  0.45593999997E+02  0.45594000000E+02  0.51100000000E-03 0.  1.
         11   -1    0    0    0    0 -0.00000000000E+00 -0.00000000000E+00 -0.45593999997E+02  0.45594000000E+02  0.51100000000E-03 0. -1.
    9900012    2    1    2    0    0  0.17516525980E+02 -0.10045363921E+02  0.35290612629E+02  0.50528863777E+02  0.30000011937E+02 0.  0.
         12    1    1    2    0    0 -0.17516525980E+02  0.10045363921E+02 -0.35290612629E+02  0.40659136223E+02  0.00000000000E+00 0. -1.
         11    1    3    3    0    0  0.24665648716E+01 -0.12212365625E+02  0.60841546480E+00  0.12473812010E+02  0.51100000000E-03 0. -1.
        -11    1    3    3    0    0  0.35224866073E+01  0.17683995996E+01  0.11600943605E+02  0.12252225995E+02  0.51100000000E-03 0.  1.
         12    1    3    3    0    0  0.11527474501E+02  0.39860210443E+00  0.23081253559E+02  0.25802825772E+02  0.00000000000E+00 0. -1.
</event>
<event>
 7    1  0.5946946E-013  0.5052886E+02  0.7816164E-02  0.1300439E+00
        -11   -1    0    0    0    0  0.00000000000E+00  0.00000000000E+00  0.45593999997E+02  0.45594000000E+02  0.51100000000E-03 0.  1.
         11   -1    0    0    0    0 -0.00000000000E+00 -0.00000000000E+00 -0.45593999997E+02  0.45594000000E+02  0.51100000000E-03 0. -1.
    9900012    2    1    2    0    0  0.30027065473E+02  0.19956139860E+02  0.18796102738E+02  0.50528860103E+02  0.30000000769E+02 0.  0.
         12    1    1    2    0    0 -0.30027065473E+02 -0.19956139860E+02 -0.18796102738E+02  0.40659139897E+02  0.00000000000E+00 0. -1.
         11    1    3    3    0    0  0.10980588800E+02  0.34056618179E+01 -0.28186306429E+01  0.11837083330E+02  0.51100000000E-03 0. -1.
        -11    1    3    3    0    0  0.21310771209E+02  0.18423023838E+02  0.21980359993E+02  0.35730841056E+02  0.51100000000E-03 0.  1.
        -12    1    3    3    0    0 -0.22642945361E+01 -0.18725457954E+01 -0.36562661254E+00  0.29609357173E+01  0.00000000000E+00 0.  1.
</event>
<event>
 7    1  0.5946946E-013  0.5052888E+02  0.7816164E-02  0.1300439E+00
        -11   -1    0    0    0    0  0.00000000000E+00  0.00000000000E+00  0.45593999997E+02  0.45594000000E+02  0.51100000000E-03 0. -1.
         11   -1    0    0    0    0 -0.00000000000E+00 -0.00000000000E+00 -0.45593999997E+02  0.45594000000E+02  0.51100000000E-03 0.  1.
    9900012    2    1    2    0    0 -0.20227175524E+02 -0.51233715906E+01 -0.34896657246E+02  0.50528877370E+02  0.30000053253E+02 0.  0.
         12    1    1    2    0    0  0.20227175524E+02  0.51233715906E+01  0.34896657246E+02  0.40659122630E+02  0.00000000000E+00 0. -1.
         11    1    3    3    0    0  0.34898834408E+01 -0.83948329640E+01 -0.53960655884E+01  0.10572134648E+02  0.51100000000E-03 0. -1.
        -11    1    3    3    0    0 -0.15173222252E+02 -0.80450389707E-01 -0.26059343429E+02  0.30154975145E+02  0.51100000000E-03 0.  1.
        -12    1    3    3    0    0 -0.85438367137E+01  0.33519117631E+01 -0.34412482279E+01  0.98017675765E+01  0.00000000000E+00 0.  1.
</event>
<event>
 7    1  0.5946946E-013  0.5052886E+02  0.7816164E-02  0.1300439E+00
        -11   -1    0    0    0    0  0.00000000000E+00  0.00000000000E+00  0.45593999997E+02  0.45594000000E+02  0.51100000000E-03 0. -1.
         11   -1    0    0    0    0 -0.00000000000E+00 -0.00000000000E+00 -0.45593999997E+02  0.45594000000E+02  0.51100000000E-03 0.  1.
    9900012    2    1    2    0    0 -0.86121092307E+01 -0.39733659287E+02 -0.48317946596E+00  0.50528861197E+02  0.30000004096E+02 0.  0.
         12    1    1    2    0    0  0.86121092307E+01  0.39733659287E+02  0.48317946596E+00  0.40659138803E+02  0.00000000000E+00 0. -1.
         11    1    3    3    0    0  0.92709592283E+01 -0.61636176229E+01  0.14341638426E+01  0.11224869416E+02  0.51100000000E-03 0. -1.
        -11    1    3    3    0    0 -0.16165814269E+02 -0.33387182393E+02 -0.54636682912E+00  0.37099002899E+02  0.51100000000E-03 0.  1.
         12    1    3    3    0    0 -0.17172541902E+01 -0.18285927167E+00 -0.13709764794E+01  0.22049888830E+01  0.00000000000E+00 0. -1.
</event>
<event>
 7    1  0.5946946E-013  0.5052885E+02  0.7816164E-02  0.1300439E+00
        -11   -1    0    0    0    0  0.00000000000E+00  0.00000000000E+00  0.45593999997E+02  0.45594000000E+02  0.51100000000E-03 0. -1.
         11   -1    0    0    0    0 -0.00000000000E+00 -0.00000000000E+00 -0.45593999997E+02  0.45594000000E+02  0.51100000000E-03 0.  1.
    9900012    2    1    2    0    0  0.38289252972E+02  0.11482301199E+02 -0.74334620775E+01  0.50528849832E+02  0.29999969549E+02 0.  0.
         12    1    1    2    0    0 -0.38289252972E+02 -0.11482301199E+02  0.74334620775E+01  0.40659150168E+02  0.00000000000E+00 0. -1.
         11    1    3    3    0    0  0.23253245116E+01 -0.42574796947E+00  0.26981105587E+01  0.35872268210E+01  0.51100000000E-03 0. -1.
        -11    1    3    3    0    0  0.32633651715E+02  0.38881773727E+01 -0.15907881812E+02  0.36512105548E+02  0.51100000000E-03 0.  1.
        -12    1    3    3    0    0  0.33302767450E+01  0.80198717956E+01  0.57763091756E+01  0.10429517463E+02  0.00000000000E+00 0.  1.
</event>
<event>
 7    1  0.5946946E-013  0.5052886E+02  0.7816164E-02  0.1300439E+00
        -11   -1    0    0    0    0  0.00000000000E+00  0.00000000000E+00  0.45593999997E+02  0.45594000000E+02  0.51100000000E-03 0.  1.
         11   -1    0    0    0    0 -0.00000000000E+00 -0.00000000000E+00 -0.45593999997E+02  0.45594000000E+02  0.51100000000E-03 0. -1.
    9900012    2    1    2    0    0 -0.35655930242E+02 -0.36341570352E+01  0.19199293491E+02  0.50528864134E+02  0.30000013022E+02 0.  0.
         12    1    1    2    0    0  0.35655930242E+02  0.36341570352E+01 -0.19199293491E+02  0.40659135866E+02  0.00000000000E+00 0. -1.
         11    1    3    3    0    0 -0.19485632672E+01 -0.86720143651E+01  0.44813725336E+01  0.99540661039E+01  0.51100000000E-03 0. -1.
        -11    1    3    3    0    0 -0.34533489224E+02  0.19437437174E+01  0.13089816050E+02  0.36982202505E+02  0.51100000000E-03 0.  1.
        -12    1    3    3    0    0  0.82612224907E+00  0.30941136125E+01  0.16281049074E+01  0.35925955251E+01  0.00000000000E+00 0.  1.
</event>
<event>
 7    1  0.5946946E-013  0.5052886E+02  0.7816164E-02  0.1300439E+00
        -11   -1    0    0    0    0  0.00000000000E+00  0.00000000000E+00  0.45593999997E+02  0.45594000000E+02  0.51100000000E-03 0.  1.
         11   -1    0    0    0    0 -0.00000000000E+00 -0.00000000000E+00 -0.45593999997E+02  0.45594000000E+02  0.51100000000E-03 0. -1.
    9900012    2    1    2    0    0 -0.19687667990E+02  0.15570887268E+02  0.31986070346E+02  0.50528862068E+02  0.30000006741E+02 0.  0.
         12    1    1    2    0    0  0.19687667990E+02 -0.15570887268E+02 -0.31986070346E+02  0.40659137932E+02  0.00000000000E+00 0. -1.
         11    1    3    3    0    0 -0.66272414904E+01  0.17892282849E+02  0.14228548472E+02  0.23801380364E+02  0.51100000000E-03 0. -1.
        -11    1    3    3    0    0 -0.33255527673E+01 -0.79352406065E+01  0.61829745930E+01  0.10595117733E+02  0.51100000000E-03 0.  1.
        -12    1    3    3    0    0 -0.97348737323E+01  0.56138450251E+01  0.11574547281E+02  0.16132363971E+02  0.00000000000E+00 0.  1.
</event>
<event>
 7    1  0.5946946E-013  0.5052886E+02  0.7816164E-02  0.1300439E+00
        -11   -1    0    0    0    0  0.00000000000E+00  0.00000000000E+00  0.45593999997E+02  0.45594000000E+02  0.51100000000E-03 0.  1.
         11   -1    0    0    0    0 -0.00000000000E+00 -0.00000000000E+00 -0.45593999997E+02  0.45594000000E+02  0.51100000000E-03 0. -1.
    9900012    2    1    2    0    0 -0.12070711733E+01 -0.14086701751E+01  0.40616798598E+02  0.50528859566E+02  0.29999999136E+02 0.  0.
         12    1    1    2    0    0  0.12070711733E+01  0.14086701751E+01 -0.40616798598E+02  0.40659140434E+02  0.00000000000E+00 0. -1.
         11    1    3    3    0    0 -0.12405890939E+01 -0.61188848563E+01  0.30702675510E+02  0.31331040470E+02  0.51100000000E-03 0. -1.
        -11    1    3    3    0    0  0.38300702010E+01  0.92566840587E+01  0.38815583791E+01  0.10743469329E+02  0.51100000000E-03 0.  1.
         12    1    3    3    0    0 -0.37965522804E+01 -0.45464693775E+01  0.60325647092E+01  0.84543497674E+01  0.00000000000E+00 0. -1.
</event>
<event>
 7    1  0.5946946E-013  0.5052886E+02  0.7816164E-02  0.1300439E+00
        -11   -1    0    0    0    0  0.00000000000E+00  0.00000000000E+00  0.45593999997E+02  0.45594000000E+02  0.51100000000E-03 0.  1.
         11   -1    0    0    0    0 -0.00000000000E+00 -0.00000000000E+00 -0.45593999997E+02  0.45594000000E+02  0.51100000000E-03 0. -1.
    9900012    2    1    2    0    0  0.39217223824E+02 -0.51095433601E+01  0.94375650901E+01  0.50528859420E+02  0.29999998694E+02 0.  0.
         12    1    1    2    0    0 -0.39217223824E+02  0.51095433601E+01 -0.94375650901E+01  0.40659140580E+02  0.00000000000E+00 0. -1.
         11    1    3    3    0    0  0.28486804119E+02  0.59630775456E+01  0.80869715050E+01  0.30206876885E+02  0.51100000000E-03 0.  1.
        -11    1    3    3    0    0  0.92073993640E+01 -0.55571445370E+01 -0.49258104546E+01  0.11828848944E+02  0.51100000000E-03 0. -1.
         12    1    3    3    0    0  0.15230203412E+01 -0.55154763688E+01  0.62764040397E+01  0.84931335915E+01  0.00000000000E+00 0. -1.
</event>
<event>
 7    1  0.5946946E-013  0.5052885E+02  0.7816164E-02  0.1300439E+00
        -11   -1    0    0    0    0  0.00000000000E+00  0.00000000000E+00  0.45593999997E+02  0.45594000000E+02  0.51100000000E-03 0.  1.
         11   -1    0    0    0    0 -0.00000000000E+00 -0.00000000000E+00 -0.45593999997E+02  0.45594000000E+02  0.51100000000E-03 0. -1.
    9900012    2    1    2    0    0 -0.12920073662E+02 -0.24432072220E+02  0.29821329760E+02  0.50528853858E+02  0.29999981786E+02 0.  0.
         12    1    1    2    0    0  0.12920073662E+02  0.24432072220E+02 -0.29821329760E+02  0.40659146142E+02  0.00000000000E+00 0. -1.
         11    1    3    3    0    0  0.31415656413E+00 -0.32407690718E+01  0.21076243570E+02  0.21326258973E+02  0.51100000000E-03 0. -1.
        -11    1    3    3    0    0 -0.10333529338E+02 -0.57231330788E+01  0.16058689888E+01  0.11921195254E+02  0.51100000000E-03 0.  1.
         12    1    3    3    0    0 -0.29007008886E+01 -0.15468170069E+02  0.71392172009E+01  0.17281399630E+02  0.00000000000E+00 0. -1.
</event>
<event>
 7    1  0.5946946E-013  0.5052886E+02  0.7816164E-02  0.1300439E+00
        -11   -1    0    0    0    0  0.00000000000E+00  0.00000000000E+00  0.45593999997E+02  0.45594000000E+02  0.51100000000E-03 0.  1.
         11   -1    0    0    0    0 -0.00000000000E+00 -0.00000000000E+00 -0.45593999997E+02  0.45594000000E+02  0.51100000000E-03 0. -1.
    9900012    2    1    2    0    0 -0.12173329011E+02 -0.23060728925E+02  0.31195805883E+02  0.50528862498E+02  0.30000008049E+02 0.  0.
         12    1    1    2    0    0  0.12173329011E+02  0.23060728925E+02 -0.31195805883E+02  0.40659137502E+02  0.00000000000E+00 0. -1.
         11    1    3    3    0    0 -0.74845074958E+01  0.27087758389E+01  0.47374950752E+01  0.92627846163E+01  0.51100000000E-03 0. -1.
        -11    1    3    3    0    0 -0.11010415725E+02 -0.19252993932E+02  0.15618506638E+02  0.27126459033E+02  0.51100000000E-03 0.  1.
         12    1    3    3    0    0  0.63215942095E+01 -0.65165108312E+01  0.10839804169E+02  0.14139618849E+02  0.00000000000E+00 0. -1.
</event>
<event>
 7    1  0.5946946E-013  0.5052885E+02  0.7816164E-02  0.1300439E+00
        -11   -1    0    0    0    0  0.00000000000E+00  0.00000000000E+00  0.45593999997E+02  0.45594000000E+02  0.51100000000E-03 0.  1.
         11   -1    0    0    0    0 -0.00000000000E+00 -0.00000000000E+00 -0.45593999997E+02  0.45594000000E+02  0.51100000000E-03 0. -1.
    9900012    2    1    2    0    0 -0.10307830656E+02  0.36121346628E+02  0.15561588357E+02  0.50528854814E+02  0.29999984694E+02 0.  0.
         12    1    1    2    0    0  0.10307830656E+02 -0.36121346628E+02 -0.15561588357E+02  0.40659145186E+02  0.00000000000E+00 0. -1.
         11    1    3    3    0    0 -0.64330525287E+01  0.46943314479E+01 -0.21992491827E+01  0.82618163746E+01  0.51100000000E-03 0. -1.
        -11    1    3    3    0    0  0.77730304074E+01  0.22116436578E+02  0.10879713405E+02  0.25844243705E+02  0.51100000000E-03 0.  1.
        -12    1    3    3    0    0 -0.11647808534E+02  0.93105786017E+01  0.68811241343E+01  0.16422794735E+02  0.00000000000E+00 0.  1.
</event>
<event>
 7    1  0.5946946E-013  0.5052885E+02  0.7816164E-02  0.1300439E+00
        -11   -1    0    0    0    0  0.00000000000E+00  0.00000000000E+00  0.45593999997E+02  0.45594000000E+02  0.51100000000E-03 0.  1.
         11   -1    0    0    0    0 -0.00000000000E+00 -0.00000000000E+00 -0.45593999997E+02  0.45594000000E+02  0.51100000000E-03 0. -1.
    9900012    2    1    2    0    0 -0.31832933730E+02  0.23572874310E+02  0.91733363939E+01  0.50528853751E+02  0.29999981462E+02 0.  0.
         12    1    1    2    0    0  0.31832933730E+02 -0.23572874310E+02 -0.91733363939E+01  0.40659146249E+02  0.00000000000E+00 0. -1.
         11    1    3    3    0    0 -0.10942252887E+02 -0.65041609405E+00  0.11024596555E+01  0.11016866927E+02  0.51100000000E-03 0. -1.
        -11    1    3    3    0    0  0.81180236059E+00  0.14338012330E+02  0.60348510198E+01  0.15577453185E+02  0.51100000000E-03 0.  1.
        -12    1    3    3    0    0 -0.21702483203E+02  0.98852780746E+01  0.20360257187E+01  0.23934533639E+02  0.00000000000E+00 0.  1.
</event>
<event>
 7    1  0.5946946E-013  0.5052886E+02  0.7816164E-02  0.1300439E+00
        -11   -1    0    0    0    0  0.00000000000E+00  0.00000000000E+00  0.45593999997E+02  0.45594000000E+02  0.51100000000E-03 0.  1.
         11   -1    0    0    0    0 -0.00000000000E+00 -0.00000000000E+00 -0.45593999997E+02  0.45594000000E+02  0.51100000000E-03 0. -1.
    9900012    2    1    2    0    0  0.12731778021E+02  0.20888426226E+02  0.32476780828E+02  0.50528858165E+02  0.29999994880E+02 0.  0.
         12    1    1    2    0    0 -0.12731778021E+02 -0.20888426226E+02 -0.32476780828E+02  0.40659141835E+02  0.00000000000E+00 0. -1.
         11    1    3    3    0    0  0.11630478852E+02  0.11085732116E+00  0.11134409888E+02  0.16101410233E+02  0.51100000000E-03 0. -1.
        -11    1    3    3    0    0 -0.20843126384E+01  0.49730598657E+01 -0.22579741162E+01  0.58458644334E+01  0.51100000000E-03 0.  1.
        -12    1    3    3    0    0  0.31856118078E+01  0.15804509039E+02  0.23600345056E+02  0.28581583499E+02  0.00000000000E+00 0.  1.
</event>
<event>
 7    1  0.5946946E-013  0.5052885E+02  0.7816164E-02  0.1300439E+00
        -11   -1    0    0    0    0  0.00000000000E+00  0.00000000000E+00  0.45593999997E+02  0.45594000000E+02  0.51100000000E-03 0.  1.
         11   -1    0    0    0    0 -0.00000000000E+00 -0.00000000000E+00 -0.45593999997E+02  0.45594000000E+02  0.51100000000E-03 0. -1.
    9900012    2    1    2    0    0 -0.67030695257E+01  0.25957395937E+02  0.30568750898E+02  0.50528854948E+02  0.29999985099E+02 0.  0.
         12    1    1    2    0    0  0.67030695257E+01 -0.25957395937E+02 -0.30568750898E+02  0.40659145052E+02  0.00000000000E+00 0. -1.
         11    1    3    3    0    0 -0.17023666649E+02  0.13179199621E+02  0.15336164941E+02  0.26432829667E+02  0.51100000000E-03 0. -1.
        -11    1    3    3    0    0  0.20594152618E+01  0.93717809286E+01  0.64159547632E+01  0.11542787565E+02  0.51100000000E-03 0.  1.
         12    1    3    3    0    0  0.82611818613E+01  0.34064153875E+01  0.88166311941E+01  0.12553237716E+02  0.00000000000E+00 0. -1.
</event>
<event>
 7    1  0.5946946E-013  0.5052885E+02  0.7816164E-02  0.1300439E+00
        -11   -1    0    0    0    0  0.00000000000E+00  0.00000000000E+00  0.45593999997E+02  0.45594000000E+02  0.51100000000E-03 0.  1.
         11   -1    0    0    0    0 -0.00000000000E+00 -0.00000000000E+00 -0.45593999997E+02  0.45594000000E+02  0.51100000000E-03 0. -1.
    9900012    2    1    2    0    0 -0.41444542721E+01  0.42401639171E+01  0.40224505827E+02  0.50528851456E+02  0.29999974487E+02 0.  0.
         12    1    1    2    0    0  0.41444542721E+01 -0.42401639171E+01 -0.40224505827E+02  0.40659148544E+02  0.00000000000E+00 0. -1.
         11    1    3    3    0    0 -0.13670593575E+02  0.21679290406E+01  0.68345073086E+01  0.15436824007E+02  0.51100000000E-03 0. -1.
        -11    1    3    3    0    0  0.54777446360E+01  0.32568557213E+01  0.16627010413E+02  0.17806467112E+02  0.51100000000E-03 0.  1.
         12    1    3    3    0    0  0.40483946672E+01 -0.11846208448E+01  0.16762988106E+02  0.17285560337E+02  0.00000000000E+00 0. -1.
</event>
<event>
 7    1  0.5946946E-013  0.5052887E+02  0.7816164E-02  0.1300439E+00
        -11   -1    0    0    0    0  0.00000000000E+00  0.00000000000E+00  0.45593999997E+02  0.45594000000E+02  0.51100000000E-03 0.  1.
         11   -1    0    0    0    0 -0.00000000000E+00 -0.00000000000E+00 -0.45593999997E+02  0.45594000000E+02  0.51100000000E-03 0. -1.
    9900012    2    1    2    0    0  0.39798359494E+02  0.81175609522E+01  0.18332576558E+01  0.50528867596E+02  0.30000023543E+02 0.  0.
         12    1    1    2    0    0 -0.39798359494E+02 -0.81175609522E+01 -0.18332576558E+01  0.40659132404E+02  0.00000000000E+00 0. -1.
         11    1    3    3    0    0  0.24950439859E+02 -0.41113706073E+01 -0.68798083975E+00  0.25296267221E+02  0.51100000000E-03 0. -1.
        -11    1    3    3    0    0 -0.10487385323E+01  0.41510547673E+01  0.56910437734E+01  0.71217334745E+01  0.51100000000E-03 0.  1.
        -12    1    3    3    0    0  0.15896658168E+02  0.80778767921E+01 -0.31698052778E+01  0.18110866900E+02  0.00000000000E+00 0.  1.
</event>
<event>
 7    1  0.5946946E-013  0.5052896E+02  0.7816164E-02  0.1300438E+00
        -11   -1    0    0    0    0  0.00000000000E+00  0.00000000000E+00  0.45593999997E+02  0.45594000000E+02  0.51100000000E-03 0.  1.
         11   -1    0    0    0    0 -0.00000000000E+00 -0.00000000000E+00 -0.45593999997E+02  0.45594000000E+02  0.51100000000E-03 0. -1.
    9900012    2    1    2    0    0  0.10192468072E+02  0.96029063276E+01  0.38171397751E+02  0.50528956459E+02  0.30000293652E+02 0.  0.
         12    1    1    2    0    0 -0.10192468072E+02 -0.96029063276E+01 -0.38171397751E+02  0.40659043541E+02  0.00000000000E+00 0. -1.
         11    1    3    3    0    0  0.28857538204E+01 -0.51475965767E+01  0.22972058747E+02  0.23717942764E+02  0.51100000000E-03 0. -1.
        -11    1    3    3    0    0  0.21134911633E+01  0.16413871556E+02  0.12412864981E+02  0.20687224117E+02  0.51100000000E-03 0.  1.
         12    1    3    3    0    0  0.51932230887E+01 -0.16633686515E+01  0.27864740229E+01  0.61237895784E+01  0.00000000000E+00 0. -1.
</event>
<event>
 7    1  0.5946946E-013  0.5052886E+02  0.7816164E-02  0.1300439E+00
        -11   -1    0    0    0    0  0.00000000000E+00  0.00000000000E+00  0.45593999997E+02  0.45594000000E+02  0.51100000000E-03 0. -1.
         11   -1    0    0    0    0 -0.00000000000E+00 -0.00000000000E+00 -0.45593999997E+02  0.45594000000E+02  0.51100000000E-03 0.  1.
    9900012    2    1    2    0    0  0.14912942032E+02 -0.34439974858E+02 -0.15641541276E+02  0.50528861768E+02  0.30000005831E+02 0.  0.
         12    1    1    2    0    0 -0.14912942032E+02  0.34439974858E+02  0.15641541276E+02  0.40659138232E+02  0.00000000000E+00 0. -1.
         11    1    3    3    0    0 -0.30659330512E+01 -0.99082768788E+00  0.23176988334E+01  0.39690569566E+01  0.51100000000E-03 0. -1.
        -11    1    3    3    0    0  0.21289252101E+02 -0.31748254593E+02 -0.13033980113E+02  0.40386489853E+02  0.51100000000E-03 0.  1.
        -12    1    3    3    0    0 -0.33103770177E+01 -0.17008925766E+01 -0.49252599959E+01  0.61733149591E+01  0.00000000000E+00 0.  1.
</event>
<event>
 7    1  0.5946946E-013  0.5052885E+02  0.7816164E-02  0.1300439E+00
        -11   -1    0    0    0    0  0.00000000000E+00  0.00000000000E+00  0.45593999997E+02  0.45594000000E+02  0.51100000000E-03 0.  1.
         11   -1    0    0    0    0 -0.00000000000E+00 -0.00000000000E+00 -0.45593999997E+02  0.45594000000E+02  0.51100000000E-03 0. -1.
    9900012    2    1    2    0    0  0.18820592256E+01 -0.39851032889E+02  0.78434204840E+01  0.50528853254E+02  0.29999979950E+02 0.  0.
         12    1    1    2    0    0 -0.18820592256E+01  0.39851032889E+02 -0.78434204840E+01  0.40659146746E+02  0.00000000000E+00 0. -1.
         11    1    3    3    0    0 -0.44774257425E+01 -0.12136765842E+02 -0.85118796116E+01  0.15485493895E+02  0.51100000000E-03 0. -1.
        -11    1    3    3    0    0  0.21192682179E+01 -0.16446087886E+02  0.15933265803E+02  0.22996392411E+02  0.51100000000E-03 0.  1.
        -12    1    3    3    0    0  0.42402167502E+01 -0.11268179161E+02  0.42203429287E+00  0.12046966947E+02  0.00000000000E+00 0.  1.
</event>
<event>
 7    1  0.5946946E-013  0.5052888E+02  0.7816164E-02  0.1300439E+00
        -11   -1    0    0    0    0  0.00000000000E+00  0.00000000000E+00  0.45593999997E+02  0.45594000000E+02  0.51100000000E-03 0.  1.
         11   -1    0    0    0    0 -0.00000000000E+00 -0.00000000000E+00 -0.45593999997E+02  0.45594000000E+02  0.51100000000E-03 0. -1.
    9900012    2    1    2    0    0  0.24550239310E+02  0.60141106715E+01  0.31847769602E+02  0.50528877949E+02  0.30000055015E+02 0.  0.
         12    1    1    2    0    0 -0.24550239310E+02 -0.60141106715E+01 -0.31847769602E+02  0.40659122051E+02  0.00000000000E+00 0. -1.
         11    1    3    3    0    0  0.24945663583E+02  0.74156698629E+00  0.24510108750E+02  0.34979729621E+02  0.51100000000E-03 0.  1.
        -11    1    3    3    0    0 -0.33861324678E+01  0.56600385768E+01  0.96919436582E+01  0.11723297399E+02  0.51100000000E-03 0. -1.
        -12    1    3    3    0    0  0.29907081946E+01 -0.38749489158E+00 -0.23542828065E+01  0.38258509288E+01  0.00000000000E+00 0.  1.
</event>
<event>
 7    1  0.5946946E-013  0.5052886E+02  0.7816164E-02  0.1300439E+00
        -11   -1    0    0    0    0  0.00000000000E+00  0.00000000000E+00  0.45593999997E+02  0.45594000000E+02  0.51100000000E-03 0. -1.
         11   -1    0    0    0    0 -0.00000000000E+00 -0.00000000000E+00 -0.45593999997E+02  0.45594000000E+02  0.51100000000E-03 0.  1.
    9900012    2    1    2    0    0 -0.39150613195E+02 -0.10407576306E+02 -0.34752272644E+01  0.50528863725E+02  0.30000011778E+02 0.  0.
         12    1    1    2    0    0  0.39150613195E+02  0.10407576306E+02  0.34752272644E+01  0.40659136275E+02  0.00000000000E+00 0. -1.
         11    1    3    3    0    0 -0.53058206265E+01 -0.14750774282E+00  0.31912722337E+01  0.61933601369E+01  0.51100000000E-03 0. -1.
        -11    1    3    3    0    0 -0.34836003938E+02 -0.14762768401E+02 -0.93871565241E+01  0.38982113964E+02  0.51100000000E-03 0.  1.
        -12    1    3    3    0    0  0.99121136994E+00  0.45026998381E+01  0.27206570259E+01  0.53533896238E+01  0.00000000000E+00 0.  1.
</event>
<event>
 7    1  0.5946946E-013  0.5052885E+02  0.7816164E-02  0.1300439E+00
        -11   -1    0    0    0    0  0.00000000000E+00  0.00000000000E+00  0.45593999997E+02  0.45594000000E+02  0.51100000000E-03 0. -1.
         11   -1    0    0    0    0 -0.00000000000E+00 -0.00000000000E+00 -0.45593999997E+02  0.45594000000E+02  0.51100000000E-03 0.  1.
    9900012    2    1    2    0    0  0.16764268498E+02 -0.10493168540E+02  0.35524904519E+02  0.50528854346E+02  0.29999983270E+02 0.  0.
         12    1    1    2    0    0 -0.16764268498E+02  0.10493168540E+02 -0.35524904519E+02  0.40659145654E+02  0.00000000000E+00 0. -1.
         11    1    3    3    0    0  0.21375708982E+00  0.19049645560E+01 -0.45138628034E+01  0.49040330058E+01  0.51100000000E-03 0. -1.
        -11    1    3    3    0    0  0.62211749955E+01 -0.76990140437E+01  0.13312661385E+02  0.16589297423E+02  0.51100000000E-03 0.  1.
         12    1    3    3    0    0  0.10329336413E+02 -0.46991190519E+01  0.26726105937E+02  0.29035523917E+02  0.00000000000E+00 0. -1.
</event>
<event>
 7    1  0.5946946E-013  0.5052890E+02  0.7816164E-02  0.1300439E+00
        -11   -1    0    0    0    0  0.00000000000E+00  0.00000000000E+00  0.45593999997E+02  0.45594000000E+02  0.51100000000E-03 0. -1.
         11   -1    0    0    0    0 -0.00000000000E+00 -0.00000000000E+00 -0.45593999997E+02  0.45594000000E+02  0.51100000000E-03 0.  1.
    9900012    2    1    2    0    0 -0.25839009350E+02  0.30540775556E+02 -0.72642138002E+01  0.50528902889E+02  0.30000130820E+02 0.  0.
         12    1    1    2    0    0  0.25839009350E+02 -0.30540775556E+02  0.72642138002E+01  0.40659097111E+02  0.00000000000E+00 0. -1.
         11    1    3    3    0    0 -0.10267182253E+02 -0.20261520349E+01 -0.35737997275E+01  0.11058587986E+02  0.51100000000E-03 0. -1.
        -11    1    3    3    0    0  0.14671188915E+00  0.80935677694E+01 -0.63135599319E+01  0.10265885392E+02  0.51100000000E-03 0.  1.
         12    1    3    3    0    0 -0.15718538986E+02  0.24473359821E+02  0.26231458591E+01  0.29204429510E+02  0.00000000000E+00 0. -1.
</event>
<event>
 7    1  0.5946946E-013  0.5052886E+02  0.7816164E-02  0.1300439E+00
        -11   -1    0    0    0    0  0.00000000000E+00  0.00000000000E+00  0.45593999997E+02  0.45594000000E+02  0.51100000000E-03 0.  1.
         11   -1    0    0    0    0 -0.00000000000E+00 -0.00000000000E+00 -0.45593999997E+02  0.45594000000E+02  0.51100000000E-03 0. -1.
    9900012    2    1    2    0    0 -0.15042582802E+02 -0.35484296928E+02 -0.12951884530E+02  0.50528856641E+02  0.29999990245E+02 0.  0.
         12    1    1    2    0    0  0.15042582802E+02  0.35484296928E+02  0.12951884530E+02  0.40659143359E+02  0.00000000000E+00 0. -1.
         11    1    3    3    0    0 -0.85973419683E+01 -0.63933706521E+01 -0.12252432574E+02  0.16276104615E+02  0.51100000000E-03 0. -1.
        -11    1    3    3    0    0  0.23841940967E+01 -0.23865751565E+02 -0.63005835877E+00  0.23992820864E+02  0.51100000000E-03 0.  1.
        -12    1    3    3    0    0 -0.88294349307E+01 -0.52251747114E+01 -0.69393597559E-01  0.10259931161E+02  0.00000000000E+00 0.  1.
</event>
<event>
 7    1  0.5946946E-013  0.5052883E+02  0.7816164E-02  0.1300439E+00
        -11   -1    0    0    0    0  0.00000000000E+00  0.00000000000E+00  0.45593999997E+02  0.45594000000E+02  0.51100000000E-03 0. -1.
         11   -1    0    0    0    0 -0.00000000000E+00 -0.00000000000E+00 -0.45593999997E+02  0.45594000000E+02  0.51100000000E-03 0.  1.
    9900012    2    1    2    0    0  0.31886752558E+02  0.16051652766E+02 -0.19461443478E+02  0.50528827265E+02  0.29999900956E+02 0.  0.
         12    1    1    2    0    0 -0.31886752558E+02 -0.16051652766E+02  0.19461443478E+02  0.40659172735E+02  0.00000000000E+00 0. -1.
         11    1    3    3    0    0  0.11898979189E+02 -0.33661006487E+01  0.43490255176E+00  0.12373579911E+02  0.51100000000E-03 0. -1.
        -11    1    3    3    0    0  0.78186681087E+01  0.11603325154E+02 -0.55218583551E+00  0.14002629577E+02  0.51100000000E-03 0.  1.
         12    1    3    3    0    0  0.12169105260E+02  0.78144282613E+01 -0.19344160195E+02  0.24152617777E+02  0.00000000000E+00 0. -1.
</event>
<event>
 7    1  0.5946946E-013  0.5052888E+02  0.7816164E-02  0.1300439E+00
        -11   -1    0    0    0    0  0.00000000000E+00  0.00000000000E+00  0.45593999997E+02  0.45594000000E+02  0.51100000000E-03 0.  1.
         11   -1    0    0    0    0 -0.00000000000E+00 -0.00000000000E+00 -0.45593999997E+02  0.45594000000E+02  0.51100000000E-03 0. -1.
    9900012    2    1    2    0    0  0.47885727880E+01 -0.27755713721E+02  0.29323266438E+02  0.50528880136E+02  0.30000061662E+02 0.  0.
         12    1    1    2    0    0 -0.47885727880E+01  0.27755713721E+02 -0.29323266438E+02  0.40659119864E+02  0.00000000000E+00 0. -1.
         11    1    3    3    0    0 -0.75901006271E+01 -0.12827720141E+02  0.27593847265E+01  0.15158305838E+02  0.51100000000E-03 0. -1.
        -11    1    3    3    0    0  0.12143045171E+02 -0.14699528784E+02  0.16250907105E+02  0.25052378620E+02  0.51100000000E-03 0.  1.
         12    1    3    3    0    0  0.23562824384E+00 -0.22846479548E+00  0.10312974606E+02  0.10318195678E+02  0.00000000000E+00 0. -1.
</event>
<event>
 7    1  0.5946946E-013  0.5052886E+02  0.7816164E-02  0.1300439E+00
        -11   -1    0    0    0    0  0.00000000000E+00  0.00000000000E+00  0.45593999997E+02  0.45594000000E+02  0.51100000000E-03 0.  1.
         11   -1    0    0    0    0 -0.00000000000E+00 -0.00000000000E+00 -0.45593999997E+02  0.45594000000E+02  0.51100000000E-03 0. -1.
    9900012    2    1    2    0    0 -0.31573914145E+02  0.24482873319E+02  0.75394200009E+01  0.50528855957E+02  0.29999988166E+02 0.  0.
         12    1    1    2    0    0  0.31573914145E+02 -0.24482873319E+02 -0.75394200009E+01  0.40659144043E+02  0.00000000000E+00 0. -1.
         11    1    3    3    0    0 -0.79011534988E+00  0.23042535437E+01 -0.61534795272E+01  0.66180946815E+01  0.51100000000E-03 0. -1.
        -11    1    3    3    0    0 -0.17571446195E+02  0.92077635783E+01  0.15684048714E+02  0.25288891155E+02  0.51100000000E-03 0.  1.
        -12    1    3    3    0    0 -0.13212352600E+02  0.12970856197E+02 -0.19911491856E+01  0.18621870121E+02  0.00000000000E+00 0.  1.
</event>
<event>
 7    1  0.5946946E-013  0.5052886E+02  0.7816164E-02  0.1300439E+00
        -11   -1    0    0    0    0  0.00000000000E+00  0.00000000000E+00  0.45593999997E+02  0.45594000000E+02  0.51100000000E-03 0.  1.
         11   -1    0    0    0    0 -0.00000000000E+00 -0.00000000000E+00 -0.45593999997E+02  0.45594000000E+02  0.51100000000E-03 0. -1.
    9900012    2    1    2    0    0  0.11845250530E+02  0.67434220242E+01  0.38306425809E+02  0.50528856391E+02  0.29999989488E+02 0.  0.
         12    1    1    2    0    0 -0.11845250530E+02 -0.67434220242E+01 -0.38306425809E+02  0.40659143609E+02  0.00000000000E+00 0. -1.
         11    1    3    3    0    0  0.13442314402E+02  0.15410186211E+02  0.24222195198E+02  0.31699911609E+02  0.51100000000E-03 0. -1.
        -11    1    3    3    0    0  0.17852001023E+01  0.10113530782E+01  0.37349002529E+01  0.42613676929E+01  0.51100000000E-03 0.  1.
         12    1    3    3    0    0 -0.33822639748E+01 -0.96781172652E+01  0.10349330358E+02  0.14567577089E+02  0.00000000000E+00 0. -1.
</event>
<event>
 7    1  0.5946946E-013  0.5052886E+02  0.7816164E-02  0.1300439E+00
        -11   -1    0    0    0    0  0.00000000000E+00  0.00000000000E+00  0.45593999997E+02  0.45594000000E+02  0.51100000000E-03 0.  1.
         11   -1    0    0    0    0 -0.00000000000E+00 -0.00000000000E+00 -0.45593999997E+02  0.45594000000E+02  0.51100000000E-03 0. -1.
    9900012    2    1    2    0    0  0.70609604160E+01 -0.31405730576E+02  0.24839251067E+02  0.50528862422E+02  0.30000007819E+02 0.  0.
         12    1    1    2    0    0 -0.70609604160E+01  0.31405730576E+02 -0.24839251067E+02  0.40659137578E+02  0.00000000000E+00 0. -1.
         11    1    3    3    0    0  0.14663186221E+02 -0.87080754202E+01  0.86160456246E+01  0.19106958160E+02  0.51100000000E-03 0. -1.
        -11    1    3    3    0    0 -0.51599349779E+01 -0.77447492271E+01  0.11364890987E+00  0.93069321424E+01  0.51100000000E-03 0.  1.
        -12    1    3    3    0    0 -0.24422908268E+01 -0.14952905929E+02  0.16109556532E+02  0.22114972120E+02  0.00000000000E+00 0.  1.
</event>
<event>
 7    1  0.5946946E-013  0.5052887E+02  0.7816164E-02  0.1300439E+00
        -11   -1    0    0    0    0  0.00000000000E+00  0.00000000000E+00  0.45593999997E+02  0.45594000000E+02  0.51100000000E-03 0. -1.
         11   -1    0    0    0    0 -0.00000000000E+00 -0.00000000000E+00 -0.45593999997E+02  0.45594000000E+02  0.51100000000E-03 0.  1.
    9900012    2    1    2    0    0 -0.17261599947E+02 -0.33173484449E+02  0.15960022631E+02  0.50528865410E+02  0.30000016900E+02 0.  0.
         12    1    1    2    0    0  0.17261599947E+02  0.33173484449E+02 -0.15960022631E+02  0.40659134590E+02  0.00000000000E+00 0. -1.
         11    1    3    3    0    0 -0.80227223275E+00  0.31380729179E+01  0.55282955821E+01  0.64072766975E+01  0.51100000000E-03 0. -1.
        -11    1    3    3    0    0 -0.16659241069E+02 -0.29156794243E+02  0.13681760470E+02  0.36260716117E+02  0.51100000000E-03 0.  1.
         12    1    3    3    0    0  0.19991335476E+00 -0.71547631246E+01 -0.32500334214E+01  0.78608725953E+01  0.00000000000E+00 0. -1.
</event>
<event>
 7    1  0.5946946E-013  0.5052886E+02  0.7816164E-02  0.1300439E+00
        -11   -1    0    0    0    0  0.00000000000E+00  0.00000000000E+00  0.45593999997E+02  0.45594000000E+02  0.51100000000E-03 0.  1.
         11   -1    0    0    0    0 -0.00000000000E+00 -0.00000000000E+00 -0.45593999997E+02  0.45594000000E+02  0.51100000000E-03 0. -1.
    9900012    2    1    2    0    0 -0.89017146742E+01 -0.38039229207E+02  0.11266844408E+02  0.50528864917E+02  0.30000015401E+02 0.  0.
         12    1    1    2    0    0  0.89017146742E+01  0.38039229207E+02 -0.11266844408E+02  0.40659135083E+02  0.00000000000E+00 0. -1.
         11    1    3    3    0    0 -0.86175092429E+01 -0.37518053102E+02  0.49456387458E+01  0.38811404470E+02  0.51100000000E-03 0. -1.
        -11    1    3    3    0    0 -0.22001478408E+01 -0.42608708432E+01  0.93428635894E+00  0.48855462464E+01  0.51100000000E-03 0.  1.
         12    1    3    3    0    0  0.19159424095E+01  0.37396947382E+01  0.53869193037E+01  0.68319142000E+01  0.00000000000E+00 0. -1.
</event>
<event>
 7    1  0.5946946E-013  0.5052887E+02  0.7816164E-02  0.1300439E+00
        -11   -1    0    0    0    0  0.00000000000E+00  0.00000000000E+00  0.45593999997E+02  0.45594000000E+02  0.51100000000E-03 0.  1.
         11   -1    0    0    0    0 -0.00000000000E+00 -0.00000000000E+00 -0.45593999997E+02  0.45594000000E+02  0.51100000000E-03 0. -1.
    9900012    2    1    2    0    0  0.30492496290E+02 -0.26833941562E+02  0.18198919087E+01  0.50528871182E+02  0.30000034444E+02 0.  0.
         12    1    1    2    0    0 -0.30492496290E+02  0.26833941562E+02 -0.18198919087E+01  0.40659128818E+02  0.00000000000E+00 0. -1.
         11    1    3    3    0    0  0.20032327536E+01  0.25708380497E+00 -0.53288450173E+01  0.56987387225E+01  0.51100000000E-03 0. -1.
        -11    1    3    3    0    0  0.16103147146E+02 -0.18604039950E+02  0.14018303031E+02  0.28318447531E+02  0.51100000000E-03 0.  1.
        -12    1    3    3    0    0  0.12386116390E+02 -0.84869854166E+01 -0.68695661048E+01  0.16511684928E+02  0.00000000000E+00 0.  1.
</event>
<event>
 7    1  0.5946946E-013  0.5052886E+02  0.7816164E-02  0.1300439E+00
        -11   -1    0    0    0    0  0.00000000000E+00  0.00000000000E+00  0.45593999997E+02  0.45594000000E+02  0.51100000000E-03 0. -1.
         11   -1    0    0    0    0 -0.00000000000E+00 -0.00000000000E+00 -0.45593999997E+02  0.45594000000E+02  0.51100000000E-03 0.  1.
    9900012    2    1    2    0    0  0.37528384928E+02  0.45422983036E+01 -0.14971743867E+02  0.50528864943E+02  0.30000015479E+02 0.  0.
         12    1    1    2    0    0 -0.37528384928E+02 -0.45422983036E+01  0.14971743867E+02  0.40659135057E+02  0.00000000000E+00 0. -1.
         11    1    3    3    0    0  0.37057636746E+01  0.55414148862E+01  0.69880444183E+01  0.96577807184E+01  0.51100000000E-03 0. -1.
        -11    1    3    3    0    0  0.16567359088E+02  0.24767472730E+01 -0.90271879543E+01  0.19028972301E+02  0.51100000000E-03 0.  1.
         12    1    3    3    0    0  0.17255262166E+02 -0.34758638556E+01 -0.12932600331E+02  0.21842111923E+02  0.00000000000E+00 0. -1.
</event>
<event>
 7    1  0.5946946E-013  0.5052886E+02  0.7816164E-02  0.1300439E+00
        -11   -1    0    0    0    0  0.00000000000E+00  0.00000000000E+00  0.45593999997E+02  0.45594000000E+02  0.51100000000E-03 0. -1.
         11   -1    0    0    0    0 -0.00000000000E+00 -0.00000000000E+00 -0.45593999997E+02  0.45594000000E+02  0.51100000000E-03 0.  1.
    9900012    2    1    2    0    0  0.12370417422E+02  0.28395731816E+02 -0.26340480188E+02  0.50528859465E+02  0.29999998828E+02 0.  0.
         12    1    1    2    0    0 -0.12370417422E+02 -0.28395731816E+02  0.26340480188E+02  0.40659140535E+02  0.00000000000E+00 0. -1.
         11    1    3    3    0    0  0.39434835986E+01  0.14199865958E+02  0.23253506245E+01  0.14919601600E+02  0.51100000000E-03 0. -1.
        -11    1    3    3    0    0 -0.78220984802E+00  0.96626197250E+01 -0.19800800490E+02  0.22046536519E+02  0.51100000000E-03 0.  1.
         12    1    3    3    0    0  0.92091436712E+01  0.45332461323E+01 -0.88650303232E+01  0.13562721345E+02  0.00000000000E+00 0. -1.
</event>
<event>
 7    1  0.5946946E-013  0.5052886E+02  0.7816164E-02  0.1300439E+00
        -11   -1    0    0    0    0  0.00000000000E+00  0.00000000000E+00  0.45593999997E+02  0.45594000000E+02  0.51100000000E-03 0. -1.
         11   -1    0    0    0    0 -0.00000000000E+00 -0.00000000000E+00 -0.45593999997E+02  0.45594000000E+02  0.51100000000E-03 0.  1.
    9900012    2    1    2    0    0  0.12318077663E+02  0.38682428172E+02  0.22584478601E+01  0.50528857445E+02  0.29999992689E+02 0.  0.
         12    1    1    2    0    0 -0.12318077663E+02 -0.38682428172E+02 -0.22584478601E+01  0.40659142555E+02  0.00000000000E+00 0. -1.
         11    1    3    3    0    0  0.13431810547E+01  0.53715103914E+01  0.11283132701E+02  0.12568466216E+02  0.51100000000E-03 0. -1.
        -11    1    3    3    0    0  0.89230296293E+01  0.27382654051E+02 -0.11770730338E+02  0.31112381676E+02  0.51100000000E-03 0.  1.
        -12    1    3    3    0    0  0.20518669792E+01  0.59282637300E+01  0.27460454972E+01  0.68480095521E+01  0.00000000000E+00 0.  1.
</event>
<event>
 7    1  0.5946946E-013  0.5052886E+02  0.7816164E-02  0.1300439E+00
        -11   -1    0    0    0    0  0.00000000000E+00  0.00000000000E+00  0.45593999997E+02  0.45594000000E+02  0.51100000000E-03 0.  1.
         11   -1    0    0    0    0 -0.00000000000E+00 -0.00000000000E+00 -0.45593999997E+02  0.45594000000E+02  0.51100000000E-03 0. -1.
    9900012    2    1    2    0    0  0.10137812455E+02 -0.96226353875E+01  0.38181084889E+02  0.50528860850E+02  0.30000003039E+02 0.  0.
         12    1    1    2    0    0 -0.10137812455E+02  0.96226353875E+01 -0.38181084889E+02  0.40659139150E+02  0.00000000000E+00 0. -1.
         11    1    3    3    0    0  0.88169969064E+01 -0.15410497978E+01  0.52861742600E+01  0.10395090548E+02  0.51100000000E-03 0. -1.
        -11    1    3    3    0    0 -0.72409893309E+00  0.73094608060E+01  0.12545189624E+02  0.14537342244E+02  0.51100000000E-03 0.  1.
        -12    1    3    3    0    0  0.20449144817E+01 -0.15391046396E+02  0.20349721004E+02  0.25596428058E+02  0.00000000000E+00 0.  1.
</event>
<event>
 7    1  0.5946946E-013  0.5052885E+02  0.7816164E-02  0.1300439E+00
        -11   -1    0    0    0    0  0.00000000000E+00  0.00000000000E+00  0.45593999997E+02  0.45594000000E+02  0.51100000000E-03 0. -1.
         11   -1    0    0    0    0 -0.00000000000E+00 -0.00000000000E+00 -0.45593999997E+02  0.45594000000E+02  0.51100000000E-03 0.  1.
    9900012    2    1    2    0    0  0.19408386662E+02 -0.33012973450E+02  0.13661064856E+02  0.50528848731E+02  0.29999966204E+02 0.  0.
         12    1    1    2    0    0 -0.19408386662E+02  0.33012973450E+02 -0.13661064856E+02  0.40659151269E+02  0.00000000000E+00 0. -1.
         11    1    3    3    0    0 -0.85729448932E+00  0.28298480234E+01 -0.12171899668E+00  0.29593596355E+01  0.51100000000E-03 0. -1.
        -11    1    3    3    0    0  0.23381589508E+02 -0.35294951398E+02  0.12390722378E+02  0.44113062956E+02  0.51100000000E-03 0.  1.
        -12    1    3    3    0    0 -0.31159083565E+01 -0.54787007606E+00  0.13920614755E+01  0.34564261395E+01  0.00000000000E+00 0.  1.
</event>
<event>
 7    1  0.5946946E-013  0.5052886E+02  0.7816164E-02  0.1300439E+00
        -11   -1    0    0    0    0  0.00000000000E+00  0.00000000000E+00  0.45593999997E+02  0.45594000000E+02  0.51100000000E-03 0.  1.
         11   -1    0    0    0    0 -0.00000000000E+00 -0.00000000000E+00 -0.45593999997E+02  0.45594000000E+02  0.51100000000E-03 0. -1.
    9900012    2    1    2    0    0 -0.75079540439E+01 -0.35222032118E+02  0.18873390343E+02  0.50528858550E+02  0.29999996048E+02 0.  0.
         12    1    1    2    0    0  0.75079540439E+01  0.35222032118E+02 -0.18873390343E+02  0.40659141450E+02  0.00000000000E+00 0. -1.
         11    1    3    3    0    0  0.43027415792E+01 -0.29518096282E+01  0.12905999911E+02  0.13920905112E+02  0.51100000000E-03 0. -1.
        -11    1    3    3    0    0 -0.82874372943E+01 -0.93303995016E+01  0.47968084710E+01  0.13369642611E+02  0.51100000000E-03 0.  1.
        -12    1    3    3    0    0 -0.35232583287E+01 -0.22939822988E+02  0.11705819615E+01  0.23238310827E+02  0.00000000000E+00 0.  1.
</event>
<event>
 7    1  0.5946946E-013  0.5052883E+02  0.7816164E-02  0.1300439E+00
        -11   -1    0    0    0    0  0.00000000000E+00  0.00000000000E+00  0.45593999997E+02  0.45594000000E+02  0.51100000000E-03 0. -1.
         11   -1    0    0    0    0 -0.00000000000E+00 -0.00000000000E+00 -0.45593999997E+02  0.45594000000E+02  0.51100000000E-03 0.  1.
    9900012    2    1    2    0    0  0.36439551859E+02 -0.13963971825E+02 -0.11416420476E+02  0.50528829997E+02  0.29999909259E+02 0.  0.
         12    1    1    2    0    0 -0.36439551859E+02  0.13963971825E+02  0.11416420476E+02  0.40659170003E+02  0.00000000000E+00 0. -1.
         11    1    3    3    0    0  0.50332938033E+01  0.26831987865E+01 -0.83049080311E+01  0.10074973941E+02  0.51100000000E-03 0.  1.
        -11    1    3    3    0    0  0.33760559280E+02 -0.15232312238E+02 -0.11085568143E+01  0.37054387020E+02  0.51100000000E-03 0. -1.
         12    1    3    3    0    0 -0.23543012236E+01 -0.14148583733E+01 -0.20029556309E+01  0.33994690361E+01  0.00000000000E+00 0. -1.
</event>
<event>
 7    1  0.5946946E-013  0.5052886E+02  0.7816164E-02  0.1300439E+00
        -11   -1    0    0    0    0  0.00000000000E+00  0.00000000000E+00  0.45593999997E+02  0.45594000000E+02  0.51100000000E-03 0.  1.
         11   -1    0    0    0    0 -0.00000000000E+00 -0.00000000000E+00 -0.45593999997E+02  0.45594000000E+02  0.51100000000E-03 0. -1.
    9900012    2    1    2    0    0 -0.11935541605E+02  0.38061715102E+02 -0.78749162615E+01  0.50528860609E+02  0.30000002307E+02 0.  0.
         12    1    1    2    0    0  0.11935541605E+02 -0.38061715102E+02  0.78749162615E+01  0.40659139391E+02  0.00000000000E+00 0. -1.
         11    1    3    3    0    0 -0.11208819482E+02  0.51146218070E+01 -0.16075907459E+01  0.12425028720E+02  0.51100000000E-03 0. -1.
        -11    1    3    3    0    0  0.60737614038E+01  0.27685748422E+02 -0.17671314517E+01  0.28399190078E+02  0.51100000000E-03 0.  1.
        -12    1    3    3    0    0 -0.68004835266E+01  0.52613448726E+01 -0.45001940639E+01  0.97046418109E+01  0.00000000000E+00 0.  1.
</event>
<event>
 7    1  0.5946946E-013  0.5052887E+02  0.7816164E-02  0.1300439E+00
        -11   -1    0    0    0    0  0.00000000000E+00  0.00000000000E+00  0.45593999997E+02  0.45594000000E+02  0.51100000000E-03 0.  1.
         11   -1    0    0    0    0 -0.00000000000E+00 -0.00000000000E+00 -0.45593999997E+02  0.45594000000E+02  0.51100000000E-03 0. -1.
    9900012    2    1    2    0    0  0.94398503887E+01  0.34889391346E+02 -0.18622141733E+02  0.50528873514E+02  0.30000041533E+02 0.  0.
         12    1    1    2    0    0 -0.94398503887E+01 -0.34889391346E+02  0.18622141733E+02  0.40659126486E+02  0.00000000000E+00 0. -1.
         11    1    3    3    0    0  0.55455342229E+01 -0.24517567665E+01 -0.67369414111E+01  0.90636880405E+01  0.51100000000E-03 0. -1.
        -11    1    3    3    0    0  0.36689260405E+01  0.34064278952E+02 -0.60820293281E+01  0.34796942392E+02  0.51100000000E-03 0.  1.
        -12    1    3    3    0    0  0.22539012532E+00  0.32768691604E+01 -0.58031709940E+01  0.66682430811E+01  0.00000000000E+00 0.  1.
</event>
<event>
 7    1  0.5946946E-013  0.5052886E+02  0.7816164E-02  0.1300439E+00
        -11   -1    0    0    0    0  0.00000000000E+00  0.00000000000E+00  0.45593999997E+02  0.45594000000E+02  0.51100000000E-03 0. -1.
         11   -1    0    0    0    0 -0.00000000000E+00 -0.00000000000E+00 -0.45593999997E+02  0.45594000000E+02  0.51100000000E-03 0.  1.
    9900012    2    1    2    0    0  0.94183246791E+01 -0.39502285237E+02 -0.20075370672E+01  0.50528861006E+02  0.30000003513E+02 0.  0.
         12    1    1    2    0    0 -0.94183246791E+01  0.39502285237E+02  0.20075370672E+01  0.40659138994E+02  0.00000000000E+00 0. -1.
         11    1    3    3    0    0 -0.50026028844E+01 -0.75621204498E+01 -0.92507931102E+01  0.12953334503E+02  0.51100000000E-03 0. -1.
        -11    1    3    3    0    0  0.14608362460E+02 -0.24161834065E+02  0.89318957266E+01  0.29613801524E+02  0.51100000000E-03 0.  1.
         12    1    3    3    0    0 -0.18743489647E+00 -0.77783307216E+01 -0.16886396837E+01  0.79617249787E+01  0.00000000000E+00 0. -1.
</event>
<event>
 7    1  0.5946946E-013  0.5052887E+02  0.7816164E-02  0.1300439E+00
        -11   -1    0    0    0    0  0.00000000000E+00  0.00000000000E+00  0.45593999997E+02  0.45594000000E+02  0.51100000000E-03 0. -1.
         11   -1    0    0    0    0 -0.00000000000E+00 -0.00000000000E+00 -0.45593999997E+02  0.45594000000E+02  0.51100000000E-03 0.  1.
    9900012    2    1    2    0    0  0.34439236537E+02 -0.21221751893E+02 -0.40915895468E+01  0.50528869762E+02  0.30000030129E+02 0.  0.
         12    1    1    2    0    0 -0.34439236537E+02  0.21221751893E+02  0.40915895468E+01  0.40659130238E+02  0.00000000000E+00 0. -1.
         11    1    3    3    0    0  0.32879754097E+02 -0.10440682658E+02 -0.90529386296E+01  0.35665694749E+02  0.51100000000E-03 0. -1.
        -11    1    3    3    0    0  0.31999607672E+01 -0.10192215857E+02  0.12407537614E+01  0.10754556390E+02  0.51100000000E-03 0.  1.
         12    1    3    3    0    0 -0.16404783270E+01 -0.58885337762E+00  0.37205953214E+01  0.41086186228E+01  0.00000000000E+00 0. -1.
</event>
<event>
 7    1  0.5946946E-013  0.5052887E+02  0.7816164E-02  0.1300439E+00
        -11   -1    0    0    0    0  0.00000000000E+00  0.00000000000E+00  0.45593999997E+02  0.45594000000E+02  0.51100000000E-03 0.  1.
         11   -1    0    0    0    0 -0.00000000000E+00 -0.00000000000E+00 -0.45593999997E+02  0.45594000000E+02  0.51100000000E-03 0. -1.
    9900012    2    1    2    0    0 -0.29227396616E+02 -0.27784377434E+02 -0.51915961730E+01  0.50528868023E+02  0.30000024841E+02 0.  0.
         12    1    1    2    0    0  0.29227396616E+02  0.27784377434E+02  0.51915961730E+01  0.40659131977E+02  0.00000000000E+00 0. -1.
         11    1    3    3    0    0 -0.57583967856E+01 -0.50680866716E+01 -0.13036095608E+02  0.15125621476E+02  0.51100000000E-03 0. -1.
        -11    1    3    3    0    0 -0.10899185771E+02 -0.16979564922E+02  0.15980369343E+01  0.20239851721E+02  0.51100000000E-03 0.  1.
         12    1    3    3    0    0 -0.12569814060E+02 -0.57367258407E+01  0.62464625009E+01  0.15163394826E+02  0.00000000000E+00 0. -1.
</event>
<event>
 7    1  0.5946946E-013  0.5052886E+02  0.7816164E-02  0.1300439E+00
        -11   -1    0    0    0    0  0.00000000000E+00  0.00000000000E+00  0.45593999997E+02  0.45594000000E+02  0.51100000000E-03 0.  1.
         11   -1    0    0    0    0 -0.00000000000E+00 -0.00000000000E+00 -0.45593999997E+02  0.45594000000E+02  0.51100000000E-03 0. -1.
    9900012    2    1    2    0    0  0.14893456830E+01  0.40511618485E+02  0.31234701222E+01  0.50528862670E+02  0.30000008572E+02 0.  0.
         12    1    1    2    0    0 -0.14893456830E+01 -0.40511618485E+02 -0.31234701222E+01  0.40659137330E+02  0.00000000000E+00 0. -1.
         11    1    3    3    0    0 -0.19531270672E+01  0.11025406402E+02 -0.11751864424E+02  0.16232085799E+02  0.51100000000E-03 0. -1.
        -11    1    3    3    0    0  0.56852408397E+00  0.26905723481E+02  0.14003762324E+02  0.30337213702E+02  0.51100000000E-03 0.  1.
         12    1    3    3    0    0  0.28739486663E+01  0.25804886013E+01  0.87157222263E+00  0.39595631700E+01  0.00000000000E+00 0. -1.
</event>
<event>
 7    1  0.5946946E-013  0.5052886E+02  0.7816164E-02  0.1300439E+00
        -11   -1    0    0    0    0  0.00000000000E+00  0.00000000000E+00  0.45593999997E+02  0.45594000000E+02  0.51100000000E-03 0. -1.
         11   -1    0    0    0    0 -0.00000000000E+00 -0.00000000000E+00 -0.45593999997E+02  0.45594000000E+02  0.51100000000E-03 0.  1.
    9900012    2    1    2    0    0 -0.29066592413E+02 -0.17655641017E+02 -0.22284017106E+02  0.50528857454E+02  0.29999992716E+02 0.  0.
         12    1    1    2    0    0  0.29066592413E+02  0.17655641017E+02  0.22284017106E+02  0.40659142546E+02  0.00000000000E+00 0. -1.
         11    1    3    3    0    0 -0.10429254727E+02 -0.94295719969E+01 -0.20997527468E+02  0.25270186827E+02  0.51100000000E-03 0. -1.
        -11    1    3    3    0    0 -0.11513806909E+02 -0.11010651023E+02 -0.50795272884E+01  0.16721357099E+02  0.51100000000E-03 0.  1.
         12    1    3    3    0    0 -0.71235307766E+01  0.27845820025E+01  0.37930376510E+01  0.85373135280E+01  0.00000000000E+00 0. -1.
</event>
<event>
 7    1  0.5946946E-013  0.5052886E+02  0.7816164E-02  0.1300439E+00
        -11   -1    0    0    0    0  0.00000000000E+00  0.00000000000E+00  0.45593999997E+02  0.45594000000E+02  0.51100000000E-03 0.  1.
         11   -1    0    0    0    0 -0.00000000000E+00 -0.00000000000E+00 -0.45593999997E+02  0.45594000000E+02  0.51100000000E-03 0. -1.
    9900012    2    1    2    0    0 -0.13691928358E+00  0.21761517484E+02  0.34345056265E+02  0.50528864742E+02  0.30000014869E+02 0.  0.
         12    1    1    2    0    0  0.13691928358E+00 -0.21761517484E+02 -0.34345056265E+02  0.40659135258E+02  0.00000000000E+00 0. -1.
         11    1    3    3    0    0 -0.44748390738E+01  0.11210749079E+02 -0.55333589278E+00  0.12083511928E+02  0.51100000000E-03 0. -1.
        -11    1    3    3    0    0  0.67370414803E+01  0.89496955866E+01  0.17285774794E+02  0.20598125874E+02  0.51100000000E-03 0.  1.
        -12    1    3    3    0    0 -0.23991216901E+01  0.16010728180E+01  0.17612617363E+02  0.17847226940E+02  0.00000000000E+00 0.  1.
</event>
<event>
 7    1  0.5946946E-013  0.5052887E+02  0.7816164E-02  0.1300439E+00
        -11   -1    0    0    0    0  0.00000000000E+00  0.00000000000E+00  0.45593999997E+02  0.45594000000E+02  0.51100000000E-03 0.  1.
         11   -1    0    0    0    0 -0.00000000000E+00 -0.00000000000E+00 -0.45593999997E+02  0.45594000000E+02  0.51100000000E-03 0. -1.
    9900012    2    1    2    0    0 -0.78877134490E+01  0.32442380691E+02  0.23204323581E+02  0.50528871613E+02  0.30000035754E+02 0.  0.
         12    1    1    2    0    0  0.78877134490E+01 -0.32442380691E+02 -0.23204323581E+02  0.40659128387E+02  0.00000000000E+00 0. -1.
         11    1    3    3    0    0  0.86876790449E+01  0.96871305643E+00  0.17947598970E+01  0.89238632622E+01  0.51100000000E-03 0. -1.
        -11    1    3    3    0    0 -0.96893483035E+01  0.17570654745E+02  0.10573244644E+02  0.22680495614E+02  0.51100000000E-03 0.  1.
         12    1    3    3    0    0 -0.68860441904E+01  0.13903012889E+02  0.10836319040E+02  0.18924512737E+02  0.00000000000E+00 0. -1.
</event>
<event>
 7    1  0.5946946E-013  0.5052887E+02  0.7816164E-02  0.1300439E+00
        -11   -1    0    0    0    0  0.00000000000E+00  0.00000000000E+00  0.45593999997E+02  0.45594000000E+02  0.51100000000E-03 0.  1.
         11   -1    0    0    0    0 -0.00000000000E+00 -0.00000000000E+00 -0.45593999997E+02  0.45594000000E+02  0.51100000000E-03 0. -1.
    9900012    2    1    2    0    0 -0.24250563780E+02 -0.11513810049E+02  0.30536985825E+02  0.50528866109E+02  0.30000019025E+02 0.  0.
         12    1    1    2    0    0  0.24250563780E+02  0.11513810049E+02 -0.30536985825E+02  0.40659133891E+02  0.00000000000E+00 0. -1.
         11    1    3    3    0    0  0.85499228663E+00 -0.22888039219E+00  0.14684304078E-01  0.88521970947E+00  0.51100000000E-03 0. -1.
        -11    1    3    3    0    0 -0.10540877214E+02 -0.22408731666E+01 -0.36780063620E+01  0.11386805349E+02  0.51100000000E-03 0.  1.
        -12    1    3    3    0    0 -0.14564678852E+02 -0.90440564906E+01  0.34200307883E+02  0.38256841050E+02  0.00000000000E+00 0.  1.
</event>
<event>
 7    1  0.5946946E-013  0.5052886E+02  0.7816164E-02  0.1300439E+00
        -11   -1    0    0    0    0  0.00000000000E+00  0.00000000000E+00  0.45593999997E+02  0.45594000000E+02  0.51100000000E-03 0.  1.
         11   -1    0    0    0    0 -0.00000000000E+00 -0.00000000000E+00 -0.45593999997E+02  0.45594000000E+02  0.51100000000E-03 0. -1.
    9900012    2    1    2    0    0 -0.37175843324E+02  0.29310749167E+01  0.16202804971E+02  0.50528863070E+02  0.30000009787E+02 0.  0.
         12    1    1    2    0    0  0.37175843324E+02 -0.29310749167E+01 -0.16202804971E+02  0.40659136930E+02  0.00000000000E+00 0. -1.
         11    1    3    3    0    0 -0.25418375723E+02  0.89211307790E+00 -0.37835713106E+01  0.25713908732E+02  0.51100000000E-03 0. -1.
        -11    1    3    3    0    0 -0.28997428047E+01  0.29606633693E+01  0.12538121742E+02  0.13205246420E+02  0.51100000000E-03 0.  1.
        -12    1    3    3    0    0 -0.88577247960E+01 -0.92170153044E+00  0.74482545389E+01  0.11609707918E+02  0.00000000000E+00 0.  1.
</event>
<event>
 7    1  0.5946946E-013  0.5052885E+02  0.7816164E-02  0.1300439E+00
        -11   -1    0    0    0    0  0.00000000000E+00  0.00000000000E+00  0.45593999997E+02  0.45594000000E+02  0.51100000000E-03 0.  1.
         11   -1    0    0    0    0 -0.00000000000E+00 -0.00000000000E+00 -0.45593999997E+02  0.45594000000E+02  0.51100000000E-03 0. -1.
    9900012    2    1    2    0    0 -0.29187019388E+02  0.49989798883E+01  0.27862065496E+02  0.50528848577E+02  0.29999965736E+02 0.  0.
         12    1    1    2    0    0  0.29187019388E+02 -0.49989798883E+01 -0.27862065496E+02  0.40659151423E+02  0.00000000000E+00 0. -1.
         11    1    3    3    0    0 -0.28147751056E+02  0.90097688241E+01  0.10919469468E+02  0.31507247380E+02  0.51100000000E-03 0. -1.
        -11    1    3    3    0    0 -0.42535712019E+01 -0.30292762328E+01  0.91521589864E+01  0.10537143675E+02  0.51100000000E-03 0.  1.
         12    1    3    3    0    0  0.32143028697E+01 -0.98151270292E+00  0.77904370426E+01  0.84844575218E+01  0.00000000000E+00 0. -1.
</event>
<event>
 7    1  0.5946946E-013  0.5052885E+02  0.7816164E-02  0.1300439E+00
        -11   -1    0    0    0    0  0.00000000000E+00  0.00000000000E+00  0.45593999997E+02  0.45594000000E+02  0.51100000000E-03 0.  1.
         11   -1    0    0    0    0 -0.00000000000E+00 -0.00000000000E+00 -0.45593999997E+02  0.45594000000E+02  0.51100000000E-03 0. -1.
    9900012    2    1    2    0    0 -0.20763260848E+02  0.28424971492E+02  0.20348817164E+02  0.50528851395E+02  0.29999974300E+02 0.  0.
         12    1    1    2    0    0  0.20763260848E+02 -0.28424971492E+02 -0.20348817164E+02  0.40659148605E+02  0.00000000000E+00 0. -1.
         11    1    3    3    0    0 -0.10784624731E+02  0.31642603570E+01 -0.46871942855E+01  0.12177457236E+02  0.51100000000E-03 0. -1.
        -11    1    3    3    0    0 -0.10625858930E+02  0.15453124904E+02  0.19568407589E+02  0.27104068387E+02  0.51100000000E-03 0.  1.
        -12    1    3    3    0    0  0.64722281389E+00  0.98075862306E+01  0.54676038598E+01  0.11247325771E+02  0.00000000000E+00 0.  1.
</event>
<event>
 7    1  0.5946946E-013  0.5052885E+02  0.7816164E-02  0.1300439E+00
        -11   -1    0    0    0    0  0.00000000000E+00  0.00000000000E+00  0.45593999997E+02  0.45594000000E+02  0.51100000000E-03 0. -1.
         11   -1    0    0    0    0 -0.00000000000E+00 -0.00000000000E+00 -0.45593999997E+02  0.45594000000E+02  0.51100000000E-03 0.  1.
    9900012    2    1    2    0    0 -0.34299592155E+02 -0.33298513790E+01  0.21578157437E+02  0.50528845919E+02  0.29999957656E+02 0.  0.
         12    1    1    2    0    0  0.34299592155E+02  0.33298513790E+01 -0.21578157437E+02  0.40659154081E+02  0.00000000000E+00 0. -1.
         11    1    3    3    0    0  0.36239817934E+01  0.46160512700E+00  0.72649234344E+01  0.81317547984E+01  0.51100000000E-03 0. -1.
        -11    1    3    3    0    0 -0.26718618752E+02 -0.48504026220E+01  0.15177697871E+02  0.31109058272E+02  0.51100000000E-03 0.  1.
         12    1    3    3    0    0 -0.11204955196E+02  0.10589461161E+01 -0.86446386903E+00  0.11288032849E+02  0.00000000000E+00 0. -1.
</event>
<event>
 7    1  0.5946946E-013  0.5052886E+02  0.7816164E-02  0.1300439E+00
        -11   -1    0    0    0    0  0.00000000000E+00  0.00000000000E+00  0.45593999997E+02  0.45594000000E+02  0.51100000000E-03 0.  1.
         11   -1    0    0    0    0 -0.00000000000E+00 -0.00000000000E+00 -0.45593999997E+02  0.45594000000E+02  0.51100000000E-03 0. -1.
    9900012    2    1    2    0    0 -0.11655720690E+02 -0.11637325082E+02  0.37173683638E+02  0.50528856931E+02  0.29999991129E+02 0.  0.
         12    1    1    2    0    0  0.11655720690E+02  0.11637325082E+02 -0.37173683638E+02  0.40659143069E+02  0.00000000000E+00 0. -1.
         11    1    3    3    0    0 -0.52513881051E+01 -0.18696793687E+01 -0.23148072785E+01  0.60358189974E+01  0.51100000000E-03 0. -1.
        -11    1    3    3    0    0 -0.10081068295E+01 -0.13153452808E+02  0.32287923648E+02  0.34878927935E+02  0.51100000000E-03 0.  1.
         12    1    3    3    0    0 -0.53962257550E+01  0.33858070947E+01  0.72005672686E+01  0.96141099989E+01  0.00000000000E+00 0. -1.
</event>
<event>
 7    1  0.5946946E-013  0.5052886E+02  0.7816164E-02  0.1300439E+00
        -11   -1    0    0    0    0  0.00000000000E+00  0.00000000000E+00  0.45593999997E+02  0.45594000000E+02  0.51100000000E-03 0. -1.
         11   -1    0    0    0    0 -0.00000000000E+00 -0.00000000000E+00 -0.45593999997E+02  0.45594000000E+02  0.51100000000E-03 0.  1.
    9900012    2    1    2    0    0  0.34545746785E+02 -0.17859985251E+02  0.11864987299E+02  0.50528860589E+02  0.30000002245E+02 0.  0.
         12    1    1    2    0    0 -0.34545746785E+02  0.17859985251E+02 -0.11864987299E+02  0.40659139411E+02  0.00000000000E+00 0. -1.
         11    1    3    3    0    0  0.12525332964E+01  0.51490438878E+01  0.46321628989E+01  0.70383539269E+01  0.51100000000E-03 0. -1.
        -11    1    3    3    0    0  0.14119639665E+02 -0.93461171735E+01 -0.40088702684E+01  0.17400723306E+02  0.51100000000E-03 0.  1.
        -12    1    3    3    0    0  0.19173573823E+02 -0.13662911965E+02  0.11241694668E+02  0.26089783355E+02  0.00000000000E+00 0.  1.
</event>
<event>
 7    1  0.5946946E-013  0.5052885E+02  0.7816164E-02  0.1300439E+00
        -11   -1    0    0    0    0  0.00000000000E+00  0.00000000000E+00  0.45593999997E+02  0.45594000000E+02  0.51100000000E-03 0.  1.
         11   -1    0    0    0    0 -0.00000000000E+00 -0.00000000000E+00 -0.45593999997E+02  0.45594000000E+02  0.51100000000E-03 0. -1.
    9900012    2    1    2    0    0  0.49029276767E+00  0.40399143565E+02 -0.45645927550E+01  0.50528847343E+02  0.29999961985E+02 0.  0.
         12    1    1    2    0    0 -0.49029276767E+00 -0.40399143565E+02  0.45645927550E+01  0.40659152657E+02  0.00000000000E+00 0. -1.
         11    1    3    3    0    0 -0.43031509624E+01 -0.12103729089E+01  0.21481522188E+01  0.49595028985E+01  0.51100000000E-03 0. -1.
        -11    1    3    3    0    0  0.11068266414E+01  0.39807452646E+02 -0.90621050881E+01  0.40840912089E+02  0.51100000000E-03 0.  1.
        -12    1    3    3    0    0  0.36866170887E+01  0.18020638274E+01  0.23493601143E+01  0.47284323558E+01  0.00000000000E+00 0.  1.
</event>
<event>
 7    1  0.5946946E-013  0.5052885E+02  0.7816164E-02  0.1300439E+00
        -11   -1    0    0    0    0  0.00000000000E+00  0.00000000000E+00  0.45593999997E+02  0.45594000000E+02  0.51100000000E-03 0.  1.
         11   -1    0    0    0    0 -0.00000000000E+00 -0.00000000000E+00 -0.45593999997E+02  0.45594000000E+02  0.51100000000E-03 0. -1.
    9900012    2    1    2    0    0 -0.38482553595E+02 -0.13013745024E+02 -0.17034701940E+01  0.50528852180E+02  0.29999976685E+02 0.  0.
         12    1    1    2    0    0  0.38482553595E+02  0.13013745024E+02  0.17034701940E+01  0.40659147820E+02  0.00000000000E+00 0. -1.
         11    1    3    3    0    0 -0.11369465952E+02 -0.63295872524E+01 -0.90185575564E+01  0.15832334366E+02  0.51100000000E-03 0. -1.
        -11    1    3    3    0    0 -0.28525394290E+02 -0.32520732015E+01  0.96772425031E+01  0.30297246116E+02  0.51100000000E-03 0.  1.
        -12    1    3    3    0    0  0.14123066464E+01 -0.34320845700E+01 -0.23621551407E+01  0.43992716975E+01  0.00000000000E+00 0.  1.
</event>
<event>
 7    1  0.5946946E-013  0.5052886E+02  0.7816164E-02  0.1300439E+00
        -11   -1    0    0    0    0  0.00000000000E+00  0.00000000000E+00  0.45593999997E+02  0.45594000000E+02  0.51100000000E-03 0.  1.
         11   -1    0    0    0    0 -0.00000000000E+00 -0.00000000000E+00 -0.45593999997E+02  0.45594000000E+02  0.51100000000E-03 0. -1.
    9900012    2    1    2    0    0 -0.27456359666E+02  0.17889366659E+02  0.24068338336E+02  0.50528855447E+02  0.29999986617E+02 0.  0.
         12    1    1    2    0    0  0.27456359666E+02 -0.17889366659E+02 -0.24068338336E+02  0.40659144553E+02  0.00000000000E+00 0. -1.
         11    1    3    3    0    0  0.37691008695E+01  0.30367391264E+01  0.19283482175E+01  0.52102238911E+01  0.51100000000E-03 0. -1.
        -11    1    3    3    0    0 -0.21897328946E+02  0.44925144198E+01  0.22019531738E+02  0.31377308345E+02  0.51100000000E-03 0.  1.
        -12    1    3    3    0    0 -0.93281315895E+01  0.10360113112E+02  0.12045838062E+00  0.13941323211E+02  0.00000000000E+00 0.  1.
</event>
<event>
 7    1  0.5946946E-013  0.5052886E+02  0.7816164E-02  0.1300439E+00
        -11   -1    0    0    0    0  0.00000000000E+00  0.00000000000E+00  0.45593999997E+02  0.45594000000E+02  0.51100000000E-03 0.  1.
         11   -1    0    0    0    0 -0.00000000000E+00 -0.00000000000E+00 -0.45593999997E+02  0.45594000000E+02  0.51100000000E-03 0. -1.
    9900012    2    1    2    0    0 -0.93753624649E+01  0.34096840146E+02  0.20066730798E+02  0.50528860631E+02  0.30000002375E+02 0.  0.
         12    1    1    2    0    0  0.93753624649E+01 -0.34096840146E+02 -0.20066730798E+02  0.40659139369E+02  0.00000000000E+00 0. -1.
         11    1    3    3    0    0  0.26925765375E+01 -0.28826948348E+01  0.45069708598E+00  0.39702677548E+01  0.51100000000E-03 0. -1.
        -11    1    3    3    0    0 -0.15141550369E+02  0.25231066167E+02  0.10033438433E+02  0.31089276842E+02  0.51100000000E-03 0.  1.
         12    1    3    3    0    0  0.30736113670E+01  0.11748468814E+02  0.95825952788E+01  0.15469316035E+02  0.00000000000E+00 0. -1.
</event>
<event>
 7    1  0.5946946E-013  0.5052885E+02  0.7816164E-02  0.1300439E+00
        -11   -1    0    0    0    0  0.00000000000E+00  0.00000000000E+00  0.45593999997E+02  0.45594000000E+02  0.51100000000E-03 0.  1.
         11   -1    0    0    0    0 -0.00000000000E+00 -0.00000000000E+00 -0.45593999997E+02  0.45594000000E+02  0.51100000000E-03 0. -1.
    9900012    2    1    2    0    0  0.72985400174E+00  0.97408080865E+01  0.39468342775E+02  0.50528854529E+02  0.29999983827E+02 0.  0.
         12    1    1    2    0    0 -0.72985400174E+00 -0.97408080865E+01 -0.39468342775E+02  0.40659145471E+02  0.00000000000E+00 0. -1.
         11    1    3    3    0    0  0.73679642101E+01  0.14715172665E+02  0.18591242313E+02  0.24828562064E+02  0.51100000000E-03 0.  1.
        -11    1    3    3    0    0 -0.10203447091E+02 -0.42562360432E+01  0.17710796785E+02  0.20878175228E+02  0.51100000000E-03 0. -1.
         12    1    3    3    0    0  0.35653368829E+01 -0.71812853537E+00  0.31663036763E+01  0.48221172375E+01  0.00000000000E+00 0. -1.
</event>
<event>
 7    1  0.5946946E-013  0.5052886E+02  0.7816164E-02  0.1300439E+00
        -11   -1    0    0    0    0  0.00000000000E+00  0.00000000000E+00  0.45593999997E+02  0.45594000000E+02  0.51100000000E-03 0.  1.
         11   -1    0    0    0    0 -0.00000000000E+00 -0.00000000000E+00 -0.45593999997E+02  0.45594000000E+02  0.51100000000E-03 0. -1.
    9900012    2    1    2    0    0  0.16233120303E+02  0.15153107728E+02  0.34059285169E+02  0.50528858656E+02  0.29999996372E+02 0.  0.
         12    1    1    2    0    0 -0.16233120303E+02 -0.15153107728E+02 -0.34059285169E+02  0.40659141344E+02  0.00000000000E+00 0. -1.
         11    1    3    3    0    0  0.20181527910E+01  0.71416282063E+00 -0.41310611615E+00  0.21802812081E+01  0.51100000000E-03 0. -1.
        -11    1    3    3    0    0  0.12960340175E+02  0.69878652925E+01  0.37439594378E+02  0.40230882494E+02  0.51100000000E-03 0.  1.
        -12    1    3    3    0    0  0.12546273373E+01  0.74510796150E+01 -0.29672030926E+01  0.81176949547E+01  0.00000000000E+00 0.  1.
</event>
<event>
 7    1  0.5946946E-013  0.5052884E+02  0.7816164E-02  0.1300439E+00
        -11   -1    0    0    0    0  0.00000000000E+00  0.00000000000E+00  0.45593999997E+02  0.45594000000E+02  0.51100000000E-03 0. -1.
         11   -1    0    0    0    0 -0.00000000000E+00 -0.00000000000E+00 -0.45593999997E+02  0.45594000000E+02  0.51100000000E-03 0.  1.
    9900012    2    1    2    0    0 -0.19166435775E+02  0.35460868526E+02 -0.53236682476E+01  0.50528844812E+02  0.29999954291E+02 0.  0.
         12    1    1    2    0    0  0.19166435775E+02 -0.35460868526E+02  0.53236682476E+01  0.40659155188E+02  0.00000000000E+00 0. -1.
         11    1    3    3    0    0 -0.31117709722E+01  0.18330840943E+02 -0.95852422456E+01  0.20918406188E+02  0.51100000000E-03 0. -1.
        -11    1    3    3    0    0 -0.16018269571E+02  0.20120193459E+02  0.18779805926E+01  0.25786313352E+02  0.51100000000E-03 0.  1.
        -12    1    3    3    0    0 -0.36395231749E-01 -0.29901658761E+01  0.23835934053E+01  0.38241252727E+01  0.00000000000E+00 0.  1.
</event>
<event>
 7    1  0.5946946E-013  0.5052885E+02  0.7816164E-02  0.1300439E+00
        -11   -1    0    0    0    0  0.00000000000E+00  0.00000000000E+00  0.45593999997E+02  0.45594000000E+02  0.51100000000E-03 0. -1.
         11   -1    0    0    0    0 -0.00000000000E+00 -0.00000000000E+00 -0.45593999997E+02  0.45594000000E+02  0.51100000000E-03 0.  1.
    9900012    2    1    2    0    0 -0.21694092961E+02  0.33804347925E+02 -0.63086144318E+01  0.50528853131E+02  0.29999979578E+02 0.  0.
         12    1    1    2    0    0  0.21694092961E+02 -0.33804347925E+02  0.63086144318E+01  0.40659146869E+02  0.00000000000E+00 0. -1.
         11    1    3    3    0    0 -0.66367715144E+01  0.11249636210E+02 -0.13411732224E+02  0.18720993897E+02  0.51100000000E-03 0. -1.
        -11    1    3    3    0    0 -0.17169891764E+02  0.14791003392E+02  0.32753209624E+01  0.22897744260E+02  0.51100000000E-03 0.  1.
         12    1    3    3    0    0  0.21125703180E+01  0.77637083228E+01  0.38277968301E+01  0.89101149736E+01  0.00000000000E+00 0. -1.
</event>
<event>
 7    1  0.5946946E-013  0.5052886E+02  0.7816164E-02  0.1300439E+00
        -11   -1    0    0    0    0  0.00000000000E+00  0.00000000000E+00  0.45593999997E+02  0.45594000000E+02  0.51100000000E-03 0. -1.
         11   -1    0    0    0    0 -0.00000000000E+00 -0.00000000000E+00 -0.45593999997E+02  0.45594000000E+02  0.51100000000E-03 0.  1.
    9900012    2    1    2    0    0 -0.39952970774E+02  0.62793238772E+01  0.41827862807E+01  0.50528862244E+02  0.30000007277E+02 0.  0.
         12    1    1    2    0    0  0.39952970774E+02 -0.62793238772E+01 -0.41827862807E+01  0.40659137756E+02  0.00000000000E+00 0. -1.
         11    1    3    3    0    0 -0.97416861703E+00  0.27278273705E+01  0.85338802955E+01  0.90120563589E+01  0.51100000000E-03 0. -1.
        -11    1    3    3    0    0 -0.38994708319E+02  0.28029044811E+01 -0.21080701392E+01  0.39152107356E+02  0.51100000000E-03 0.  1.
        -12    1    3    3    0    0  0.15906162669E-01  0.74859202557E+00 -0.22430238756E+01  0.23646985290E+01  0.00000000000E+00 0.  1.
</event>
<event>
 7    1  0.5946946E-013  0.5052891E+02  0.7816164E-02  0.1300439E+00
        -11   -1    0    0    0    0  0.00000000000E+00  0.00000000000E+00  0.45593999997E+02  0.45594000000E+02  0.51100000000E-03 0.  1.
         11   -1    0    0    0    0 -0.00000000000E+00 -0.00000000000E+00 -0.45593999997E+02  0.45594000000E+02  0.51100000000E-03 0. -1.
    9900012    2    1    2    0    0 -0.39583096139E+02 -0.64531473094E+01  0.66856062541E+01  0.50528905800E+02  0.30000139671E+02 0.  0.
         12    1    1    2    0    0  0.39583096139E+02  0.64531473094E+01 -0.66856062541E+01  0.40659094200E+02  0.00000000000E+00 0. -1.
         11    1    3    3    0    0 -0.78545430319E+01  0.52069308957E+01 -0.11216812971E+01  0.94902131054E+01  0.51100000000E-03 0. -1.
        -11    1    3    3    0    0 -0.14837916405E+02 -0.15107611127E+02 -0.18896161750E+01  0.21259687833E+02  0.51100000000E-03 0.  1.
        -12    1    3    3    0    0 -0.16890636702E+02  0.34475329220E+01  0.96969037262E+01  0.19779004862E+02  0.00000000000E+00 0.  1.
</event>
<event>
 7    1  0.5946946E-013  0.5052886E+02  0.7816164E-02  0.1300439E+00
        -11   -1    0    0    0    0  0.00000000000E+00  0.00000000000E+00  0.45593999997E+02  0.45594000000E+02  0.51100000000E-03 0.  1.
         11   -1    0    0    0    0 -0.00000000000E+00 -0.00000000000E+00 -0.45593999997E+02  0.45594000000E+02  0.51100000000E-03 0. -1.
    9900012    2    1    2    0    0 -0.60458110647E+01 -0.38854910678E+02  0.10339725488E+02  0.50528857875E+02  0.29999993996E+02 0.  0.
         12    1    1    2    0    0  0.60458110647E+01  0.38854910678E+02 -0.10339725488E+02  0.40659142125E+02  0.00000000000E+00 0. -1.
         11    1    3    3    0    0 -0.45167671396E+01  0.24905161055E+01 -0.64436296448E+00  0.51979861250E+01  0.51100000000E-03 0. -1.
        -11    1    3    3    0    0 -0.66995237413E+01 -0.24006750807E+02  0.16671541055E+01  0.24979733900E+02  0.51100000000E-03 0.  1.
        -12    1    3    3    0    0  0.51704798161E+01 -0.17338675976E+02  0.93169343466E+01  0.20351137849E+02  0.00000000000E+00 0.  1.
</event>
<event>
 7    1  0.5946946E-013  0.5052886E+02  0.7816164E-02  0.1300439E+00
        -11   -1    0    0    0    0  0.00000000000E+00  0.00000000000E+00  0.45593999997E+02  0.45594000000E+02  0.51100000000E-03 0. -1.
         11   -1    0    0    0    0 -0.00000000000E+00 -0.00000000000E+00 -0.45593999997E+02  0.45594000000E+02  0.51100000000E-03 0.  1.
    9900012    2    1    2    0    0 -0.24372202709E+02  0.28611201347E+02  0.15510019077E+02  0.50528858357E+02  0.29999995461E+02 0.  0.
         12    1    1    2    0    0  0.24372202709E+02 -0.28611201347E+02 -0.15510019077E+02  0.40659141643E+02  0.00000000000E+00 0. -1.
         11    1    3    3    0    0 -0.19259132404E+02  0.13132065551E+02  0.18800642969E+02  0.29947111762E+02  0.51100000000E-03 0. -1.
        -11    1    3    3    0    0 -0.71205414174E+00  0.15644949300E+02 -0.12013076081E+01  0.15707151235E+02  0.51100000000E-03 0.  1.
         12    1    3    3    0    0 -0.44010161632E+01 -0.16581350431E+00 -0.20893162832E+01  0.48745953594E+01  0.00000000000E+00 0. -1.
</event>
<event>
 7    1  0.5946946E-013  0.5052887E+02  0.7816164E-02  0.1300439E+00
        -11   -1    0    0    0    0  0.00000000000E+00  0.00000000000E+00  0.45593999997E+02  0.45594000000E+02  0.51100000000E-03 0. -1.
         11   -1    0    0    0    0 -0.00000000000E+00 -0.00000000000E+00 -0.45593999997E+02  0.45594000000E+02  0.51100000000E-03 0.  1.
    9900012    2    1    2    0    0  0.13537979578E+02  0.37604366598E+02 -0.74699262374E+01  0.50528867246E+02  0.30000022481E+02 0.  0.
         12    1    1    2    0    0 -0.13537979578E+02 -0.37604366598E+02  0.74699262374E+01  0.40659132754E+02  0.00000000000E+00 0. -1.
         11    1    3    3    0    0 -0.58882888941E+01  0.21713354872E+02 -0.92268840280E+00  0.22516506835E+02  0.51100000000E-03 0. -1.
        -11    1    3    3    0    0  0.12383995936E+02  0.15556339462E+02 -0.66351548274E+01  0.20961591844E+02  0.51100000000E-03 0.  1.
         12    1    3    3    0    0  0.70422725358E+01  0.33467226489E+00  0.87916992768E-01  0.70507685674E+01  0.00000000000E+00 0. -1.
</event>
<event>
 7    1  0.5946946E-013  0.5052886E+02  0.7816164E-02  0.1300439E+00
        -11   -1    0    0    0    0  0.00000000000E+00  0.00000000000E+00  0.45593999997E+02  0.45594000000E+02  0.51100000000E-03 0. -1.
         11   -1    0    0    0    0 -0.00000000000E+00 -0.00000000000E+00 -0.45593999997E+02  0.45594000000E+02  0.51100000000E-03 0.  1.
    9900012    2    1    2    0    0 -0.72216365788E+01  0.88771523821E+01 -0.39015511706E+02  0.50528855604E+02  0.29999987094E+02 0.  0.
         12    1    1    2    0    0  0.72216365788E+01 -0.88771523821E+01  0.39015511706E+02  0.40659144396E+02  0.00000000000E+00 0. -1.
         11    1    3    3    0    0  0.23325817674E+01  0.72168879569E+01  0.22148246238E+00  0.75877179855E+01  0.51100000000E-03 0. -1.
        -11    1    3    3    0    0 -0.12284222986E+02 -0.20421384345E+01 -0.24196681456E+02  0.27213082470E+02  0.51100000000E-03 0.  1.
         12    1    3    3    0    0  0.27300046399E+01  0.37024028597E+01 -0.15040312713E+02  0.15728055149E+02  0.00000000000E+00 0. -1.
</event>
<event>
 7    1  0.5946946E-013  0.5052886E+02  0.7816164E-02  0.1300439E+00
        -11   -1    0    0    0    0  0.00000000000E+00  0.00000000000E+00  0.45593999997E+02  0.45594000000E+02  0.51100000000E-03 0. -1.
         11   -1    0    0    0    0 -0.00000000000E+00 -0.00000000000E+00 -0.45593999997E+02  0.45594000000E+02  0.51100000000E-03 0.  1.
    9900012    2    1    2    0    0 -0.14424308459E+02  0.28122093012E+02 -0.25578371377E+02  0.50528857459E+02  0.29999992732E+02 0.  0.
         12    1    1    2    0    0  0.14424308459E+02 -0.28122093012E+02  0.25578371377E+02  0.40659142541E+02  0.00000000000E+00 0. -1.
         11    1    3    3    0    0 -0.52018537039E+00  0.69552795874E+01 -0.13600683202E+02  0.15284799337E+02  0.51100000000E-03 0. -1.
        -11    1    3    3    0    0 -0.75370466964E+01 -0.27550897098E+01 -0.74272691031E+00  0.80591088674E+01  0.51100000000E-03 0.  1.
        -12    1    3    3    0    0 -0.63670763922E+01  0.23921903134E+02 -0.11234961265E+02  0.27184949255E+02  0.00000000000E+00 0.  1.
</event>
<event>
 7    1  0.5946946E-013  0.5052876E+02  0.7816164E-02  0.1300439E+00
        -11   -1    0    0    0    0  0.00000000000E+00  0.00000000000E+00  0.45593999997E+02  0.45594000000E+02  0.51100000000E-03 0. -1.
         11   -1    0    0    0    0 -0.00000000000E+00 -0.00000000000E+00 -0.45593999997E+02  0.45594000000E+02  0.51100000000E-03 0.  1.
    9900012    2    1    2    0    0  0.26752351349E+02 -0.10844774767E+02 -0.28633477285E+02  0.50528764101E+02  0.29999708960E+02 0.  0.
         12    1    1    2    0    0 -0.26752351349E+02  0.10844774767E+02  0.28633477285E+02  0.40659235899E+02  0.00000000000E+00 0. -1.
         11    1    3    3    0    0  0.60461572323E+01  0.17882748309E+00  0.27844226375E+01  0.66589042816E+01  0.51100000000E-03 0. -1.
        -11    1    3    3    0    0  0.20117986243E+02 -0.76845366023E+01 -0.33548241503E+02  0.39865649142E+02  0.51100000000E-03 0.  1.
         12    1    3    3    0    0  0.58820787340E+00 -0.33390656475E+01  0.21303415807E+01  0.40042106777E+01  0.00000000000E+00 0. -1.
</event>
<event>
 7    1  0.5946946E-013  0.5052885E+02  0.7816164E-02  0.1300439E+00
        -11   -1    0    0    0    0  0.00000000000E+00  0.00000000000E+00  0.45593999997E+02  0.45594000000E+02  0.51100000000E-03 0.  1.
         11   -1    0    0    0    0 -0.00000000000E+00 -0.00000000000E+00 -0.45593999997E+02  0.45594000000E+02  0.51100000000E-03 0. -1.
    9900012    2    1    2    0    0 -0.38164631041E+02  0.20785677886E+01  0.13867489296E+02  0.50528846469E+02  0.29999959326E+02 0.  0.
         12    1    1    2    0    0  0.38164631041E+02 -0.20785677886E+01 -0.13867489296E+02  0.40659153531E+02  0.00000000000E+00 0. -1.
         11    1    3    3    0    0  0.24326018251E+01 -0.58552907004E-02 -0.20993990798E+01  0.32132635561E+01  0.51100000000E-03 0. -1.
        -11    1    3    3    0    0 -0.39525690858E+02  0.48298615720E+01  0.10622078532E+02  0.41212089892E+02  0.51100000000E-03 0.  1.
        -12    1    3    3    0    0 -0.10715420072E+01 -0.27454384927E+01  0.53448098438E+01  0.61034930210E+01  0.00000000000E+00 0.  1.
</event>
<event>
 7    1  0.5946946E-013  0.5052886E+02  0.7816164E-02  0.1300439E+00
        -11   -1    0    0    0    0  0.00000000000E+00  0.00000000000E+00  0.45593999997E+02  0.45594000000E+02  0.51100000000E-03 0.  1.
         11   -1    0    0    0    0 -0.00000000000E+00 -0.00000000000E+00 -0.45593999997E+02  0.45594000000E+02  0.51100000000E-03 0. -1.
    9900012    2    1    2    0    0 -0.22159434171E+02 -0.26483402742E+02  0.21465190969E+02  0.50528861213E+02  0.30000004142E+02 0.  0.
         12    1    1    2    0    0  0.22159434171E+02  0.26483402742E+02 -0.21465190969E+02  0.40659138787E+02  0.00000000000E+00 0. -1.
         11    1    3    3    0    0 -0.22775129044E+01  0.16767853760E+01  0.40706647293E+01  0.49567111905E+01  0.51100000000E-03 0. -1.
        -11    1    3    3    0    0 -0.21810897643E+02 -0.26050449229E+02  0.68659717475E+01  0.34662410899E+02  0.51100000000E-03 0.  1.
        -12    1    3    3    0    0  0.19289763763E+01 -0.21097388890E+01  0.10528554492E+02  0.10909739123E+02  0.00000000000E+00 0.  1.
</event>
<event>
 7    1  0.5946946E-013  0.5052886E+02  0.7816164E-02  0.1300439E+00
        -11   -1    0    0    0    0  0.00000000000E+00  0.00000000000E+00  0.45593999997E+02  0.45594000000E+02  0.51100000000E-03 0.  1.
         11   -1    0    0    0    0 -0.00000000000E+00 -0.00000000000E+00 -0.45593999997E+02  0.45594000000E+02  0.51100000000E-03 0. -1.
    9900012    2    1    2    0    0 -0.10757261138E+02 -0.34992449590E+02  0.17691113557E+02  0.50528859645E+02  0.29999999378E+02 0.  0.
         12    1    1    2    0    0  0.10757261138E+02  0.34992449590E+02 -0.17691113557E+02  0.40659140355E+02  0.00000000000E+00 0. -1.
         11    1    3    3    0    0  0.58342138817E+01  0.15492302243E+01  0.47488539905E+01  0.76804804791E+01  0.51100000000E-03 0. -1.
        -11    1    3    3    0    0 -0.15090017927E+02 -0.35988581430E+02  0.11472231312E+02  0.40675529817E+02  0.51100000000E-03 0.  1.
        -12    1    3    3    0    0 -0.15014570927E+01 -0.55309838417E+00  0.14700282543E+01  0.21728493487E+01  0.00000000000E+00 0.  1.
</event>
<event>
 7    1  0.5946946E-013  0.5052884E+02  0.7816164E-02  0.1300439E+00
        -11   -1    0    0    0    0  0.00000000000E+00  0.00000000000E+00  0.45593999997E+02  0.45594000000E+02  0.51100000000E-03 0.  1.
         11   -1    0    0    0    0 -0.00000000000E+00 -0.00000000000E+00 -0.45593999997E+02  0.45594000000E+02  0.51100000000E-03 0. -1.
    9900012    2    1    2    0    0  0.36316580999E+02  0.18282611689E+02  0.13892448952E+00  0.50528840569E+02  0.29999941392E+02 0.  0.
         12    1    1    2    0    0 -0.36316580999E+02 -0.18282611689E+02 -0.13892448952E+00  0.40659159431E+02  0.00000000000E+00 0. -1.
         11    1    3    3    0    0  0.24737480102E+02  0.19979717369E+02 -0.10258113804E+02  0.33411987774E+02  0.51100000000E-03 0. -1.
        -11    1    3    3    0    0  0.38922175901E+01 -0.37791131377E+01  0.27761123014E+01  0.60940834953E+01  0.51100000000E-03 0.  1.
         12    1    3    3    0    0  0.76868833074E+01  0.20820074574E+01  0.76209259925E+01  0.11022769299E+02  0.00000000000E+00 0. -1.
</event>
<event>
 7    1  0.5946946E-013  0.5052887E+02  0.7816164E-02  0.1300439E+00
        -11   -1    0    0    0    0  0.00000000000E+00  0.00000000000E+00  0.45593999997E+02  0.45594000000E+02  0.51100000000E-03 0.  1.
         11   -1    0    0    0    0 -0.00000000000E+00 -0.00000000000E+00 -0.45593999997E+02  0.45594000000E+02  0.51100000000E-03 0. -1.
    9900012    2    1    2    0    0  0.21639501306E+02  0.23718335893E+02  0.24946692344E+02  0.50528869006E+02  0.30000027830E+02 0.  0.
         12    1    1    2    0    0 -0.21639501306E+02 -0.23718335893E+02 -0.24946692344E+02  0.40659130994E+02  0.00000000000E+00 0. -1.
         11    1    3    3    0    0  0.16651017244E+02  0.61484111198E+00  0.97466463142E+01  0.19303665960E+02  0.51100000000E-03 0. -1.
        -11    1    3    3    0    0  0.76080655553E+01  0.20365812051E+02  0.16420030098E+02  0.27244565526E+02  0.51100000000E-03 0.  1.
        -12    1    3    3    0    0 -0.26195814941E+01  0.27376827298E+01 -0.12199840685E+01  0.39806375194E+01  0.00000000000E+00 0.  1.
</event>
<event>
 7    1  0.5946946E-013  0.5052886E+02  0.7816164E-02  0.1300439E+00
        -11   -1    0    0    0    0  0.00000000000E+00  0.00000000000E+00  0.45593999997E+02  0.45594000000E+02  0.51100000000E-03 0. -1.
         11   -1    0    0    0    0 -0.00000000000E+00 -0.00000000000E+00 -0.45593999997E+02  0.45594000000E+02  0.51100000000E-03 0.  1.
    9900012    2    1    2    0    0  0.26534812487E+02 -0.28379920110E+02 -0.11985382006E+02  0.50528861778E+02  0.30000005860E+02 0.  0.
         12    1    1    2    0    0 -0.26534812487E+02  0.28379920110E+02  0.11985382006E+02  0.40659138222E+02  0.00000000000E+00 0. -1.
         11    1    3    3    0    0  0.15981460490E+01 -0.60575316272E+00 -0.11202388951E+02  0.11332013332E+02  0.51100000000E-03 0. -1.
        -11    1    3    3    0    0  0.12831014461E+02 -0.81255709605E+01  0.38275607554E+01  0.15662377123E+02  0.51100000000E-03 0.  1.
         12    1    3    3    0    0  0.12105651977E+02 -0.19648595986E+02 -0.46105538100E+01  0.23534471323E+02  0.00000000000E+00 0. -1.
</event>
<event>
 7    1  0.5946946E-013  0.5052886E+02  0.7816164E-02  0.1300439E+00
        -11   -1    0    0    0    0  0.00000000000E+00  0.00000000000E+00  0.45593999997E+02  0.45594000000E+02  0.51100000000E-03 0. -1.
         11   -1    0    0    0    0 -0.00000000000E+00 -0.00000000000E+00 -0.45593999997E+02  0.45594000000E+02  0.51100000000E-03 0.  1.
    9900012    2    1    2    0    0 -0.40442692594E+02  0.19066656210E+01 -0.37308127195E+01  0.50528859310E+02  0.29999998359E+02 0.  0.
         12    1    1    2    0    0  0.40442692594E+02 -0.19066656210E+01  0.37308127195E+01  0.40659140690E+02  0.00000000000E+00 0. -1.
         11    1    3    3    0    0 -0.19838911785E+01  0.68942277380E+01  0.14626605956E+01  0.73215829293E+01  0.51100000000E-03 0. -1.
        -11    1    3    3    0    0 -0.31726080477E+02  0.35367044159E+01 -0.25277568226E+01  0.32022523564E+02  0.51100000000E-03 0.  1.
        -12    1    3    3    0    0 -0.67327209386E+01 -0.85242665329E+01 -0.26657164926E+01  0.11184752817E+02  0.00000000000E+00 0.  1.
</event>
<event>
 7    1  0.5946946E-013  0.5052887E+02  0.7816164E-02  0.1300439E+00
        -11   -1    0    0    0    0  0.00000000000E+00  0.00000000000E+00  0.45593999997E+02  0.45594000000E+02  0.51100000000E-03 0.  1.
         11   -1    0    0    0    0 -0.00000000000E+00 -0.00000000000E+00 -0.45593999997E+02  0.45594000000E+02  0.51100000000E-03 0. -1.
    9900012    2    1    2    0    0 -0.10665910066E+02 -0.35663108421E+02  0.16356823638E+02  0.50528872866E+02  0.30000039564E+02 0.  0.
         12    1    1    2    0    0  0.10665910066E+02  0.35663108421E+02 -0.16356823638E+02  0.40659127134E+02  0.00000000000E+00 0. -1.
         11    1    3    3    0    0  0.17260206092E+01 -0.87540139538E+01  0.10249263227E+02  0.13588940518E+02  0.51100000000E-03 0. -1.
        -11    1    3    3    0    0 -0.85912649644E+01 -0.10372219747E+01 -0.31365341301E+01  0.92045374530E+01  0.51100000000E-03 0.  1.
        -12    1    3    3    0    0 -0.38006657108E+01 -0.25871872492E+02  0.92440945411E+01  0.27735394895E+02  0.00000000000E+00 0.  1.
</event>
<event>
 7    1  0.5946946E-013  0.5052887E+02  0.7816164E-02  0.1300439E+00
        -11   -1    0    0    0    0  0.00000000000E+00  0.00000000000E+00  0.45593999997E+02  0.45594000000E+02  0.51100000000E-03 0.  1.
         11   -1    0    0    0    0 -0.00000000000E+00 -0.00000000000E+00 -0.45593999997E+02  0.45594000000E+02  0.51100000000E-03 0. -1.
    9900012    2    1    2    0    0 -0.21570079714E+02  0.34300853515E+02  0.33686395830E+01  0.50528872816E+02  0.30000039411E+02 0.  0.
         12    1    1    2    0    0  0.21570079714E+02 -0.34300853515E+02 -0.33686395830E+01  0.40659127184E+02  0.00000000000E+00 0. -1.
         11    1    3    3    0    0 -0.14787923678E+01  0.15939212752E+02 -0.67597600507E+01  0.17376411776E+02  0.51100000000E-03 0. -1.
        -11    1    3    3    0    0 -0.22503254598E+02  0.16097896356E+02  0.68683860954E+01  0.28508129760E+02  0.51100000000E-03 0.  1.
         12    1    3    3    0    0  0.24119672516E+01  0.22637444067E+01  0.32600135383E+01  0.46443312793E+01  0.00000000000E+00 0. -1.
</event>
<event>
 7    1  0.5946946E-013  0.5052886E+02  0.7816164E-02  0.1300439E+00
        -11   -1    0    0    0    0  0.00000000000E+00  0.00000000000E+00  0.45593999997E+02  0.45594000000E+02  0.51100000000E-03 0.  1.
         11   -1    0    0    0    0 -0.00000000000E+00 -0.00000000000E+00 -0.45593999997E+02  0.45594000000E+02  0.51100000000E-03 0. -1.
    9900012    2    1    2    0    0  0.31366283992E+02  0.25650873409E+02 -0.33696922770E+01  0.50528857066E+02  0.29999991537E+02 0.  0.
         12    1    1    2    0    0 -0.31366283992E+02 -0.25650873409E+02  0.33696922770E+01  0.40659142934E+02  0.00000000000E+00 0. -1.
         11    1    3    3    0    0 -0.25865157875E+00 -0.18073773993E+01 -0.56817353488E+01  0.59678832544E+01  0.51100000000E-03 0. -1.
        -11    1    3    3    0    0  0.20355676777E+02  0.24447098637E+02  0.59049303580E+01  0.32355562297E+02  0.51100000000E-03 0.  1.
        -12    1    3    3    0    0  0.11269258794E+02  0.30111521713E+01 -0.35928872861E+01  0.12205411514E+02  0.00000000000E+00 0.  1.
</event>
<event>
 7    1  0.5946946E-013  0.5052887E+02  0.7816164E-02  0.1300439E+00
        -11   -1    0    0    0    0  0.00000000000E+00  0.00000000000E+00  0.45593999997E+02  0.45594000000E+02  0.51100000000E-03 0.  1.
         11   -1    0    0    0    0 -0.00000000000E+00 -0.00000000000E+00 -0.45593999997E+02  0.45594000000E+02  0.51100000000E-03 0. -1.
    9900012    2    1    2    0    0 -0.20827282393E+02  0.14082078563E+02  0.31954412466E+02  0.50528866899E+02  0.30000021425E+02 0.  0.
         12    1    1    2    0    0  0.20827282393E+02 -0.14082078563E+02 -0.31954412466E+02  0.40659133101E+02  0.00000000000E+00 0. -1.
         11    1    3    3    0    0  0.59709585635E+01 -0.31592883810E+00  0.32049252172E+01  0.67840771743E+01  0.51100000000E-03 0. -1.
        -11    1    3    3    0    0 -0.22099907795E+02  0.14591536226E+02  0.28687344562E+02  0.39042061834E+02  0.51100000000E-03 0.  1.
         12    1    3    3    0    0 -0.46983331608E+01 -0.19352882555E+00  0.62142686990E-01  0.47027278902E+01  0.00000000000E+00 0. -1.
</event>
<event>
 7    1  0.5946946E-013  0.5052886E+02  0.7816164E-02  0.1300439E+00
        -11   -1    0    0    0    0  0.00000000000E+00  0.00000000000E+00  0.45593999997E+02  0.45594000000E+02  0.51100000000E-03 0.  1.
         11   -1    0    0    0    0 -0.00000000000E+00 -0.00000000000E+00 -0.45593999997E+02  0.45594000000E+02  0.51100000000E-03 0. -1.
    9900012    2    1    2    0    0  0.28331239108E+02 -0.24333610510E+02  0.16074255396E+02  0.50528863310E+02  0.30000010517E+02 0.  0.
         12    1    1    2    0    0 -0.28331239108E+02  0.24333610510E+02 -0.16074255396E+02  0.40659136690E+02  0.00000000000E+00 0. -1.
         11    1    3    3    0    0  0.15759867921E+02 -0.10644200342E+02 -0.37860799393E+01  0.19390895786E+02  0.51100000000E-03 0. -1.
        -11    1    3    3    0    0  0.10028111834E+02 -0.17036969501E+02  0.16052093281E+02  0.25465487541E+02  0.51100000000E-03 0.  1.
        -12    1    3    3    0    0  0.25432593527E+01  0.33475593325E+01  0.38082420539E+01  0.56724799833E+01  0.00000000000E+00 0.  1.
</event>
<event>
 7    1  0.5946946E-013  0.5052886E+02  0.7816164E-02  0.1300439E+00
        -11   -1    0    0    0    0  0.00000000000E+00  0.00000000000E+00  0.45593999997E+02  0.45594000000E+02  0.51100000000E-03 0. -1.
         11   -1    0    0    0    0 -0.00000000000E+00 -0.00000000000E+00 -0.45593999997E+02  0.45594000000E+02  0.51100000000E-03 0.  1.
    9900012    2    1    2    0    0  0.22842017813E+02  0.26157703077E+02 -0.21146694087E+02  0.50528857377E+02  0.29999992483E+02 0.  0.
         12    1    1    2    0    0 -0.22842017813E+02 -0.26157703077E+02  0.21146694087E+02  0.40659142623E+02  0.00000000000E+00 0. -1.
         11    1    3    3    0    0 -0.77043291369E+00 -0.16481178471E+01 -0.42803047823E+01  0.46508997628E+01  0.51100000000E-03 0. -1.
        -11    1    3    3    0    0  0.40984735749E+01  0.20782408349E+02 -0.12781421312E+02  0.24740062923E+02  0.51100000000E-03 0.  1.
        -12    1    3    3    0    0  0.19513977151E+02  0.70234125753E+01 -0.40849679934E+01  0.21137894691E+02  0.00000000000E+00 0.  1.
</event>
<event>
 7    1  0.5946946E-013  0.5052886E+02  0.7816164E-02  0.1300439E+00
        -11   -1    0    0    0    0  0.00000000000E+00  0.00000000000E+00  0.45593999997E+02  0.45594000000E+02  0.51100000000E-03 0.  1.
         11   -1    0    0    0    0 -0.00000000000E+00 -0.00000000000E+00 -0.45593999997E+02  0.45594000000E+02  0.51100000000E-03 0. -1.
    9900012    2    1    2    0    0  0.39486074843E+02 -0.63878162448E+01  0.72946116952E+01  0.50528860035E+02  0.30000000563E+02 0.  0.
         12    1    1    2    0    0 -0.39486074843E+02  0.63878162448E+01 -0.72946116952E+01  0.40659139965E+02  0.00000000000E+00 0. -1.
         11    1    3    3    0    0  0.26162599029E+01  0.37221277342E+01 -0.45088177053E+01  0.64053483988E+01  0.51100000000E-03 0. -1.
        -11    1    3    3    0    0  0.35593537654E+02 -0.78626504392E+01  0.15502357830E+02  0.39611163745E+02  0.51100000000E-03 0.  1.
        -12    1    3    3    0    0  0.12762772859E+01 -0.22472935398E+01 -0.36989284297E+01  0.45123478913E+01  0.00000000000E+00 0.  1.
</event>
<event>
 7    1  0.5946946E-013  0.5052885E+02  0.7816164E-02  0.1300439E+00
        -11   -1    0    0    0    0  0.00000000000E+00  0.00000000000E+00  0.45593999997E+02  0.45594000000E+02  0.51100000000E-03 0. -1.
         11   -1    0    0    0    0 -0.00000000000E+00 -0.00000000000E+00 -0.45593999997E+02  0.45594000000E+02  0.51100000000E-03 0.  1.
    9900012    2    1    2    0    0 -0.38880021405E+02 -0.49402866597E+01 -0.10821444897E+02  0.50528853840E+02  0.29999981734E+02 0.  0.
         12    1    1    2    0    0  0.38880021405E+02  0.49402866597E+01  0.10821444897E+02  0.40659146160E+02  0.00000000000E+00 0. -1.
         11    1    3    3    0    0 -0.29887996138E+02 -0.14024465153E+02 -0.14213493380E+02  0.35944420016E+02  0.51100000000E-03 0. -1.
        -11    1    3    3    0    0 -0.47880814194E+01  0.71956659589E+01 -0.34656572849E+00  0.86500543545E+01  0.51100000000E-03 0.  1.
         12    1    3    3    0    0 -0.42039438480E+01  0.18885125345E+01  0.37386142114E+01  0.59343794698E+01  0.00000000000E+00 0. -1.
</event>
<event>
 7    1  0.5946946E-013  0.5052886E+02  0.7816164E-02  0.1300439E+00
        -11   -1    0    0    0    0  0.00000000000E+00  0.00000000000E+00  0.45593999997E+02  0.45594000000E+02  0.51100000000E-03 0.  1.
         11   -1    0    0    0    0 -0.00000000000E+00 -0.00000000000E+00 -0.45593999997E+02  0.45594000000E+02  0.51100000000E-03 0. -1.
    9900012    2    1    2    0    0  0.18335117818E+02 -0.64580065795E+01  0.35711105041E+02  0.50528863049E+02  0.30000009722E+02 0.  0.
         12    1    1    2    0    0 -0.18335117818E+02  0.64580065795E+01 -0.35711105041E+02  0.40659136951E+02  0.00000000000E+00 0. -1.
         11    1    3    3    0    0  0.16964315114E+02  0.65465953386E+01  0.14959076694E+02  0.23546122263E+02  0.51100000000E-03 0. -1.
        -11    1    3    3    0    0 -0.35179012828E+01 -0.18351394792E+00  0.40866067616E+01  0.53953370506E+01  0.51100000000E-03 0.  1.
         12    1    3    3    0    0  0.48887039873E+01 -0.12821087970E+02  0.16665421585E+02  0.21587403735E+02  0.00000000000E+00 0. -1.
</event>
<event>
 7    1  0.5946946E-013  0.5052886E+02  0.7816164E-02  0.1300439E+00
        -11   -1    0    0    0    0  0.00000000000E+00  0.00000000000E+00  0.45593999997E+02  0.45594000000E+02  0.51100000000E-03 0. -1.
         11   -1    0    0    0    0 -0.00000000000E+00 -0.00000000000E+00 -0.45593999997E+02  0.45594000000E+02  0.51100000000E-03 0.  1.
    9900012    2    1    2    0    0  0.24966484004E+02  0.27347755479E+02 -0.16791086247E+02  0.50528860429E+02  0.30000001761E+02 0.  0.
         12    1    1    2    0    0 -0.24966484004E+02 -0.27347755479E+02  0.16791086247E+02  0.40659139571E+02  0.00000000000E+00 0. -1.
         11    1    3    3    0    0  0.13315358290E+02 -0.34292503351E+01 -0.68704252495E+01  0.15370792681E+02  0.51100000000E-03 0. -1.
        -11    1    3    3    0    0  0.51002965645E+01  0.22199070280E+02 -0.51224680068E+01  0.23346336438E+02  0.51100000000E-03 0.  1.
        -12    1    3    3    0    0  0.65508291496E+01  0.85779355339E+01 -0.47981929911E+01  0.11811731310E+02  0.00000000000E+00 0.  1.
</event>
<event>
 7    1  0.5946946E-013  0.5052887E+02  0.7816164E-02  0.1300439E+00
        -11   -1    0    0    0    0  0.00000000000E+00  0.00000000000E+00  0.45593999997E+02  0.45594000000E+02  0.51100000000E-03 0.  1.
         11   -1    0    0    0    0 -0.00000000000E+00 -0.00000000000E+00 -0.45593999997E+02  0.45594000000E+02  0.51100000000E-03 0. -1.
    9900012    2    1    2    0    0 -0.35696036873E+02  0.11939938311E+02  0.15375166615E+02  0.50528869122E+02  0.30000028182E+02 0.  0.
         12    1    1    2    0    0  0.35696036873E+02 -0.11939938311E+02 -0.15375166615E+02  0.40659130878E+02  0.00000000000E+00 0. -1.
         11    1    3    3    0    0 -0.21656993955E+02  0.11744817359E+02 -0.37839039567E+00  0.24639588095E+02  0.51100000000E-03 0. -1.
        -11    1    3    3    0    0 -0.14574080176E+02  0.44674923869E+01  0.15236558864E+02  0.21552610688E+02  0.51100000000E-03 0.  1.
        -12    1    3    3    0    0  0.53503725733E+00 -0.42723714344E+01  0.51699814731E+00  0.43366703385E+01  0.00000000000E+00 0.  1.
</event>
<event>
 7    1  0.5946946E-013  0.5052886E+02  0.7816164E-02  0.1300439E+00
        -11   -1    0    0    0    0  0.00000000000E+00  0.00000000000E+00  0.45593999997E+02  0.45594000000E+02  0.51100000000E-03 0.  1.
         11   -1    0    0    0    0 -0.00000000000E+00 -0.00000000000E+00 -0.45593999997E+02  0.45594000000E+02  0.51100000000E-03 0. -1.
    9900012    2    1    2    0    0 -0.36128535946E+02 -0.17059541176E+02  0.75410194479E+01  0.50528855530E+02  0.29999986868E+02 0.  0.
         12    1    1    2    0    0  0.36128535946E+02  0.17059541176E+02 -0.75410194479E+01  0.40659144470E+02  0.00000000000E+00 0. -1.
         11    1    3    3    0    0 -0.14834453469E+02 -0.51961727610E+01 -0.66148693600E+01  0.17053378492E+02  0.51100000000E-03 0. -1.
        -11    1    3    3    0    0 -0.11109491711E+02 -0.73231235125E+01  0.17360665274E+02  0.21873308919E+02  0.51100000000E-03 0.  1.
        -12    1    3    3    0    0 -0.10184590766E+02 -0.45402449028E+01 -0.32047764658E+01  0.11602168118E+02  0.00000000000E+00 0.  1.
</event>
<event>
 7    1  0.5946946E-013  0.5052884E+02  0.7816164E-02  0.1300439E+00
        -11   -1    0    0    0    0  0.00000000000E+00  0.00000000000E+00  0.45593999997E+02  0.45594000000E+02  0.51100000000E-03 0. -1.
         11   -1    0    0    0    0 -0.00000000000E+00 -0.00000000000E+00 -0.45593999997E+02  0.45594000000E+02  0.51100000000E-03 0.  1.
    9900012    2    1    2    0    0  0.34458214438E+02  0.21442256506E+02  0.24552034627E+01  0.50528844446E+02  0.29999953179E+02 0.  0.
         12    1    1    2    0    0 -0.34458214438E+02 -0.21442256506E+02 -0.24552034627E+01  0.40659155554E+02  0.00000000000E+00 0. -1.
         11    1    3    3    0    0  0.24039543839E+02  0.11052123983E+02  0.11511671940E+02  0.28854249317E+02  0.51100000000E-03 0. -1.
        -11    1    3    3    0    0  0.88977737087E+01  0.23823777824E+01 -0.98491377138E+01  0.13485236922E+02  0.51100000000E-03 0.  1.
         12    1    3    3    0    0  0.15208968899E+01  0.80077547402E+01  0.79266923617E+00  0.81893582073E+01  0.00000000000E+00 0. -1.
</event>
<event>
 7    1  0.5946946E-013  0.5052885E+02  0.7816164E-02  0.1300439E+00
        -11   -1    0    0    0    0  0.00000000000E+00  0.00000000000E+00  0.45593999997E+02  0.45594000000E+02  0.51100000000E-03 0.  1.
         11   -1    0    0    0    0 -0.00000000000E+00 -0.00000000000E+00 -0.45593999997E+02  0.45594000000E+02  0.51100000000E-03 0. -1.
    9900012    2    1    2    0    0  0.38973994749E+01  0.20720001000E+02  0.34765759439E+02  0.50528853508E+02  0.29999980724E+02 0.  0.
         12    1    1    2    0    0 -0.38973994749E+01 -0.20720001000E+02 -0.34765759439E+02  0.40659146492E+02  0.00000000000E+00 0. -1.
         11    1    3    3    0    0  0.30987105045E+01  0.14134838395E+02  0.10861173036E+02  0.18093113144E+02  0.51100000000E-03 0. -1.
        -11    1    3    3    0    0 -0.22631082609E+01 -0.17857233815E+01 -0.29595616846E+01  0.41315218288E+01  0.51100000000E-03 0.  1.
        -12    1    3    3    0    0  0.30617972314E+01  0.83708859855E+01  0.26864148087E+02  0.28304218536E+02  0.00000000000E+00 0.  1.
</event>
<event>
 7    1  0.5946946E-013  0.5052885E+02  0.7816164E-02  0.1300439E+00
        -11   -1    0    0    0    0  0.00000000000E+00  0.00000000000E+00  0.45593999997E+02  0.45594000000E+02  0.51100000000E-03 0. -1.
         11   -1    0    0    0    0 -0.00000000000E+00 -0.00000000000E+00 -0.45593999997E+02  0.45594000000E+02  0.51100000000E-03 0.  1.
    9900012    2    1    2    0    0 -0.17413014610E+02 -0.36723401174E+02  0.11596772465E+01  0.50528854376E+02  0.29999983360E+02 0.  0.
         12    1    1    2    0    0  0.17413014610E+02  0.36723401174E+02 -0.11596772465E+01  0.40659145624E+02  0.00000000000E+00 0. -1.
         11    1    3    3    0    0 -0.75047097459E+00 -0.27413486890E+01  0.27881474500E+01  0.39814527226E+01  0.51100000000E-03 0.  1.
        -11    1    3    3    0    0 -0.16364612555E+02 -0.55179035511E+01  0.35065236152E+01  0.17622244800E+02  0.51100000000E-03 0. -1.
        -12    1    3    3    0    0 -0.29793108084E+00 -0.28464148934E+02 -0.51349938187E+01  0.28925156853E+02  0.00000000000E+00 0.  1.
</event>
<event>
 7    1  0.5946946E-013  0.5052886E+02  0.7816164E-02  0.1300439E+00
        -11   -1    0    0    0    0  0.00000000000E+00  0.00000000000E+00  0.45593999997E+02  0.45594000000E+02  0.51100000000E-03 0. -1.
         11   -1    0    0    0    0 -0.00000000000E+00 -0.00000000000E+00 -0.45593999997E+02  0.45594000000E+02  0.51100000000E-03 0.  1.
    9900012    2    1    2    0    0 -0.39556731486E+02 -0.63860421237E+01 -0.69028136527E+01  0.50528863558E+02  0.30000011271E+02 0.  0.
         12    1    1    2    0    0  0.39556731486E+02  0.63860421237E+01  0.69028136527E+01  0.40659136442E+02  0.00000000000E+00 0. -1.
         11    1    3    3    0    0 -0.25086647573E+01  0.64346304502E+01 -0.51229741010E+01  0.85989959761E+01  0.51100000000E-03 0. -1.
        -11    1    3    3    0    0 -0.26787003802E+02 -0.13085271994E+02  0.41122462791E+01  0.30094492612E+02  0.51100000000E-03 0.  1.
        -12    1    3    3    0    0 -0.10261062927E+02  0.26459942017E+00 -0.58920858307E+01  0.11835374970E+02  0.00000000000E+00 0.  1.
</event>
<event>
 7    1  0.5946946E-013  0.5052886E+02  0.7816164E-02  0.1300439E+00
        -11   -1    0    0    0    0  0.00000000000E+00  0.00000000000E+00  0.45593999997E+02  0.45594000000E+02  0.51100000000E-03 0.  1.
         11   -1    0    0    0    0 -0.00000000000E+00 -0.00000000000E+00 -0.45593999997E+02  0.45594000000E+02  0.51100000000E-03 0. -1.
    9900012    2    1    2    0    0  0.34773821192E+02  0.12369591310E+02 -0.17056972667E+02  0.50528859010E+02  0.29999997447E+02 0.  0.
         12    1    1    2    0    0 -0.34773821192E+02 -0.12369591310E+02  0.17056972667E+02  0.40659140990E+02  0.00000000000E+00 0. -1.
         11    1    3    3    0    0  0.30706019859E+02  0.15025460630E+01 -0.11517941083E+02  0.32829563922E+02  0.51100000000E-03 0. -1.
        -11    1    3    3    0    0  0.88895145576E+00  0.10477718320E+02  0.85293518949E+00  0.10549896425E+02  0.51100000000E-03 0.  1.
         12    1    3    3    0    0  0.31788498771E+01  0.38932692663E+00 -0.63919667738E+01  0.71493986625E+01  0.00000000000E+00 0. -1.
</event>
<event>
 7    1  0.5946946E-013  0.5052886E+02  0.7816164E-02  0.1300439E+00
        -11   -1    0    0    0    0  0.00000000000E+00  0.00000000000E+00  0.45593999997E+02  0.45594000000E+02  0.51100000000E-03 0. -1.
         11   -1    0    0    0    0 -0.00000000000E+00 -0.00000000000E+00 -0.45593999997E+02  0.45594000000E+02  0.51100000000E-03 0.  1.
    9900012    2    1    2    0    0  0.37599722502E+02 -0.15191875458E+02 -0.29382078426E+01  0.50528864772E+02  0.30000014960E+02 0.  0.
         12    1    1    2    0    0 -0.37599722502E+02  0.15191875458E+02  0.29382078426E+01  0.40659135228E+02  0.00000000000E+00 0. -1.
         11    1    3    3    0    0  0.16911705508E+02  0.24483828037E+01 -0.12036177444E+02  0.20901433665E+02  0.51100000000E-03 0.  1.
        -11    1    3    3    0    0  0.15267865973E+02 -0.16480279786E+02  0.86248091274E+01  0.24064386257E+02  0.51100000000E-03 0. -1.
         12    1    3    3    0    0  0.54201510210E+01 -0.11599784761E+01  0.47316047378E+00  0.55630448488E+01  0.00000000000E+00 0. -1.
</event>
<event>
 7    1  0.5946946E-013  0.5052885E+02  0.7816164E-02  0.1300439E+00
        -11   -1    0    0    0    0  0.00000000000E+00  0.00000000000E+00  0.45593999997E+02  0.45594000000E+02  0.51100000000E-03 0. -1.
         11   -1    0    0    0    0 -0.00000000000E+00 -0.00000000000E+00 -0.45593999997E+02  0.45594000000E+02  0.51100000000E-03 0.  1.
    9900012    2    1    2    0    0  0.86130545892E+01  0.38589983998E+02 -0.94760175555E+01  0.50528849947E+02  0.29999969899E+02 0.  0.
         12    1    1    2    0    0 -0.86130545892E+01 -0.38589983998E+02  0.94760175555E+01  0.40659150053E+02  0.00000000000E+00 0. -1.
         11    1    3    3    0    0  0.22341643437E+01  0.15432131175E+02  0.50730232009E+01  0.16397491502E+02  0.51100000000E-03 0. -1.
        -11    1    3    3    0    0  0.46648027272E+01  0.80664272576E-02 -0.91922328406E+01  0.10308132440E+02  0.51100000000E-03 0.  1.
        -12    1    3    3    0    0  0.17140875183E+01  0.23149786396E+02 -0.53568079158E+01  0.23823226004E+02  0.00000000000E+00 0.  1.
</event>
<event>
 7    1  0.5946946E-013  0.5052885E+02  0.7816164E-02  0.1300439E+00
        -11   -1    0    0    0    0  0.00000000000E+00  0.00000000000E+00  0.45593999997E+02  0.45594000000E+02  0.51100000000E-03 0.  1.
         11   -1    0    0    0    0 -0.00000000000E+00 -0.00000000000E+00 -0.45593999997E+02  0.45594000000E+02  0.51100000000E-03 0. -1.
    9900012    2    1    2    0    0 -0.35973991963E+02 -0.18864400080E+02  0.17811661027E+01  0.50528852925E+02  0.29999978952E+02 0.  0.
         12    1    1    2    0    0  0.35973991963E+02  0.18864400080E+02 -0.17811661027E+01  0.40659147075E+02  0.00000000000E+00 0. -1.
         11    1    3    3    0    0 -0.28270584171E+01  0.25718141699E+01 -0.29321159630E+01  0.48170314198E+01  0.51100000000E-03 0.  1.
        -11    1    3    3    0    0 -0.11020204246E+02 -0.46235242539E+01  0.12048784254E+02  0.16970417803E+02  0.51100000000E-03 0. -1.
        -12    1    3    3    0    0 -0.22126729300E+02 -0.16812689996E+02 -0.73355021887E+01  0.28741403702E+02  0.00000000000E+00 0.  1.
</event>
<event>
 7    1  0.5946946E-013  0.5052886E+02  0.7816164E-02  0.1300439E+00
        -11   -1    0    0    0    0  0.00000000000E+00  0.00000000000E+00  0.45593999997E+02  0.45594000000E+02  0.51100000000E-03 0. -1.
         11   -1    0    0    0    0 -0.00000000000E+00 -0.00000000000E+00 -0.45593999997E+02  0.45594000000E+02  0.51100000000E-03 0.  1.
    9900012    2    1    2    0    0 -0.61694919901E+00  0.38814724450E+02 -0.12091418599E+02  0.50528857557E+02  0.29999993030E+02 0.  0.
         12    1    1    2    0    0  0.61694919901E+00 -0.38814724450E+02  0.12091418599E+02  0.40659142443E+02  0.00000000000E+00 0. -1.
         11    1    3    3    0    0 -0.10792092442E+00 -0.43144877261E+01 -0.31251728738E+01  0.53285229677E+01  0.51100000000E-03 0. -1.
        -11    1    3    3    0    0 -0.10882436178E+01  0.23988203571E+02 -0.10024572549E+02  0.26021342006E+02  0.51100000000E-03 0.  1.
         12    1    3    3    0    0  0.57921534325E+00  0.19141008605E+02  0.10583268234E+01  0.19178992583E+02  0.00000000000E+00 0. -1.
</event>
<event>
 7    1  0.5946946E-013  0.5052886E+02  0.7816164E-02  0.1300439E+00
        -11   -1    0    0    0    0  0.00000000000E+00  0.00000000000E+00  0.45593999997E+02  0.45594000000E+02  0.51100000000E-03 0.  1.
         11   -1    0    0    0    0 -0.00000000000E+00 -0.00000000000E+00 -0.45593999997E+02  0.45594000000E+02  0.51100000000E-03 0. -1.
    9900012    2    1    2    0    0 -0.38500634194E+02  0.75127784751E+01  0.10696963809E+02  0.50528859472E+02  0.29999998850E+02 0.  0.
         12    1    1    2    0    0  0.38500634194E+02 -0.75127784751E+01 -0.10696963809E+02  0.40659140528E+02  0.00000000000E+00 0. -1.
         11    1    3    3    0    0 -0.74485919244E+01 -0.70800561801E+01  0.47431243290E+01  0.11318389719E+02  0.51100000000E-03 0. -1.
        -11    1    3    3    0    0 -0.31922422914E+02  0.15337055990E+02  0.84976066681E+01  0.36420813973E+02  0.51100000000E-03 0.  1.
        -12    1    3    3    0    0  0.87038064397E+00 -0.74422133485E+00 -0.25437671878E+01  0.27896557792E+01  0.00000000000E+00 0.  1.
</event>
<event>
 7    1  0.5946946E-013  0.5052883E+02  0.7816164E-02  0.1300439E+00
        -11   -1    0    0    0    0  0.00000000000E+00  0.00000000000E+00  0.45593999997E+02  0.45594000000E+02  0.51100000000E-03 0. -1.
         11   -1    0    0    0    0 -0.00000000000E+00 -0.00000000000E+00 -0.45593999997E+02  0.45594000000E+02  0.51100000000E-03 0.  1.
    9900012    2    1    2    0    0 -0.39278504128E+02  0.64876327251E+01  0.82630536166E+01  0.50528827358E+02  0.29999901236E+02 0.  0.
         12    1    1    2    0    0  0.39278504128E+02 -0.64876327251E+01 -0.82630536166E+01  0.40659172642E+02  0.00000000000E+00 0. -1.
         11    1    3    3    0    0  0.32400268645E+01  0.17204340030E+00 -0.21657408338E+01  0.39010007222E+01  0.51100000000E-03 0. -1.
        -11    1    3    3    0    0 -0.40189785020E+02  0.96947082234E+01  0.95290066563E+01  0.42426502986E+02  0.51100000000E-03 0.  1.
        -12    1    3    3    0    0 -0.23287459718E+01 -0.33791188986E+01  0.89978779411E+00  0.42013236493E+01  0.00000000000E+00 0.  1.
</event>
<event>
 7    1  0.5946946E-013  0.5052886E+02  0.7816164E-02  0.1300439E+00
        -11   -1    0    0    0    0  0.00000000000E+00  0.00000000000E+00  0.45593999997E+02  0.45594000000E+02  0.51100000000E-03 0. -1.
         11   -1    0    0    0    0 -0.00000000000E+00 -0.00000000000E+00 -0.45593999997E+02  0.45594000000E+02  0.51100000000E-03 0.  1.
    9900012    2    1    2    0    0 -0.31484188069E+02 -0.21269697292E+02  0.14474511992E+02  0.50528860576E+02  0.30000002208E+02 0.  0.
         12    1    1    2    0    0  0.31484188069E+02  0.21269697292E+02 -0.14474511992E+02  0.40659139424E+02  0.00000000000E+00 0. -1.
         11    1    3    3    0    0 -0.10392424763E+01 -0.55892527870E+01  0.11790338745E+02  0.13089379650E+02  0.51100000000E-03 0. -1.
        -11    1    3    3    0    0 -0.27180425010E+02 -0.72102400004E+01  0.34419892702E+01  0.28330378660E+02  0.51100000000E-03 0.  1.
        -12    1    3    3    0    0 -0.32645205827E+01 -0.84702045042E+01 -0.75781602326E+00  0.91091022666E+01  0.00000000000E+00 0.  1.
</event>
<event>
 7    1  0.5946946E-013  0.5052885E+02  0.7816164E-02  0.1300439E+00
        -11   -1    0    0    0    0  0.00000000000E+00  0.00000000000E+00  0.45593999997E+02  0.45594000000E+02  0.51100000000E-03 0.  1.
         11   -1    0    0    0    0 -0.00000000000E+00 -0.00000000000E+00 -0.45593999997E+02  0.45594000000E+02  0.51100000000E-03 0. -1.
    9900012    2    1    2    0    0  0.31381083042E+02  0.34696451864E+01  0.25619432023E+02  0.50528854561E+02  0.29999983925E+02 0.  0.
         12    1    1    2    0    0 -0.31381083042E+02 -0.34696451864E+01 -0.25619432023E+02  0.40659145439E+02  0.00000000000E+00 0. -1.
         11    1    3    3    0    0  0.54060139195E+01  0.50468742205E+00  0.52581568990E+01  0.75583007434E+01  0.51100000000E-03 0.  1.
        -11    1    3    3    0    0  0.61607609092E+00 -0.13883101610E+01  0.16947173461E+02  0.17015100453E+02  0.51100000000E-03 0. -1.
        -12    1    3    3    0    0  0.25358993031E+02  0.43532679254E+01  0.34141016632E+01  0.25955453365E+02  0.00000000000E+00 0.  1.
</event>
<event>
 7    1  0.5946946E-013  0.5052887E+02  0.7816164E-02  0.1300439E+00
        -11   -1    0    0    0    0  0.00000000000E+00  0.00000000000E+00  0.45593999997E+02  0.45594000000E+02  0.51100000000E-03 0.  1.
         11   -1    0    0    0    0 -0.00000000000E+00 -0.00000000000E+00 -0.45593999997E+02  0.45594000000E+02  0.51100000000E-03 0. -1.
    9900012    2    1    2    0    0  0.12499375267E+02 -0.76156815596E-01  0.38690105844E+02  0.50528874675E+02  0.30000045063E+02 0.  0.
         12    1    1    2    0    0 -0.12499375267E+02  0.76156815596E-01 -0.38690105844E+02  0.40659125325E+02  0.00000000000E+00 0. -1.
         11    1    3    3    0    0  0.22846041046E+01  0.69134571168E+01  0.74713855730E+01  0.10432492888E+02  0.51100000000E-03 0. -1.
        -11    1    3    3    0    0 -0.71695366464E+00 -0.11581679128E+02  0.82175520019E+01  0.14218912587E+02  0.51100000000E-03 0.  1.
        -12    1    3    3    0    0  0.10931724827E+02  0.45920651955E+01  0.23001168269E+02  0.25877469200E+02  0.00000000000E+00 0.  1.
</event>
<event>
 7    1  0.5946946E-013  0.5052886E+02  0.7816164E-02  0.1300439E+00
        -11   -1    0    0    0    0  0.00000000000E+00  0.00000000000E+00  0.45593999997E+02  0.45594000000E+02  0.51100000000E-03 0.  1.
         11   -1    0    0    0    0 -0.00000000000E+00 -0.00000000000E+00 -0.45593999997E+02  0.45594000000E+02  0.51100000000E-03 0. -1.
    9900012    2    1    2    0    0  0.36166239919E+02  0.10285939357E+02 -0.15471518070E+02  0.50528864130E+02  0.30000013009E+02 0.  0.
         12    1    1    2    0    0 -0.36166239919E+02 -0.10285939357E+02  0.15471518070E+02  0.40659135870E+02  0.00000000000E+00 0. -1.
         11    1    3    3    0    0  0.31887009293E+02  0.22995664158E+00 -0.19005081551E+02  0.37121790995E+02  0.51100000000E-03 0. -1.
        -11    1    3    3    0    0 -0.16347542980E+01  0.16002949422E+01  0.18710840536E+01  0.29553885216E+01  0.51100000000E-03 0.  1.
         12    1    3    3    0    0  0.59139849238E+01  0.84556877735E+01  0.16624794273E+01  0.10451684613E+02  0.00000000000E+00 0. -1.
</event>
<event>
 7    1  0.5946946E-013  0.5052889E+02  0.7816164E-02  0.1300439E+00
        -11   -1    0    0    0    0  0.00000000000E+00  0.00000000000E+00  0.45593999997E+02  0.45594000000E+02  0.51100000000E-03 0. -1.
         11   -1    0    0    0    0 -0.00000000000E+00 -0.00000000000E+00 -0.45593999997E+02  0.45594000000E+02  0.51100000000E-03 0.  1.
    9900012    2    1    2    0    0 -0.70658437656E+01  0.24145227072E+02 -0.31941279787E+02  0.50528886718E+02  0.30000081666E+02 0.  0.
         12    1    1    2    0    0  0.70658437656E+01 -0.24145227072E+02  0.31941279787E+02  0.40659113282E+02  0.00000000000E+00 0. -1.
         11    1    3    3    0    0 -0.29953861905E+01  0.11126915092E+02  0.17811333483E+01  0.11659889114E+02  0.51100000000E-03 0. -1.
        -11    1    3    3    0    0  0.15606951372E+01  0.12993168229E+02 -0.27631630757E+02  0.30573930210E+02  0.51100000000E-03 0.  1.
        -12    1    3    3    0    0 -0.56311527123E+01  0.25143751284E-01 -0.60907823786E+01  0.82950673934E+01  0.00000000000E+00 0.  1.
</event>
<event>
 7    1  0.5946946E-013  0.5052886E+02  0.7816164E-02  0.1300439E+00
        -11   -1    0    0    0    0  0.00000000000E+00  0.00000000000E+00  0.45593999997E+02  0.45594000000E+02  0.51100000000E-03 0.  1.
         11   -1    0    0    0    0 -0.00000000000E+00 -0.00000000000E+00 -0.45593999997E+02  0.45594000000E+02  0.51100000000E-03 0. -1.
    9900012    2    1    2    0    0  0.11425587034E+02  0.15469010128E+02  0.35823612132E+02  0.50528862041E+02  0.30000006660E+02 0.  0.
         12    1    1    2    0    0 -0.11425587034E+02 -0.15469010128E+02 -0.35823612132E+02  0.40659137959E+02  0.00000000000E+00 0. -1.
         11    1    3    3    0    0  0.47057599467E+00  0.10219572041E+02  0.26060781140E+01  0.10557117877E+02  0.51100000000E-03 0. -1.
        -11    1    3    3    0    0  0.66369913573E+01 -0.67328811485E+01  0.15388551374E+02  0.18060699224E+02  0.51100000000E-03 0.  1.
         12    1    3    3    0    0  0.43180196825E+01  0.11982319235E+02  0.17828982644E+02  0.21911044940E+02  0.00000000000E+00 0. -1.
</event>
<event>
 7    1  0.5946946E-013  0.5052888E+02  0.7816164E-02  0.1300439E+00
        -11   -1    0    0    0    0  0.00000000000E+00  0.00000000000E+00  0.45593999997E+02  0.45594000000E+02  0.51100000000E-03 0. -1.
         11   -1    0    0    0    0 -0.00000000000E+00 -0.00000000000E+00 -0.45593999997E+02  0.45594000000E+02  0.51100000000E-03 0.  1.
    9900012    2    1    2    0    0 -0.19279190379E+02 -0.99150225434E+01  0.34397229147E+02  0.50528877694E+02  0.30000054238E+02 0.  0.
         12    1    1    2    0    0  0.19279190379E+02  0.99150225434E+01 -0.34397229147E+02  0.40659122306E+02  0.00000000000E+00 0. -1.
         11    1    3    3    0    0  0.24182274984E+01 -0.10592034050E+02  0.18598124268E+02  0.21539016600E+02  0.51100000000E-03 0. -1.
        -11    1    3    3    0    0 -0.20888226628E+02  0.35260924384E+01  0.14884313537E+02  0.25890039191E+02  0.51100000000E-03 0.  1.
        -12    1    3    3    0    0 -0.80919124894E+00 -0.28490809318E+01  0.91479134249E+00  0.30998219036E+01  0.00000000000E+00 0.  1.
</event>
<event>
 7    1  0.5946946E-013  0.5052886E+02  0.7816164E-02  0.1300439E+00
        -11   -1    0    0    0    0  0.00000000000E+00  0.00000000000E+00  0.45593999997E+02  0.45594000000E+02  0.51100000000E-03 0.  1.
         11   -1    0    0    0    0 -0.00000000000E+00 -0.00000000000E+00 -0.45593999997E+02  0.45594000000E+02  0.51100000000E-03 0. -1.
    9900012    2    1    2    0    0  0.11740029685E+02 -0.19010234357E+02  0.33969811711E+02  0.50528863081E+02  0.30000009821E+02 0.  0.
         12    1    1    2    0    0 -0.11740029685E+02  0.19010234357E+02 -0.33969811711E+02  0.40659136919E+02  0.00000000000E+00 0. -1.
         11    1    3    3    0    0 -0.66993695769E+01 -0.10478344758E+02  0.13571271738E+02  0.18408060148E+02  0.51100000000E-03 0. -1.
        -11    1    3    3    0    0  0.69254227249E+01  0.28618587179E+01  0.11250770563E+02  0.13517823558E+02  0.51100000000E-03 0.  1.
         12    1    3    3    0    0  0.11513976537E+02 -0.11393748317E+02  0.91477694106E+01  0.18602979374E+02  0.00000000000E+00 0. -1.
</event>
<event>
 7    1  0.5946946E-013  0.5052885E+02  0.7816164E-02  0.1300439E+00
        -11   -1    0    0    0    0  0.00000000000E+00  0.00000000000E+00  0.45593999997E+02  0.45594000000E+02  0.51100000000E-03 0.  1.
         11   -1    0    0    0    0 -0.00000000000E+00 -0.00000000000E+00 -0.45593999997E+02  0.45594000000E+02  0.51100000000E-03 0. -1.
    9900012    2    1    2    0    0  0.11268569714E+02  0.67423319029E+00  0.39060606674E+02  0.50528852843E+02  0.29999978702E+02 0.  0.
         12    1    1    2    0    0 -0.11268569714E+02 -0.67423319029E+00 -0.39060606674E+02  0.40659147157E+02  0.00000000000E+00 0. -1.
         11    1    3    3    0    0  0.84095777882E+01 -0.13714374605E+02  0.17530923922E+02  0.23793662249E+02  0.51100000000E-03 0.  1.
        -11    1    3    3    0    0  0.43706006805E+01  0.12848784137E+02  0.17313059486E+02  0.21998532522E+02  0.51100000000E-03 0. -1.
        -12    1    3    3    0    0 -0.15116087550E+01  0.15398236582E+01  0.42166232662E+01  0.47366580725E+01  0.00000000000E+00 0.  1.
</event>
<event>
 7    1  0.5946946E-013  0.5052886E+02  0.7816164E-02  0.1300439E+00
        -11   -1    0    0    0    0  0.00000000000E+00  0.00000000000E+00  0.45593999997E+02  0.45594000000E+02  0.51100000000E-03 0.  1.
         11   -1    0    0    0    0 -0.00000000000E+00 -0.00000000000E+00 -0.45593999997E+02  0.45594000000E+02  0.51100000000E-03 0. -1.
    9900012    2    1    2    0    0 -0.63354016825E+01 -0.26831210201E+02  0.29885022038E+02  0.50528859606E+02  0.29999999260E+02 0.  0.
         12    1    1    2    0    0  0.63354016825E+01  0.26831210201E+02 -0.29885022038E+02  0.40659140394E+02  0.00000000000E+00 0. -1.
         11    1    3    3    0    0  0.97319474014E+01 -0.14683595704E+02  0.13560958360E+02  0.22231022804E+02  0.51100000000E-03 0. -1.
        -11    1    3    3    0    0 -0.13917291667E+02 -0.43100871290E+01  0.12968984562E+02  0.19505445887E+02  0.51100000000E-03 0.  1.
         12    1    3    3    0    0 -0.21500574164E+01 -0.78375273675E+01  0.33550791171E+01  0.87923909156E+01  0.00000000000E+00 0. -1.
</event>
<event>
 7    1  0.5946946E-013  0.5052886E+02  0.7816164E-02  0.1300439E+00
        -11   -1    0    0    0    0  0.00000000000E+00  0.00000000000E+00  0.45593999997E+02  0.45594000000E+02  0.51100000000E-03 0.  1.
         11   -1    0    0    0    0 -0.00000000000E+00 -0.00000000000E+00 -0.45593999997E+02  0.45594000000E+02  0.51100000000E-03 0. -1.
    9900012    2    1    2    0    0 -0.36249202883E+02  0.11032566770E+02  0.14745962672E+02  0.50528860139E+02  0.30000000877E+02 0.  0.
         12    1    1    2    0    0  0.36249202883E+02 -0.11032566770E+02 -0.14745962672E+02  0.40659139861E+02  0.00000000000E+00 0. -1.
         11    1    3    3    0    0 -0.11145976906E+01  0.18275272214E+01 -0.56322093314E+01  0.60252772526E+01  0.51100000000E-03 0. -1.
        -11    1    3    3    0    0 -0.15194888771E+02 -0.21649168611E+01  0.13764076856E+02  0.20616045250E+02  0.51100000000E-03 0.  1.
         12    1    3    3    0    0 -0.19939716421E+02  0.11369956410E+02  0.66140951468E+01  0.23887537636E+02  0.00000000000E+00 0. -1.
</event>
<event>
 7    1  0.5946946E-013  0.5052887E+02  0.7816164E-02  0.1300439E+00
        -11   -1    0    0    0    0  0.00000000000E+00  0.00000000000E+00  0.45593999997E+02  0.45594000000E+02  0.51100000000E-03 0. -1.
         11   -1    0    0    0    0 -0.00000000000E+00 -0.00000000000E+00 -0.45593999997E+02  0.45594000000E+02  0.51100000000E-03 0.  1.
    9900012    2    1    2    0    0 -0.38940993161E+02 -0.35130439593E+01  0.11154494399E+02  0.50528866075E+02  0.30000018922E+02 0.  0.
         12    1    1    2    0    0  0.38940993161E+02  0.35130439593E+01 -0.11154494399E+02  0.40659133925E+02  0.00000000000E+00 0. -1.
         11    1    3    3    0    0 -0.15519989601E+02 -0.69187998510E+01  0.63301360726E+01  0.18133132425E+02  0.51100000000E-03 0. -1.
        -11    1    3    3    0    0 -0.23235934106E+02  0.99763750529E+01  0.24445508402E+01  0.25404970420E+02  0.51100000000E-03 0.  1.
        -12    1    3    3    0    0 -0.18506945416E+00 -0.65706191613E+01  0.23798074862E+01  0.69907632299E+01  0.00000000000E+00 0.  1.
</event>
<event>
 7    1  0.5946946E-013  0.5052885E+02  0.7816164E-02  0.1300439E+00
        -11   -1    0    0    0    0  0.00000000000E+00  0.00000000000E+00  0.45593999997E+02  0.45594000000E+02  0.51100000000E-03 0.  1.
         11   -1    0    0    0    0 -0.00000000000E+00 -0.00000000000E+00 -0.45593999997E+02  0.45594000000E+02  0.51100000000E-03 0. -1.
    9900012    2    1    2    0    0  0.17825258089E+02 -0.34784629695E+01  0.36377555508E+02  0.50528854961E+02  0.29999985140E+02 0.  0.
         12    1    1    2    0    0 -0.17825258089E+02  0.34784629695E+01 -0.36377555508E+02  0.40659145039E+02  0.00000000000E+00 0. -1.
         11    1    3    3    0    0  0.10943136309E+02 -0.66855672465E+01  0.11356867192E+02  0.17129724877E+02  0.51100000000E-03 0. -1.
        -11    1    3    3    0    0  0.53795436126E+01  0.22083056717E+01  0.28709604214E+02  0.29292618145E+02  0.51100000000E-03 0.  1.
        -12    1    3    3    0    0  0.15025781678E+01  0.99879860534E+00 -0.36889158981E+01  0.41065119393E+01  0.00000000000E+00 0.  1.
</event>
<event>
 7    1  0.5946946E-013  0.5052885E+02  0.7816164E-02  0.1300439E+00
        -11   -1    0    0    0    0  0.00000000000E+00  0.00000000000E+00  0.45593999997E+02  0.45594000000E+02  0.51100000000E-03 0. -1.
         11   -1    0    0    0    0 -0.00000000000E+00 -0.00000000000E+00 -0.45593999997E+02  0.45594000000E+02  0.51100000000E-03 0.  1.
    9900012    2    1    2    0    0  0.99987459702E+01  0.29623446603E+02 -0.25993137572E+02  0.50528847150E+02  0.29999961399E+02 0.  0.
         12    1    1    2    0    0 -0.99987459702E+01 -0.29623446603E+02  0.25993137572E+02  0.40659152850E+02  0.00000000000E+00 0. -1.
         11    1    3    3    0    0 -0.46687338798E+01  0.93270518543E+01  0.34676839777E+01  0.10991624301E+02  0.51100000000E-03 0. -1.
        -11    1    3    3    0    0  0.47357122934E+01  0.82368010750E+01 -0.17307381349E+02  0.19743791741E+02  0.51100000000E-03 0.  1.
        -12    1    3    3    0    0  0.99317675566E+01  0.12059593673E+02 -0.12153440201E+02  0.19793431109E+02  0.00000000000E+00 0.  1.
</event>
<event>
 7    1  0.5946946E-013  0.5052896E+02  0.7816164E-02  0.1300438E+00
        -11   -1    0    0    0    0  0.00000000000E+00  0.00000000000E+00  0.45593999997E+02  0.45594000000E+02  0.51100000000E-03 0.  1.
         11   -1    0    0    0    0 -0.00000000000E+00 -0.00000000000E+00 -0.45593999997E+02  0.45594000000E+02  0.51100000000E-03 0. -1.
    9900012    2    1    2    0    0  0.14550051874E+02  0.65247305558E+01  0.37401619017E+02  0.50528963816E+02  0.30000316012E+02 0.  0.
         12    1    1    2    0    0 -0.14550051874E+02 -0.65247305558E+01 -0.37401619017E+02  0.40659036184E+02  0.00000000000E+00 0. -1.
         11    1    3    3    0    0 -0.45821003870E+00  0.10660289353E+02  0.22478744677E+01  0.10904341586E+02  0.51100000000E-03 0. -1.
        -11    1    3    3    0    0  0.10392489885E+02  0.19881148949E+01  0.19158498547E+02  0.21886171746E+02  0.51100000000E-03 0.  1.
         12    1    3    3    0    0  0.46157720279E+01 -0.61236736924E+01  0.15995246002E+02  0.17738450484E+02  0.00000000000E+00 0. -1.
</event>
<event>
 7    1  0.5946946E-013  0.5052883E+02  0.7816164E-02  0.1300439E+00
        -11   -1    0    0    0    0  0.00000000000E+00  0.00000000000E+00  0.45593999997E+02  0.45594000000E+02  0.51100000000E-03 0.  1.
         11   -1    0    0    0    0 -0.00000000000E+00 -0.00000000000E+00 -0.45593999997E+02  0.45594000000E+02  0.51100000000E-03 0. -1.
    9900012    2    1    2    0    0  0.12517509582E+01  0.19666168557E+02  0.35564631137E+02  0.50528830627E+02  0.29999911173E+02 0.  0.
         12    1    1    2    0    0 -0.12517509582E+01 -0.19666168557E+02 -0.35564631137E+02  0.40659169373E+02  0.00000000000E+00 0. -1.
         11    1    3    3    0    0  0.10401125171E+02  0.65045522244E+01  0.28978334613E+01  0.12605159400E+02  0.51100000000E-03 0. -1.
        -11    1    3    3    0    0 -0.11201317242E+02  0.82264915223E+01  0.24374464871E+02  0.28058139795E+02  0.51100000000E-03 0.  1.
         12    1    3    3    0    0  0.20519430298E+01  0.49351248103E+01  0.82923328051E+01  0.98655314323E+01  0.00000000000E+00 0. -1.
</event>
<event>
 7    1  0.5946946E-013  0.5052884E+02  0.7816164E-02  0.1300439E+00
        -11   -1    0    0    0    0  0.00000000000E+00  0.00000000000E+00  0.45593999997E+02  0.45594000000E+02  0.51100000000E-03 0.  1.
         11   -1    0    0    0    0 -0.00000000000E+00 -0.00000000000E+00 -0.45593999997E+02  0.45594000000E+02  0.51100000000E-03 0. -1.
    9900012    2    1    2    0    0  0.28066742225E+02  0.83653303217E+01  0.28203666287E+02  0.50528836672E+02  0.29999929547E+02 0.  0.
         12    1    1    2    0    0 -0.28066742225E+02 -0.83653303217E+01 -0.28203666287E+02  0.40659163328E+02  0.00000000000E+00 0. -1.
         11    1    3    3    0    0  0.38365815589E+01 -0.46668118424E+01  0.77556921431E+01  0.98310351291E+01  0.51100000000E-03 0. -1.
        -11    1    3    3    0    0  0.13487434472E+02  0.77437648414E+01 -0.15732308671E+01  0.15631757361E+02  0.51100000000E-03 0.  1.
        -12    1    3    3    0    0  0.10742726195E+02  0.52883773227E+01  0.22021205011E+02  0.25066044182E+02  0.00000000000E+00 0.  1.
</event>
<event>
 7    1  0.5946946E-013  0.5052886E+02  0.7816164E-02  0.1300439E+00
        -11   -1    0    0    0    0  0.00000000000E+00  0.00000000000E+00  0.45593999997E+02  0.45594000000E+02  0.51100000000E-03 0.  1.
         11   -1    0    0    0    0 -0.00000000000E+00 -0.00000000000E+00 -0.45593999997E+02  0.45594000000E+02  0.51100000000E-03 0. -1.
    9900012    2    1    2    0    0  0.20717067444E+02  0.53640651455E+01  0.34571601144E+02  0.50528859772E+02  0.29999999764E+02 0.  0.
         12    1    1    2    0    0 -0.20717067444E+02 -0.53640651455E+01 -0.34571601144E+02  0.40659140228E+02  0.00000000000E+00 0. -1.
         11    1    3    3    0    0  0.17664109592E+02  0.10354298250E+02  0.80994494012E+01  0.22018931419E+02  0.51100000000E-03 0. -1.
        -11    1    3    3    0    0  0.41654295824E+01 -0.40735853501E+01  0.75679620300E+01  0.95508612574E+01  0.51100000000E-03 0.  1.
         12    1    3    3    0    0 -0.11124717303E+01 -0.91664775487E+00  0.18904189713E+02  0.18959067096E+02  0.00000000000E+00 0. -1.
</event>
<event>
 7    1  0.5946946E-013  0.5052886E+02  0.7816164E-02  0.1300439E+00
        -11   -1    0    0    0    0  0.00000000000E+00  0.00000000000E+00  0.45593999997E+02  0.45594000000E+02  0.51100000000E-03 0.  1.
         11   -1    0    0    0    0 -0.00000000000E+00 -0.00000000000E+00 -0.45593999997E+02  0.45594000000E+02  0.51100000000E-03 0. -1.
    9900012    2    1    2    0    0 -0.24730535806E+02 -0.20703375579E+02  0.24757558038E+02  0.50528857834E+02  0.29999993873E+02 0.  0.
         12    1    1    2    0    0  0.24730535806E+02  0.20703375579E+02 -0.24757558038E+02  0.40659142166E+02  0.00000000000E+00 0. -1.
         11    1    3    3    0    0 -0.13032326161E+02  0.42336928673E+01  0.72429890087E+01  0.15499244192E+02  0.51100000000E-03 0. -1.
        -11    1    3    3    0    0 -0.12529775646E+02 -0.20179951347E+02  0.18491532706E+02  0.30102533053E+02  0.51100000000E-03 0.  1.
         12    1    3    3    0    0  0.83156600127E+00 -0.47571170998E+01 -0.97696367627E+00  0.49270805900E+01  0.00000000000E+00 0. -1.
</event>
<event>
 7    1  0.5946946E-013  0.5052886E+02  0.7816164E-02  0.1300439E+00
        -11   -1    0    0    0    0  0.00000000000E+00  0.00000000000E+00  0.45593999997E+02  0.45594000000E+02  0.51100000000E-03 0.  1.
         11   -1    0    0    0    0 -0.00000000000E+00 -0.00000000000E+00 -0.45593999997E+02  0.45594000000E+02  0.51100000000E-03 0. -1.
    9900012    2    1    2    0    0  0.51090283954E+01 -0.40117978795E+02 -0.41965979349E+01  0.50528858003E+02  0.29999994385E+02 0.  0.
         12    1    1    2    0    0 -0.51090283954E+01  0.40117978795E+02  0.41965979349E+01  0.40659141997E+02  0.00000000000E+00 0. -1.
         11    1    3    3    0    0  0.32297430798E+01  0.25050923806E+01  0.30622520516E+01  0.51072611139E+01  0.51100000000E-03 0. -1.
        -11    1    3    3    0    0 -0.26923365992E+00 -0.36881343776E+02 -0.13500128327E+01  0.36907025623E+02  0.51100000000E-03 0.  1.
        -12    1    3    3    0    0  0.21485189755E+01 -0.57417273998E+01 -0.59088371539E+01  0.85145712654E+01  0.00000000000E+00 0.  1.
</event>
<event>
 7    1  0.5946946E-013  0.5052887E+02  0.7816164E-02  0.1300439E+00
        -11   -1    0    0    0    0  0.00000000000E+00  0.00000000000E+00  0.45593999997E+02  0.45594000000E+02  0.51100000000E-03 0.  1.
         11   -1    0    0    0    0 -0.00000000000E+00 -0.00000000000E+00 -0.45593999997E+02  0.45594000000E+02  0.51100000000E-03 0. -1.
    9900012    2    1    2    0    0 -0.91211529062E+01 -0.37418055497E+02  0.13032978215E+02  0.50528870291E+02  0.30000031736E+02 0.  0.
         12    1    1    2    0    0  0.91211529062E+01  0.37418055497E+02 -0.13032978215E+02  0.40659129709E+02  0.00000000000E+00 0. -1.
         11    1    3    3    0    0 -0.65706026132E+01 -0.32711256529E+02  0.45859322119E+01  0.33678329782E+02  0.51100000000E-03 0. -1.
        -11    1    3    3    0    0  0.49812446947E+01 -0.13616089215E+01  0.66431614804E+01  0.84141768628E+01  0.51100000000E-03 0.  1.
         12    1    3    3    0    0 -0.75317949877E+01 -0.33451900468E+01  0.18038845232E+01  0.84363636455E+01  0.00000000000E+00 0. -1.
</event>
<event>
 7    1  0.5946946E-013  0.5052886E+02  0.7816164E-02  0.1300439E+00
        -11   -1    0    0    0    0  0.00000000000E+00  0.00000000000E+00  0.45593999997E+02  0.45594000000E+02  0.51100000000E-03 0.  1.
         11   -1    0    0    0    0 -0.00000000000E+00 -0.00000000000E+00 -0.45593999997E+02  0.45594000000E+02  0.51100000000E-03 0. -1.
    9900012    2    1    2    0    0 -0.14904031738E+02 -0.11259161473E+02  0.36114635492E+02  0.50528858644E+02  0.29999996333E+02 0.  0.
         12    1    1    2    0    0  0.14904031738E+02  0.11259161473E+02 -0.36114635492E+02  0.40659141356E+02  0.00000000000E+00 0. -1.
         11    1    3    3    0    0 -0.26991337072E+01 -0.75102795115E+00 -0.25831995832E+01  0.38108117377E+01  0.51100000000E-03 0. -1.
        -11    1    3    3    0    0 -0.10007682338E+02 -0.13809357766E+02  0.39172690842E+02  0.42724135752E+02  0.51100000000E-03 0.  1.
        -12    1    3    3    0    0 -0.21972156931E+01  0.33012242438E+01 -0.47485576668E+00  0.39939111544E+01  0.00000000000E+00 0.  1.
</event>
<event>
 7    1  0.5946946E-013  0.5052886E+02  0.7816164E-02  0.1300439E+00
        -11   -1    0    0    0    0  0.00000000000E+00  0.00000000000E+00  0.45593999997E+02  0.45594000000E+02  0.51100000000E-03 0.  1.
         11   -1    0    0    0    0 -0.00000000000E+00 -0.00000000000E+00 -0.45593999997E+02  0.45594000000E+02  0.51100000000E-03 0. -1.
    9900012    2    1    2    0    0 -0.84647869016E+01 -0.36582302957E+02  0.15596412052E+02  0.50528861103E+02  0.30000003809E+02 0.  0.
         12    1    1    2    0    0  0.84647869016E+01  0.36582302957E+02 -0.15596412052E+02  0.40659138897E+02  0.00000000000E+00 0. -1.
         11    1    3    3    0    0 -0.11501292586E+02 -0.14744693065E+02 -0.31597695958E+01  0.18964963720E+02  0.51100000000E-03 0. -1.
        -11    1    3    3    0    0  0.66202495142E+01 -0.97355493973E+01  0.47108607542E+01  0.12680726912E+02  0.51100000000E-03 0.  1.
        -12    1    3    3    0    0 -0.35837438298E+01 -0.12102060495E+02  0.14045320894E+02  0.18883170472E+02  0.00000000000E+00 0.  1.
</event>
<event>
 7    1  0.5946946E-013  0.5052886E+02  0.7816164E-02  0.1300439E+00
        -11   -1    0    0    0    0  0.00000000000E+00  0.00000000000E+00  0.45593999997E+02  0.45594000000E+02  0.51100000000E-03 0. -1.
         11   -1    0    0    0    0 -0.00000000000E+00 -0.00000000000E+00 -0.45593999997E+02  0.45594000000E+02  0.51100000000E-03 0.  1.
    9900012    2    1    2    0    0 -0.30489490004E+02 -0.25107134174E+02 -0.96534143507E+01  0.50528860858E+02  0.30000003063E+02 0.  0.
         12    1    1    2    0    0  0.30489490004E+02  0.25107134174E+02  0.96534143507E+01  0.40659139142E+02  0.00000000000E+00 0. -1.
         11    1    3    3    0    0 -0.98903685237E+01 -0.24105382268E+02  0.42137172959E+00  0.26058902476E+02  0.51100000000E-03 0. -1.
        -11    1    3    3    0    0 -0.41320070919E+00 -0.17721552886E+01 -0.20304604519E+01  0.27265434346E+01  0.51100000000E-03 0.  1.
         12    1    3    3    0    0 -0.20185920771E+02  0.77040338267E+00 -0.80443256284E+01  0.21743414947E+02  0.00000000000E+00 0. -1.
</event>
<event>
 7    1  0.5946946E-013  0.5052886E+02  0.7816164E-02  0.1300439E+00
        -11   -1    0    0    0    0  0.00000000000E+00  0.00000000000E+00  0.45593999997E+02  0.45594000000E+02  0.51100000000E-03 0.  1.
         11   -1    0    0    0    0 -0.00000000000E+00 -0.00000000000E+00 -0.45593999997E+02  0.45594000000E+02  0.51100000000E-03 0. -1.
    9900012    2    1    2    0    0  0.54461141801E+01 -0.15549330355E+02  0.37171541424E+02  0.50528864176E+02  0.30000013148E+02 0.  0.
         12    1    1    2    0    0 -0.54461141801E+01  0.15549330355E+02 -0.37171541424E+02  0.40659135824E+02  0.00000000000E+00 0. -1.
         11    1    3    3    0    0  0.98469269225E+01  0.41211933502E+00  0.26236756087E+02  0.28026758328E+02  0.51100000000E-03 0.  1.
        -11    1    3    3    0    0 -0.19535073464E+01 -0.15999408709E+02  0.63871092352E+01  0.17337601755E+02  0.51100000000E-03 0. -1.
        -12    1    3    3    0    0 -0.24473053960E+01  0.37959018899E-01  0.45476761021E+01  0.51645040922E+01  0.00000000000E+00 0.  1.
</event>
<event>
 7    1  0.5946946E-013  0.5052886E+02  0.7816164E-02  0.1300439E+00
        -11   -1    0    0    0    0  0.00000000000E+00  0.00000000000E+00  0.45593999997E+02  0.45594000000E+02  0.51100000000E-03 0.  1.
         11   -1    0    0    0    0 -0.00000000000E+00 -0.00000000000E+00 -0.45593999997E+02  0.45594000000E+02  0.51100000000E-03 0. -1.
    9900012    2    1    2    0    0  0.34679848302E+02  0.19076705093E+02  0.93034087904E+01  0.50528856248E+02  0.29999989052E+02 0.  0.
         12    1    1    2    0    0 -0.34679848302E+02 -0.19076705093E+02 -0.93034087904E+01  0.40659143752E+02  0.00000000000E+00 0. -1.
         11    1    3    3    0    0  0.15507501658E+02  0.69033732630E+01  0.14165026201E+01  0.17033662261E+02  0.51100000000E-03 0. -1.
        -11    1    3    3    0    0  0.43324230454E+01  0.12621052385E+01  0.13504195701E+02  0.14238191629E+02  0.51100000000E-03 0.  1.
        -12    1    3    3    0    0  0.14839923599E+02  0.10911226592E+02 -0.56172895305E+01  0.19257002359E+02  0.00000000000E+00 0.  1.
</event>
<event>
 7    1  0.5946946E-013  0.5052883E+02  0.7816164E-02  0.1300439E+00
        -11   -1    0    0    0    0  0.00000000000E+00  0.00000000000E+00  0.45593999997E+02  0.45594000000E+02  0.51100000000E-03 0.  1.
         11   -1    0    0    0    0 -0.00000000000E+00 -0.00000000000E+00 -0.45593999997E+02  0.45594000000E+02  0.51100000000E-03 0. -1.
    9900012    2    1    2    0    0 -0.38012488261E+02 -0.47271288909E+01  0.13633514573E+02  0.50528834601E+02  0.29999923253E+02 0.  0.
         12    1    1    2    0    0  0.38012488261E+02  0.47271288909E+01 -0.13633514573E+02  0.40659165399E+02  0.00000000000E+00 0. -1.
         11    1    3    3    0    0 -0.15274891448E+02 -0.68442365775E+01 -0.79149539053E+01  0.18515193184E+02  0.51100000000E-03 0. -1.
        -11    1    3    3    0    0 -0.16407521210E+02  0.24031467589E+01  0.18906712668E+02  0.25148472136E+02  0.51100000000E-03 0.  1.
         12    1    3    3    0    0 -0.63300756031E+01 -0.28603907234E+00  0.26417558103E+01  0.68651692807E+01  0.00000000000E+00 0. -1.
</event>
<event>
 7    1  0.5946946E-013  0.5052885E+02  0.7816164E-02  0.1300439E+00
        -11   -1    0    0    0    0  0.00000000000E+00  0.00000000000E+00  0.45593999997E+02  0.45594000000E+02  0.51100000000E-03 0. -1.
         11   -1    0    0    0    0 -0.00000000000E+00 -0.00000000000E+00 -0.45593999997E+02  0.45594000000E+02  0.51100000000E-03 0.  1.
    9900012    2    1    2    0    0 -0.73828217781E+01 -0.34278489380E+02 -0.20582650920E+02  0.50528850839E+02  0.29999972611E+02 0.  0.
         12    1    1    2    0    0  0.73828217781E+01  0.34278489380E+02  0.20582650920E+02  0.40659149161E+02  0.00000000000E+00 0. -1.
         11    1    3    3    0    0  0.26375438712E+01 -0.20070464782E+01  0.40037071730E+01  0.51975517916E+01  0.51100000000E-03 0. -1.
        -11    1    3    3    0    0 -0.14909099829E+02 -0.22639330537E+02 -0.19495344732E+02  0.33389953749E+02  0.51100000000E-03 0.  1.
         12    1    3    3    0    0  0.48887341802E+01 -0.96321123646E+01 -0.50910133616E+01  0.11941345298E+02  0.00000000000E+00 0. -1.
</event>
<event>
 7    1  0.5946946E-013  0.5052886E+02  0.7816164E-02  0.1300439E+00
        -11   -1    0    0    0    0  0.00000000000E+00  0.00000000000E+00  0.45593999997E+02  0.45594000000E+02  0.51100000000E-03 0.  1.
         11   -1    0    0    0    0 -0.00000000000E+00 -0.00000000000E+00 -0.45593999997E+02  0.45594000000E+02  0.51100000000E-03 0. -1.
    9900012    2    1    2    0    0 -0.23225952222E+02  0.63452379350E+01  0.32763680542E+02  0.50528860022E+02  0.30000000524E+02 0.  0.
         12    1    1    2    0    0  0.23225952222E+02 -0.63452379350E+01 -0.32763680542E+02  0.40659139978E+02  0.00000000000E+00 0. -1.
         11    1    3    3    0    0  0.30218776028E+01 -0.76607341936E+00  0.43504450276E+01  0.53521009828E+01  0.51100000000E-03 0. -1.
        -11    1    3    3    0    0 -0.23368460480E+02  0.81857132488E+01  0.10321443676E+02  0.26825790695E+02  0.51100000000E-03 0.  1.
        -12    1    3    3    0    0 -0.28793693448E+01 -0.10744018944E+01  0.18091791838E+02  0.18350968344E+02  0.00000000000E+00 0.  1.
</event>
<event>
 7    1  0.5946946E-013  0.5052884E+02  0.7816164E-02  0.1300439E+00
        -11   -1    0    0    0    0  0.00000000000E+00  0.00000000000E+00  0.45593999997E+02  0.45594000000E+02  0.51100000000E-03 0. -1.
         11   -1    0    0    0    0 -0.00000000000E+00 -0.00000000000E+00 -0.45593999997E+02  0.45594000000E+02  0.51100000000E-03 0.  1.
    9900012    2    1    2    0    0 -0.21479282243E+02  0.33265882447E+02 -0.92297863124E+01  0.50528837981E+02  0.29999933528E+02 0.  0.
         12    1    1    2    0    0  0.21479282243E+02 -0.33265882447E+02  0.92297863124E+01  0.40659162019E+02  0.00000000000E+00 0. -1.
         11    1    3    3    0    0  0.16766010034E+01 -0.32080222895E+01  0.16600299243E+01  0.39822226891E+01  0.51100000000E-03 0. -1.
        -11    1    3    3    0    0 -0.16892935740E+02  0.34834237248E+02 -0.84330318001E+01  0.39622107316E+02  0.51100000000E-03 0.  1.
         12    1    3    3    0    0 -0.62629475070E+01  0.16396674892E+01 -0.24567844366E+01  0.69245079766E+01  0.00000000000E+00 0. -1.
</event>
<event>
 7    1  0.5946946E-013  0.5052886E+02  0.7816164E-02  0.1300439E+00
        -11   -1    0    0    0    0  0.00000000000E+00  0.00000000000E+00  0.45593999997E+02  0.45594000000E+02  0.51100000000E-03 0. -1.
         11   -1    0    0    0    0 -0.00000000000E+00 -0.00000000000E+00 -0.45593999997E+02  0.45594000000E+02  0.51100000000E-03 0.  1.
    9900012    2    1    2    0    0  0.53655250459E+00  0.32382136240E+02  0.24582007619E+02  0.50528859151E+02  0.29999997874E+02 0.  0.
         12    1    1    2    0    0 -0.53655250459E+00 -0.32382136240E+02 -0.24582007619E+02  0.40659140849E+02  0.00000000000E+00 0. -1.
         11    1    3    3    0    0  0.17754353497E+01  0.14379891344E+01  0.13767824130E+02  0.13956108518E+02  0.51100000000E-03 0. -1.
        -11    1    3    3    0    0  0.52144307796E+01  0.23896690176E+02  0.38768216464E+01  0.24764325875E+02  0.51100000000E-03 0.  1.
        -12    1    3    3    0    0 -0.64533136248E+01  0.70474569293E+01  0.69373618426E+01  0.11808424757E+02  0.00000000000E+00 0.  1.
</event>
<event>
 7    1  0.5946946E-013  0.5052886E+02  0.7816164E-02  0.1300439E+00
        -11   -1    0    0    0    0  0.00000000000E+00  0.00000000000E+00  0.45593999997E+02  0.45594000000E+02  0.51100000000E-03 0.  1.
         11   -1    0    0    0    0 -0.00000000000E+00 -0.00000000000E+00 -0.45593999997E+02  0.45594000000E+02  0.51100000000E-03 0. -1.
    9900012    2    1    2    0    0  0.30023995649E+02 -0.16629670182E+02  0.21798611470E+02  0.50528859488E+02  0.29999998901E+02 0.  0.
         12    1    1    2    0    0 -0.30023995649E+02  0.16629670182E+02 -0.21798611470E+02  0.40659140512E+02  0.00000000000E+00 0. -1.
         11    1    3    3    0    0  0.60067419228E+01  0.23973115379E+01  0.32535783675E+00  0.64756396688E+01  0.51100000000E-03 0. -1.
        -11    1    3    3    0    0  0.21415939398E+02 -0.24258359227E+02  0.16221567969E+02  0.36197371732E+02  0.51100000000E-03 0.  1.
        -12    1    3    3    0    0  0.26013143287E+01  0.52313775069E+01  0.52516856645E+01  0.78558480876E+01  0.00000000000E+00 0.  1.
</event>
<event>
 7    1  0.5946946E-013  0.5052886E+02  0.7816164E-02  0.1300439E+00
        -11   -1    0    0    0    0  0.00000000000E+00  0.00000000000E+00  0.45593999997E+02  0.45594000000E+02  0.51100000000E-03 0.  1.
         11   -1    0    0    0    0 -0.00000000000E+00 -0.00000000000E+00 -0.45593999997E+02  0.45594000000E+02  0.51100000000E-03 0. -1.
    9900012    2    1    2    0    0 -0.34168267356E+02  0.56431610669E+01  0.21303750832E+02  0.50528861292E+02  0.30000004383E+02 0.  0.
         12    1    1    2    0    0  0.34168267356E+02 -0.56431610669E+01 -0.21303750832E+02  0.40659138708E+02  0.00000000000E+00 0. -1.
         11    1    3    3    0    0 -0.14855373822E+02 -0.68097454073E+01  0.22915579554E+01  0.16501696944E+02  0.51100000000E-03 0. -1.
        -11    1    3    3    0    0 -0.20294364904E+02  0.63780890929E+01  0.11072843225E+02  0.23982266879E+02  0.51100000000E-03 0.  1.
         12    1    3    3    0    0  0.98147136948E+00  0.60748173812E+01  0.79393496520E+01  0.10044897469E+02  0.00000000000E+00 0. -1.
</event>
<event>
 7    1  0.5946946E-013  0.5052885E+02  0.7816164E-02  0.1300439E+00
        -11   -1    0    0    0    0  0.00000000000E+00  0.00000000000E+00  0.45593999997E+02  0.45594000000E+02  0.51100000000E-03 0.  1.
         11   -1    0    0    0    0 -0.00000000000E+00 -0.00000000000E+00 -0.45593999997E+02  0.45594000000E+02  0.51100000000E-03 0. -1.
    9900012    2    1    2    0    0  0.24862086241E+02  0.93336284471E+00  0.32158548241E+02  0.50528846991E+02  0.29999960914E+02 0.  0.
         12    1    1    2    0    0 -0.24862086241E+02 -0.93336284471E+00 -0.32158548241E+02  0.40659153009E+02  0.00000000000E+00 0. -1.
         11    1    3    3    0    0  0.13028642155E+02  0.10279573562E+02  0.17253510520E+02  0.23939481501E+02  0.51100000000E-03 0. -1.
        -11    1    3    3    0    0 -0.38556767850E+01 -0.35281634396E+01  0.27356738200E+01  0.58989907812E+01  0.51100000000E-03 0.  1.
        -12    1    3    3    0    0  0.15689120871E+02 -0.58180472780E+01  0.12169363901E+02  0.20690374708E+02  0.00000000000E+00 0.  1.
</event>
<event>
 7    1  0.5946946E-013  0.5052890E+02  0.7816164E-02  0.1300439E+00
        -11   -1    0    0    0    0  0.00000000000E+00  0.00000000000E+00  0.45593999997E+02  0.45594000000E+02  0.51100000000E-03 0.  1.
         11   -1    0    0    0    0 -0.00000000000E+00 -0.00000000000E+00 -0.45593999997E+02  0.45594000000E+02  0.51100000000E-03 0. -1.
    9900012    2    1    2    0    0 -0.36955713315E+01  0.15871177808E+02  0.37250648031E+02  0.50528901250E+02  0.30000125838E+02 0.  0.
         12    1    1    2    0    0  0.36955713315E+01 -0.15871177808E+02 -0.37250648031E+02  0.40659098750E+02  0.00000000000E+00 0. -1.
         11    1    3    3    0    0 -0.44241030456E+00 -0.15813939664E+01 -0.30579305305E+01  0.34709470098E+01  0.51100000000E-03 0. -1.
        -11    1    3    3    0    0  0.55894150417E+01  0.85791813439E+01  0.26522789625E+02  0.28430657446E+02  0.51100000000E-03 0.  1.
        -12    1    3    3    0    0 -0.88425760686E+01  0.88733904305E+01  0.13785788936E+02  0.18627296794E+02  0.00000000000E+00 0.  1.
</event>
<event>
 7    1  0.5946946E-013  0.5052893E+02  0.7816164E-02  0.1300439E+00
        -11   -1    0    0    0    0  0.00000000000E+00  0.00000000000E+00  0.45593999997E+02  0.45594000000E+02  0.51100000000E-03 0.  1.
         11   -1    0    0    0    0 -0.00000000000E+00 -0.00000000000E+00 -0.45593999997E+02  0.45594000000E+02  0.51100000000E-03 0. -1.
    9900012    2    1    2    0    0  0.22269807627E+02  0.56627784481E+00  0.34013161484E+02  0.50528927747E+02  0.30000206380E+02 0.  0.
         12    1    1    2    0    0 -0.22269807627E+02 -0.56627784481E+00 -0.34013161484E+02  0.40659072253E+02  0.00000000000E+00 0. -1.
         11    1    3    3    0    0 -0.15025904667E+01 -0.70535410378E+01  0.21530789784E+01  0.75263516149E+01  0.51100000000E-03 0. -1.
        -11    1    3    3    0    0  0.11142801018E+02  0.10135103676E+02  0.11666292758E+02  0.19052158094E+02  0.51100000000E-03 0.  1.
        -12    1    3    3    0    0  0.12629597075E+02 -0.25152847934E+01  0.20193789747E+02  0.23950418039E+02  0.00000000000E+00 0.  1.
</event>
<event>
 7    1  0.5946946E-013  0.5052887E+02  0.7816164E-02  0.1300439E+00
        -11   -1    0    0    0    0  0.00000000000E+00  0.00000000000E+00  0.45593999997E+02  0.45594000000E+02  0.51100000000E-03 0. -1.
         11   -1    0    0    0    0 -0.00000000000E+00 -0.00000000000E+00 -0.45593999997E+02  0.45594000000E+02  0.51100000000E-03 0.  1.
    9900012    2    1    2    0    0 -0.36736954759E+02  0.12981331101E+02 -0.11620941577E+02  0.50528867135E+02  0.30000022145E+02 0.  0.
         12    1    1    2    0    0  0.36736954759E+02 -0.12981331101E+02  0.11620941577E+02  0.40659132865E+02  0.00000000000E+00 0. -1.
         11    1    3    3    0    0 -0.21419227681E+01  0.23518435527E+01 -0.21574678041E+00  0.31883456800E+01  0.51100000000E-03 0. -1.
        -11    1    3    3    0    0 -0.24806007079E+02  0.64272564668E+01  0.65625864836E+01  0.26452129489E+02  0.51100000000E-03 0.  1.
        -12    1    3    3    0    0 -0.97890249127E+01  0.42022310813E+01 -0.17967781281E+02  0.20888391967E+02  0.00000000000E+00 0.  1.
</event>
<event>
 7    1  0.5946946E-013  0.5052886E+02  0.7816164E-02  0.1300439E+00
        -11   -1    0    0    0    0  0.00000000000E+00  0.00000000000E+00  0.45593999997E+02  0.45594000000E+02  0.51100000000E-03 0.  1.
         11   -1    0    0    0    0 -0.00000000000E+00 -0.00000000000E+00 -0.45593999997E+02  0.45594000000E+02  0.51100000000E-03 0. -1.
    9900012    2    1    2    0    0  0.23576088844E+02  0.72657657069E+01  0.32319384857E+02  0.50528856452E+02  0.29999989672E+02 0.  0.
         12    1    1    2    0    0 -0.23576088844E+02 -0.72657657069E+01 -0.32319384857E+02  0.40659143548E+02  0.00000000000E+00 0. -1.
         11    1    3    3    0    0  0.20092985847E+02  0.12277226107E+02  0.12049487379E+02  0.26450869693E+02  0.51100000000E-03 0. -1.
        -11    1    3    3    0    0 -0.28833021766E+01 -0.32957683355E+01  0.15032962214E+02  0.15657760809E+02  0.51100000000E-03 0.  1.
         12    1    3    3    0    0  0.63664051735E+01 -0.17156920648E+01  0.52369352640E+01  0.84202259502E+01  0.00000000000E+00 0. -1.
</event>
<event>
 7    1  0.5946946E-013  0.5052887E+02  0.7816164E-02  0.1300439E+00
        -11   -1    0    0    0    0  0.00000000000E+00  0.00000000000E+00  0.45593999997E+02  0.45594000000E+02  0.51100000000E-03 0.  1.
         11   -1    0    0    0    0 -0.00000000000E+00 -0.00000000000E+00 -0.45593999997E+02  0.45594000000E+02  0.51100000000E-03 0. -1.
    9900012    2    1    2    0    0  0.15953882301E+02 -0.14566912826E+02  0.34444790780E+02  0.50528869149E+02  0.30000028264E+02 0.  0.
         12    1    1    2    0    0 -0.15953882301E+02  0.14566912826E+02 -0.34444790780E+02  0.40659130851E+02  0.00000000000E+00 0. -1.
         11    1    3    3    0    0 -0.13366992596E+01  0.16475340273E+00 -0.14051534643E+01  0.19463722958E+01  0.51100000000E-03 0. -1.
        -11    1    3    3    0    0 -0.45676285209E+00 -0.71756698900E+01  0.25898005704E+02  0.26877603509E+02  0.51100000000E-03 0.  1.
        -12    1    3    3    0    0  0.17747344412E+02 -0.75559963386E+01  0.99519385397E+01  0.21704893344E+02  0.00000000000E+00 0.  1.
</event>
<event>
 7    1  0.5946946E-013  0.5052886E+02  0.7816164E-02  0.1300439E+00
        -11   -1    0    0    0    0  0.00000000000E+00  0.00000000000E+00  0.45593999997E+02  0.45594000000E+02  0.51100000000E-03 0. -1.
         11   -1    0    0    0    0 -0.00000000000E+00 -0.00000000000E+00 -0.45593999997E+02  0.45594000000E+02  0.51100000000E-03 0.  1.
    9900012    2    1    2    0    0 -0.37365514693E+02  0.59985893166E+01 -0.14866101656E+02  0.50528859078E+02  0.29999997654E+02 0.  0.
         12    1    1    2    0    0  0.37365514693E+02 -0.59985893166E+01  0.14866101656E+02  0.40659140922E+02  0.00000000000E+00 0. -1.
         11    1    3    3    0    0 -0.27094412722E+02 -0.43089179628E+01 -0.14902157469E+02  0.31220958862E+02  0.51100000000E-03 0. -1.
        -11    1    3    3    0    0 -0.93600282639E+01  0.32064406735E+01 -0.44612052212E+01  0.10853282599E+02  0.51100000000E-03 0.  1.
         12    1    3    3    0    0 -0.91107370637E+00  0.71010666059E+01  0.44972610338E+01  0.84546176168E+01  0.00000000000E+00 0. -1.
</event>
<event>
 7    1  0.5946946E-013  0.5052886E+02  0.7816164E-02  0.1300439E+00
        -11   -1    0    0    0    0  0.00000000000E+00  0.00000000000E+00  0.45593999997E+02  0.45594000000E+02  0.51100000000E-03 0.  1.
         11   -1    0    0    0    0 -0.00000000000E+00 -0.00000000000E+00 -0.45593999997E+02  0.45594000000E+02  0.51100000000E-03 0. -1.
    9900012    2    1    2    0    0  0.29408812760E+02 -0.26968437221E+02  0.78096443644E+01  0.50528863030E+02  0.30000009666E+02 0.  0.
         12    1    1    2    0    0 -0.29408812760E+02  0.26968437221E+02 -0.78096443644E+01  0.40659136970E+02  0.00000000000E+00 0. -1.
         11    1    3    3    0    0  0.11090520383E+02  0.28236153382E+01  0.52715166796E+01  0.12600052949E+02  0.51100000000E-03 0. -1.
        -11    1    3    3    0    0  0.10676835409E+02 -0.24757757688E+02  0.68420529105E+01  0.27816453196E+02  0.51100000000E-03 0.  1.
        -12    1    3    3    0    0  0.76414569671E+01 -0.50342948706E+01 -0.43039252257E+01  0.10112356885E+02  0.00000000000E+00 0.  1.
</event>
<event>
 7    1  0.5946946E-013  0.5052887E+02  0.7816164E-02  0.1300439E+00
        -11   -1    0    0    0    0  0.00000000000E+00  0.00000000000E+00  0.45593999997E+02  0.45594000000E+02  0.51100000000E-03 0.  1.
         11   -1    0    0    0    0 -0.00000000000E+00 -0.00000000000E+00 -0.45593999997E+02  0.45594000000E+02  0.51100000000E-03 0. -1.
    9900012    2    1    2    0    0 -0.18114086915E+01  0.20216607391E+02  0.35230272149E+02  0.50528874437E+02  0.30000044338E+02 0.  0.
         12    1    1    2    0    0  0.18114086915E+01 -0.20216607391E+02 -0.35230272149E+02  0.40659125563E+02  0.00000000000E+00 0. -1.
         11    1    3    3    0    0 -0.93068344593E+01  0.30042194319E+01  0.21722148232E+02  0.23822137312E+02  0.51100000000E-03 0. -1.
        -11    1    3    3    0    0  0.29345965498E+01  0.17520334260E+02  0.13187509303E+02  0.22124293692E+02  0.51100000000E-03 0.  1.
         12    1    3    3    0    0  0.45608292180E+01 -0.30794630151E+00  0.32061461412E+00  0.45824434324E+01  0.00000000000E+00 0. -1.
</event>
<event>
 7    1  0.5946946E-013  0.5052885E+02  0.7816164E-02  0.1300439E+00
        -11   -1    0    0    0    0  0.00000000000E+00  0.00000000000E+00  0.45593999997E+02  0.45594000000E+02  0.51100000000E-03 0. -1.
         11   -1    0    0    0    0 -0.00000000000E+00 -0.00000000000E+00 -0.45593999997E+02  0.45594000000E+02  0.51100000000E-03 0.  1.
    9900012    2    1    2    0    0  0.21978680975E+01 -0.22471956611E+02 -0.33813413457E+02  0.50528851119E+02  0.29999973461E+02 0.  0.
         12    1    1    2    0    0 -0.21978680975E+01  0.22471956611E+02  0.33813413457E+02  0.40659148881E+02  0.00000000000E+00 0. -1.
         11    1    3    3    0    0  0.18458724474E+01 -0.36844515333E+01  0.11887953986E+01  0.42890165486E+01  0.51100000000E-03 0. -1.
        -11    1    3    3    0    0  0.91575956113E+01 -0.19105181563E+02 -0.27143470541E+02  0.34433087477E+02  0.51100000000E-03 0.  1.
        -12    1    3    3    0    0 -0.88055999612E+01  0.31767648499E+00 -0.78587383143E+01  0.11806747093E+02  0.00000000000E+00 0.  1.
</event>
<event>
 7    1  0.5946946E-013  0.5052886E+02  0.7816164E-02  0.1300439E+00
        -11   -1    0    0    0    0  0.00000000000E+00  0.00000000000E+00  0.45593999997E+02  0.45594000000E+02  0.51100000000E-03 0.  1.
         11   -1    0    0    0    0 -0.00000000000E+00 -0.00000000000E+00 -0.45593999997E+02  0.45594000000E+02  0.51100000000E-03 0. -1.
    9900012    2    1    2    0    0 -0.10065478927E+02  0.34352012173E+02  0.19281882865E+02  0.50528860644E+02  0.30000002412E+02 0.  0.
         12    1    1    2    0    0  0.10065478927E+02 -0.34352012173E+02 -0.19281882865E+02  0.40659139356E+02  0.00000000000E+00 0. -1.
         11    1    3    3    0    0 -0.55054437651E+01 -0.94279905820E+00 -0.17360106421E+01  0.58491464613E+01  0.51100000000E-03 0. -1.
        -11    1    3    3    0    0  0.64201991325E+01  0.13664480080E+02  0.93859591498E+01  0.17777322694E+02  0.51100000000E-03 0.  1.
        -12    1    3    3    0    0 -0.10980234295E+02  0.21630331151E+02  0.11631934358E+02  0.26902391488E+02  0.00000000000E+00 0.  1.
</event>
<event>
 7    1  0.5946946E-013  0.5052884E+02  0.7816164E-02  0.1300439E+00
        -11   -1    0    0    0    0  0.00000000000E+00  0.00000000000E+00  0.45593999997E+02  0.45594000000E+02  0.51100000000E-03 0.  1.
         11   -1    0    0    0    0 -0.00000000000E+00 -0.00000000000E+00 -0.45593999997E+02  0.45594000000E+02  0.51100000000E-03 0. -1.
    9900012    2    1    2    0    0 -0.47681302690E+01 -0.18795718354E+02  0.35737275602E+02  0.50528844055E+02  0.29999951988E+02 0.  0.
         12    1    1    2    0    0  0.47681302690E+01  0.18795718354E+02 -0.35737275602E+02  0.40659155945E+02  0.00000000000E+00 0. -1.
         11    1    3    3    0    0 -0.10873955266E+02 -0.10650857771E+01  0.21895280209E+02  0.24469994004E+02  0.51100000000E-03 0. -1.
        -11    1    3    3    0    0  0.76008881548E+01 -0.18752971035E+02  0.12297903359E+02  0.23678805938E+02  0.51100000000E-03 0.  1.
        -12    1    3    3    0    0 -0.14950631577E+01  0.10223384576E+01  0.15440920340E+01  0.23800441124E+01  0.00000000000E+00 0.  1.
</event>
<event>
 7    1  0.5946946E-013  0.5052883E+02  0.7816164E-02  0.1300439E+00
        -11   -1    0    0    0    0  0.00000000000E+00  0.00000000000E+00  0.45593999997E+02  0.45594000000E+02  0.51100000000E-03 0.  1.
         11   -1    0    0    0    0 -0.00000000000E+00 -0.00000000000E+00 -0.45593999997E+02  0.45594000000E+02  0.51100000000E-03 0. -1.
    9900012    2    1    2    0    0 -0.26062345067E+02 -0.16281612913E+02  0.26623880020E+02  0.50528834529E+02  0.29999923036E+02 0.  0.
         12    1    1    2    0    0  0.26062345067E+02  0.16281612913E+02 -0.26623880020E+02  0.40659165471E+02  0.00000000000E+00 0. -1.
         11    1    3    3    0    0  0.50089160981E+01  0.27832441074E+01  0.34608542801E+01  0.66942662666E+01  0.51100000000E-03 0. -1.
        -11    1    3    3    0    0 -0.76023354167E+01 -0.29034965330E+01  0.85763215051E+01  0.11822820591E+02  0.51100000000E-03 0.  1.
         12    1    3    3    0    0 -0.23468925748E+02 -0.16161360487E+02  0.14586704235E+02  0.32011747672E+02  0.00000000000E+00 0. -1.
</event>
<event>
 7    1  0.5946946E-013  0.5052886E+02  0.7816164E-02  0.1300439E+00
        -11   -1    0    0    0    0  0.00000000000E+00  0.00000000000E+00  0.45593999997E+02  0.45594000000E+02  0.51100000000E-03 0.  1.
         11   -1    0    0    0    0 -0.00000000000E+00 -0.00000000000E+00 -0.45593999997E+02  0.45594000000E+02  0.51100000000E-03 0. -1.
    9900012    2    1    2    0    0 -0.14545797729E+02 -0.37464641480E+02  0.61632893926E+01  0.50528859220E+02  0.29999998085E+02 0.  0.
         12    1    1    2    0    0  0.14545797729E+02  0.37464641480E+02 -0.61632893926E+01  0.40659140780E+02  0.00000000000E+00 0. -1.
         11    1    3    3    0    0  0.62768218157E+00 -0.20314312677E+02 -0.30040709481E+01  0.20544822388E+02  0.51100000000E-03 0. -1.
        -11    1    3    3    0    0 -0.92395129790E+01 -0.25918722948E+01 -0.30548199632E+01  0.10070666679E+02  0.51100000000E-03 0.  1.
        -12    1    3    3    0    0 -0.59339669319E+01 -0.14558456509E+02  0.12222180304E+02  0.19913370153E+02  0.00000000000E+00 0.  1.
</event>
<event>
 7    1  0.5946946E-013  0.5052886E+02  0.7816164E-02  0.1300439E+00
        -11   -1    0    0    0    0  0.00000000000E+00  0.00000000000E+00  0.45593999997E+02  0.45594000000E+02  0.51100000000E-03 0. -1.
         11   -1    0    0    0    0 -0.00000000000E+00 -0.00000000000E+00 -0.45593999997E+02  0.45594000000E+02  0.51100000000E-03 0.  1.
    9900012    2    1    2    0    0 -0.20366731864E+02  0.31231978181E+02 -0.16214980863E+02  0.50528857949E+02  0.29999994223E+02 0.  0.
         12    1    1    2    0    0  0.20366731864E+02 -0.31231978181E+02  0.16214980863E+02  0.40659142051E+02  0.00000000000E+00 0. -1.
         11    1    3    3    0    0 -0.18803523214E+01  0.59239710828E+01  0.54096226447E+01  0.82397315285E+01  0.51100000000E-03 0. -1.
        -11    1    3    3    0    0 -0.97539680281E+01  0.25318139415E+02 -0.13268025334E+02  0.30202459705E+02  0.51100000000E-03 0.  1.
        -12    1    3    3    0    0 -0.87324115145E+01 -0.10132316597E-01 -0.83565781740E+01  0.12086666716E+02  0.00000000000E+00 0.  1.
</event>
<event>
 7    1  0.5946946E-013  0.5052886E+02  0.7816164E-02  0.1300439E+00
        -11   -1    0    0    0    0  0.00000000000E+00  0.00000000000E+00  0.45593999997E+02  0.45594000000E+02  0.51100000000E-03 0.  1.
         11   -1    0    0    0    0 -0.00000000000E+00 -0.00000000000E+00 -0.45593999997E+02  0.45594000000E+02  0.51100000000E-03 0. -1.
    9900012    2    1    2    0    0 -0.10677982264E+02  0.21775423906E+02  0.32633985384E+02  0.50528863344E+02  0.30000010621E+02 0.  0.
         12    1    1    2    0    0  0.10677982264E+02 -0.21775423906E+02 -0.32633985384E+02  0.40659136656E+02  0.00000000000E+00 0. -1.
         11    1    3    3    0    0 -0.11160210825E+02  0.20737836072E+02  0.91472641608E+01  0.25264215652E+02  0.51100000000E-03 0.  1.
        -11    1    3    3    0    0 -0.40646360227E+01 -0.51377629188E+00  0.71989472840E+01  0.82831198430E+01  0.51100000000E-03 0. -1.
         12    1    3    3    0    0  0.45468645837E+01  0.15513641259E+01  0.16287773940E+02  0.16981527850E+02  0.00000000000E+00 0. -1.
</event>
<event>
 7    1  0.5946946E-013  0.5052886E+02  0.7816164E-02  0.1300439E+00
        -11   -1    0    0    0    0  0.00000000000E+00  0.00000000000E+00  0.45593999997E+02  0.45594000000E+02  0.51100000000E-03 0.  1.
         11   -1    0    0    0    0 -0.00000000000E+00 -0.00000000000E+00 -0.45593999997E+02  0.45594000000E+02  0.51100000000E-03 0. -1.
    9900012    2    1    2    0    0 -0.27298185257E+02 -0.21591014666E+02  0.21019110589E+02  0.50528857823E+02  0.29999993837E+02 0.  0.
         12    1    1    2    0    0  0.27298185257E+02  0.21591014666E+02 -0.21019110589E+02  0.40659142177E+02  0.00000000000E+00 0. -1.
         11    1    3    3    0    0 -0.49879819511E+00 -0.78046428548E+01 -0.21806509899E+01  0.81188970144E+01  0.51100000000E-03 0. -1.
        -11    1    3    3    0    0 -0.26924519581E+02 -0.12428521167E+02  0.25907911018E+02  0.39377883978E+02  0.51100000000E-03 0.  1.
         12    1    3    3    0    0  0.12513251874E+00 -0.13578506446E+01 -0.27081494386E+01  0.30320768298E+01  0.00000000000E+00 0. -1.
</event>
<event>
 7    1  0.5946946E-013  0.5052886E+02  0.7816164E-02  0.1300439E+00
        -11   -1    0    0    0    0  0.00000000000E+00  0.00000000000E+00  0.45593999997E+02  0.45594000000E+02  0.51100000000E-03 0.  1.
         11   -1    0    0    0    0 -0.00000000000E+00 -0.00000000000E+00 -0.45593999997E+02  0.45594000000E+02  0.51100000000E-03 0. -1.
    9900012    2    1    2    0    0 -0.12650640287E+02 -0.11178983092E+02  0.36988608453E+02  0.50528861815E+02  0.30000005973E+02 0.  0.
         12    1    1    2    0    0  0.12650640287E+02  0.11178983092E+02 -0.36988608453E+02  0.40659138185E+02  0.00000000000E+00 0. -1.
         11    1    3    3    0    0  0.62826535262E+01  0.50323586929E+01  0.14260830792E+02  0.16375825612E+02  0.51100000000E-03 0. -1.
        -11    1    3    3    0    0 -0.11970118753E+02 -0.12758223915E+02  0.17756043713E+02  0.24926554295E+02  0.51100000000E-03 0.  1.
         12    1    3    3    0    0 -0.69631750601E+01 -0.34531178698E+01  0.49717339487E+01  0.92264819079E+01  0.00000000000E+00 0. -1.
</event>
<event>
 7    1  0.5946946E-013  0.5052886E+02  0.7816164E-02  0.1300439E+00
        -11   -1    0    0    0    0  0.00000000000E+00  0.00000000000E+00  0.45593999997E+02  0.45594000000E+02  0.51100000000E-03 0.  1.
         11   -1    0    0    0    0 -0.00000000000E+00 -0.00000000000E+00 -0.45593999997E+02  0.45594000000E+02  0.51100000000E-03 0. -1.
    9900012    2    1    2    0    0 -0.12468160772E+02 -0.36021444380E+02  0.14148019034E+02  0.50528856738E+02  0.29999990539E+02 0.  0.
         12    1    1    2    0    0  0.12468160772E+02  0.36021444380E+02 -0.14148019034E+02  0.40659143262E+02  0.00000000000E+00 0. -1.
         11    1    3    3    0    0  0.48773449626E+01 -0.78359579396E+01 -0.75916240804E+00  0.92610506174E+01  0.51100000000E-03 0.  1.
        -11    1    3    3    0    0 -0.33589275487E+01 -0.12508218896E+01  0.98730061467E+01  0.10503485151E+02  0.51100000000E-03 0. -1.
        -12    1    3    3    0    0 -0.13986578186E+02 -0.26934664551E+02  0.50341752952E+01  0.30764320969E+02  0.00000000000E+00 0.  1.
</event>
<event>
 7    1  0.5946946E-013  0.5052886E+02  0.7816164E-02  0.1300439E+00
        -11   -1    0    0    0    0  0.00000000000E+00  0.00000000000E+00  0.45593999997E+02  0.45594000000E+02  0.51100000000E-03 0.  1.
         11   -1    0    0    0    0 -0.00000000000E+00 -0.00000000000E+00 -0.45593999997E+02  0.45594000000E+02  0.51100000000E-03 0. -1.
    9900012    2    1    2    0    0 -0.93542238901E+01 -0.37298549394E+02  0.13209182946E+02  0.50528858278E+02  0.29999995220E+02 0.  0.
         12    1    1    2    0    0  0.93542238901E+01  0.37298549394E+02 -0.13209182946E+02  0.40659141722E+02  0.00000000000E+00 0. -1.
         11    1    3    3    0    0 -0.45835936024E+01 -0.57221001812E+01  0.16584313261E+02  0.18132600680E+02  0.51100000000E-03 0.  1.
        -11    1    3    3    0    0 -0.27493735123E+01 -0.22803450023E+02 -0.42229958727E+01  0.23353588205E+02  0.51100000000E-03 0. -1.
        -12    1    3    3    0    0 -0.20212567755E+01 -0.87729991903E+01  0.84786555779E+00  0.90426693929E+01  0.00000000000E+00 0.  1.
</event>
<event>
 7    1  0.5946946E-013  0.5052886E+02  0.7816164E-02  0.1300439E+00
        -11   -1    0    0    0    0  0.00000000000E+00  0.00000000000E+00  0.45593999997E+02  0.45594000000E+02  0.51100000000E-03 0. -1.
         11   -1    0    0    0    0 -0.00000000000E+00 -0.00000000000E+00 -0.45593999997E+02  0.45594000000E+02  0.51100000000E-03 0.  1.
    9900012    2    1    2    0    0  0.57258611048E+01 -0.23820138555E+02 -0.32449673982E+02  0.50528858006E+02  0.29999994395E+02 0.  0.
         12    1    1    2    0    0 -0.57258611048E+01  0.23820138555E+02  0.32449673982E+02  0.40659141994E+02  0.00000000000E+00 0. -1.
         11    1    3    3    0    0  0.12478470423E+01 -0.15857390938E+02 -0.93535336162E+00  0.15933890164E+02  0.51100000000E-03 0. -1.
        -11    1    3    3    0    0  0.38886081402E+01  0.12975556970E+01 -0.47851967426E+01  0.63010342152E+01  0.51100000000E-03 0.  1.
         12    1    3    3    0    0  0.58940592226E+00 -0.92603033140E+01 -0.26729123877E+02  0.28293933626E+02  0.00000000000E+00 0. -1.
</event>
<event>
 7    1  0.5946946E-013  0.5052887E+02  0.7816164E-02  0.1300439E+00
        -11   -1    0    0    0    0  0.00000000000E+00  0.00000000000E+00  0.45593999997E+02  0.45594000000E+02  0.51100000000E-03 0. -1.
         11   -1    0    0    0    0 -0.00000000000E+00 -0.00000000000E+00 -0.45593999997E+02  0.45594000000E+02  0.51100000000E-03 0.  1.
    9900012    2    1    2    0    0  0.13690774167E+02  0.36240396752E+02 -0.12343473259E+02  0.50528868355E+02  0.30000025852E+02 0.  0.
         12    1    1    2    0    0 -0.13690774167E+02 -0.36240396752E+02  0.12343473259E+02  0.40659131645E+02  0.00000000000E+00 0. -1.
         11    1    3    3    0    0 -0.70611791871E+01  0.67806568047E+01 -0.24942908959E+01  0.10102427706E+02  0.51100000000E-03 0. -1.
        -11    1    3    3    0    0  0.87507072643E+01  0.24698974214E+02 -0.79056896332E+01  0.27369949465E+02  0.51100000000E-03 0.  1.
         12    1    3    3    0    0  0.12001246090E+02  0.47607657329E+01 -0.19434927300E+01  0.13056491185E+02  0.00000000000E+00 0. -1.
</event>
<event>
 7    1  0.5946946E-013  0.5052887E+02  0.7816164E-02  0.1300439E+00
        -11   -1    0    0    0    0  0.00000000000E+00  0.00000000000E+00  0.45593999997E+02  0.45594000000E+02  0.51100000000E-03 0. -1.
         11   -1    0    0    0    0 -0.00000000000E+00 -0.00000000000E+00 -0.45593999997E+02  0.45594000000E+02  0.51100000000E-03 0.  1.
    9900012    2    1    2    0    0  0.52784501718E+01 -0.17516949952E+02 -0.36310592349E+02  0.50528872014E+02  0.30000036975E+02 0.  0.
         12    1    1    2    0    0 -0.52784501718E+01  0.17516949952E+02  0.36310592349E+02  0.40659127986E+02  0.00000000000E+00 0. -1.
         11    1    3    3    0    0 -0.27678397509E+01  0.43035674679E+01 -0.12409640191E+02  0.13423144184E+02  0.51100000000E-03 0. -1.
        -11    1    3    3    0    0  0.84828316861E+01 -0.18656744915E+02 -0.26131805121E+02  0.33209995535E+02  0.51100000000E-03 0.  1.
        -12    1    3    3    0    0 -0.43654176339E+00 -0.31637725047E+01  0.22308529642E+01  0.38957322958E+01  0.00000000000E+00 0.  1.
</event>
<event>
 7    1  0.5946946E-013  0.5052890E+02  0.7816164E-02  0.1300439E+00
        -11   -1    0    0    0    0  0.00000000000E+00  0.00000000000E+00  0.45593999997E+02  0.45594000000E+02  0.51100000000E-03 0.  1.
         11   -1    0    0    0    0 -0.00000000000E+00 -0.00000000000E+00 -0.45593999997E+02  0.45594000000E+02  0.51100000000E-03 0. -1.
    9900012    2    1    2    0    0  0.12553815453E+02  0.20543838927E+02  0.32764534254E+02  0.50528901323E+02  0.30000126062E+02 0.  0.
         12    1    1    2    0    0 -0.12553815453E+02 -0.20543838927E+02 -0.32764534254E+02  0.40659098677E+02  0.00000000000E+00 0. -1.
         11    1    3    3    0    0 -0.42468485952E+01 -0.20966261451E+00  0.89837299260E+01  0.99391692332E+01  0.51100000000E-03 0. -1.
        -11    1    3    3    0    0  0.19202759448E+02  0.21336133885E+02  0.24782299168E+02  0.37922802268E+02  0.51100000000E-03 0.  1.
        -12    1    3    3    0    0 -0.24020954004E+01 -0.58263234301E+00 -0.10014948394E+01  0.26669298215E+01  0.00000000000E+00 0.  1.
</event>
<event>
 7    1  0.5946946E-013  0.5052874E+02  0.7816164E-02  0.1300439E+00
        -11   -1    0    0    0    0  0.00000000000E+00  0.00000000000E+00  0.45593999997E+02  0.45594000000E+02  0.51100000000E-03 0. -1.
         11   -1    0    0    0    0 -0.00000000000E+00 -0.00000000000E+00 -0.45593999997E+02  0.45594000000E+02  0.51100000000E-03 0.  1.
    9900012    2    1    2    0    0  0.17941451098E+02  0.40504967126E+01 -0.36261181532E+02  0.50528739342E+02  0.29999633703E+02 0.  0.
         12    1    1    2    0    0 -0.17941451098E+02 -0.40504967126E+01  0.36261181532E+02  0.40659260658E+02  0.00000000000E+00 0. -1.
         11    1    3    3    0    0  0.51490512686E+00  0.84675873445E+01 -0.32535900997E+01  0.90857587204E+01  0.51100000000E-03 0. -1.
        -11    1    3    3    0    0  0.18253084213E+02 -0.82867035187E+01 -0.22086382098E+02  0.29827048344E+02  0.51100000000E-03 0.  1.
        -12    1    3    3    0    0 -0.82653824170E+00  0.38696128867E+01 -0.10921209335E+02  0.11615932278E+02  0.00000000000E+00 0.  1.
</event>
<event>
 7    1  0.5946946E-013  0.5052886E+02  0.7816164E-02  0.1300439E+00
        -11   -1    0    0    0    0  0.00000000000E+00  0.00000000000E+00  0.45593999997E+02  0.45594000000E+02  0.51100000000E-03 0.  1.
         11   -1    0    0    0    0 -0.00000000000E+00 -0.00000000000E+00 -0.45593999997E+02  0.45594000000E+02  0.51100000000E-03 0. -1.
    9900012    2    1    2    0    0 -0.20233873412E+02  0.34313331733E+02  0.81456251402E+01  0.50528861091E+02  0.30000003772E+02 0.  0.
         12    1    1    2    0    0  0.20233873412E+02 -0.34313331733E+02 -0.81456251402E+01  0.40659138909E+02  0.00000000000E+00 0. -1.
         11    1    3    3    0    0 -0.38948570093E+01  0.87311669942E+01 -0.58983079227E+01  0.11233575781E+02  0.51100000000E-03 0. -1.
        -11    1    3    3    0    0 -0.15261095286E+02  0.23545892982E+02  0.18961220757E+02  0.33864996656E+02  0.51100000000E-03 0.  1.
        -12    1    3    3    0    0 -0.10779211164E+01  0.20362717574E+01 -0.49172876941E+01  0.54302886543E+01  0.00000000000E+00 0.  1.
</event>
<event>
 7    1  0.5946946E-013  0.5052886E+02  0.7816164E-02  0.1300439E+00
        -11   -1    0    0    0    0  0.00000000000E+00  0.00000000000E+00  0.45593999997E+02  0.45594000000E+02  0.51100000000E-03 0.  1.
         11   -1    0    0    0    0 -0.00000000000E+00 -0.00000000000E+00 -0.45593999997E+02  0.45594000000E+02  0.51100000000E-03 0. -1.
    9900012    2    1    2    0    0  0.12375246605E+02  0.22876159124E+02  0.31252207016E+02  0.50528858000E+02  0.29999994377E+02 0.  0.
         12    1    1    2    0    0 -0.12375246605E+02 -0.22876159124E+02 -0.31252207016E+02  0.40659142000E+02  0.00000000000E+00 0. -1.
         11    1    3    3    0    0  0.11400754432E+01  0.19832073970E+01 -0.52028615460E+01  0.56835422162E+01  0.51100000000E-03 0. -1.
        -11    1    3    3    0    0  0.97887636694E+01  0.12988663128E+02  0.15770151893E+02  0.22654424623E+02  0.51100000000E-03 0.  1.
         12    1    3    3    0    0  0.14464074927E+01  0.79042885994E+01  0.20684916669E+02  0.22190891161E+02  0.00000000000E+00 0. -1.
</event>
<event>
 7    1  0.5946946E-013  0.5052886E+02  0.7816164E-02  0.1300439E+00
        -11   -1    0    0    0    0  0.00000000000E+00  0.00000000000E+00  0.45593999997E+02  0.45594000000E+02  0.51100000000E-03 0.  1.
         11   -1    0    0    0    0 -0.00000000000E+00 -0.00000000000E+00 -0.45593999997E+02  0.45594000000E+02  0.51100000000E-03 0. -1.
    9900012    2    1    2    0    0 -0.18563954993E+00 -0.25067695463E+02  0.32011591398E+02  0.50528858325E+02  0.29999995365E+02 0.  0.
         12    1    1    2    0    0  0.18563954993E+00  0.25067695463E+02 -0.32011591398E+02  0.40659141675E+02  0.00000000000E+00 0. -1.
         11    1    3    3    0    0  0.92500442084E+01 -0.17237401389E+02  0.31111132709E+02  0.36750427252E+02  0.51100000000E-03 0. -1.
        -11    1    3    3    0    0 -0.68935814388E+01 -0.58980274483E+01  0.34358092055E+01  0.97011843603E+01  0.51100000000E-03 0.  1.
         12    1    3    3    0    0 -0.25421023195E+01 -0.19322666259E+01 -0.25353505164E+01  0.40772467129E+01  0.00000000000E+00 0. -1.
</event>
<event>
 7    1  0.5946946E-013  0.5052886E+02  0.7816164E-02  0.1300439E+00
        -11   -1    0    0    0    0  0.00000000000E+00  0.00000000000E+00  0.45593999997E+02  0.45594000000E+02  0.51100000000E-03 0.  1.
         11   -1    0    0    0    0 -0.00000000000E+00 -0.00000000000E+00 -0.45593999997E+02  0.45594000000E+02  0.51100000000E-03 0. -1.
    9900012    2    1    2    0    0 -0.40063549894E+01 -0.20976613731E+02  0.34599083466E+02  0.50528858585E+02  0.29999996154E+02 0.  0.
         12    1    1    2    0    0  0.40063549894E+01  0.20976613731E+02 -0.34599083466E+02  0.40659141415E+02  0.00000000000E+00 0. -1.
         11    1    3    3    0    0  0.44312668852E+01 -0.73716132157E+01 -0.26561427629E+01  0.90017721727E+01  0.51100000000E-03 0. -1.
        -11    1    3    3    0    0 -0.91945594186E+01 -0.66811135042E+01  0.22292021253E+02  0.25022218374E+02  0.51100000000E-03 0.  1.
        -12    1    3    3    0    0  0.75693754392E+00 -0.69238870115E+01  0.14963204976E+02  0.16504868038E+02  0.00000000000E+00 0.  1.
</event>
<event>
 7    1  0.5946946E-013  0.5052885E+02  0.7816164E-02  0.1300439E+00
        -11   -1    0    0    0    0  0.00000000000E+00  0.00000000000E+00  0.45593999997E+02  0.45594000000E+02  0.51100000000E-03 0.  1.
         11   -1    0    0    0    0 -0.00000000000E+00 -0.00000000000E+00 -0.45593999997E+02  0.45594000000E+02  0.51100000000E-03 0. -1.
    9900012    2    1    2    0    0  0.15138231241E+02 -0.28219057169E+02  0.25053653659E+02  0.50528846119E+02  0.29999958264E+02 0.  0.
         12    1    1    2    0    0 -0.15138231241E+02  0.28219057169E+02 -0.25053653659E+02  0.40659153881E+02  0.00000000000E+00 0. -1.
         11    1    3    3    0    0  0.80262351582E+01 -0.27098162823E+01  0.80681068488E+01  0.11698628274E+02  0.51100000000E-03 0. -1.
        -11    1    3    3    0    0  0.47323760726E+01 -0.21358577505E+02  0.73382051506E+00  0.21888871811E+02  0.51100000000E-03 0.  1.
        -12    1    3    3    0    0  0.23796200097E+01 -0.41506633816E+01  0.16251726295E+02  0.16941346035E+02  0.00000000000E+00 0.  1.
</event>
<event>
 7    1  0.5946946E-013  0.5052885E+02  0.7816164E-02  0.1300439E+00
        -11   -1    0    0    0    0  0.00000000000E+00  0.00000000000E+00  0.45593999997E+02  0.45594000000E+02  0.51100000000E-03 0.  1.
         11   -1    0    0    0    0 -0.00000000000E+00 -0.00000000000E+00 -0.45593999997E+02  0.45594000000E+02  0.51100000000E-03 0. -1.
    9900012    2    1    2    0    0  0.32732910793E+02 -0.16035830353E+02  0.18015963736E+02  0.50528852770E+02  0.29999978480E+02 0.  0.
         12    1    1    2    0    0 -0.32732910793E+02  0.16035830353E+02 -0.18015963736E+02  0.40659147230E+02  0.00000000000E+00 0. -1.
         11    1    3    3    0    0  0.13594880295E+02 -0.41709768663E+01 -0.29988949032E+01  0.14533106659E+02  0.51100000000E-03 0. -1.
        -11    1    3    3    0    0  0.65211924737E+01 -0.10519189991E+02  0.19665246687E+02  0.23235774936E+02  0.51100000000E-03 0.  1.
        -12    1    3    3    0    0  0.12616838024E+02 -0.13456634953E+01  0.13496119526E+01  0.12759971175E+02  0.00000000000E+00 0.  1.
</event>
<event>
 7    1  0.5946946E-013  0.5052885E+02  0.7816164E-02  0.1300439E+00
        -11   -1    0    0    0    0  0.00000000000E+00  0.00000000000E+00  0.45593999997E+02  0.45594000000E+02  0.51100000000E-03 0. -1.
         11   -1    0    0    0    0 -0.00000000000E+00 -0.00000000000E+00 -0.45593999997E+02  0.45594000000E+02  0.51100000000E-03 0.  1.
    9900012    2    1    2    0    0  0.34266793786E+02  0.10418078320E+02 -0.19246210799E+02  0.50528854136E+02  0.29999982633E+02 0.  0.
         12    1    1    2    0    0 -0.34266793786E+02 -0.10418078320E+02  0.19246210799E+02  0.40659145864E+02  0.00000000000E+00 0. -1.
         11    1    3    3    0    0  0.59300085187E+01 -0.26110297577E+01 -0.59610041353E+01  0.88043198482E+01  0.51100000000E-03 0. -1.
        -11    1    3    3    0    0  0.32232795541E+01  0.95196977081E+01 -0.12914175853E+02  0.16364293867E+02  0.51100000000E-03 0.  1.
        -12    1    3    3    0    0  0.25113505713E+02  0.35094103692E+01 -0.37103081021E+00  0.25360240421E+02  0.00000000000E+00 0.  1.
</event>
<event>
 7    1  0.5946946E-013  0.5052886E+02  0.7816164E-02  0.1300439E+00
        -11   -1    0    0    0    0  0.00000000000E+00  0.00000000000E+00  0.45593999997E+02  0.45594000000E+02  0.51100000000E-03 0.  1.
         11   -1    0    0    0    0 -0.00000000000E+00 -0.00000000000E+00 -0.45593999997E+02  0.45594000000E+02  0.51100000000E-03 0. -1.
    9900012    2    1    2    0    0  0.90490966614E+01 -0.25996261474E+02  0.29924464966E+02  0.50528863702E+02  0.30000011708E+02 0.  0.
         12    1    1    2    0    0 -0.90490966614E+01  0.25996261474E+02 -0.29924464966E+02  0.40659136298E+02  0.00000000000E+00 0. -1.
         11    1    3    3    0    0  0.36678043116E+00  0.71243348816E+00  0.20869882094E+01  0.22355333608E+01  0.51100000000E-03 0. -1.
        -11    1    3    3    0    0 -0.64477616091E+01  0.22176322066E+01  0.48534527904E+01  0.83694400422E+01  0.51100000000E-03 0.  1.
        -12    1    3    3    0    0  0.15130077839E+02 -0.28926327169E+02  0.22984023966E+02  0.39923890299E+02  0.00000000000E+00 0.  1.
</event>
<event>
 7    1  0.5946946E-013  0.5052886E+02  0.7816164E-02  0.1300439E+00
        -11   -1    0    0    0    0  0.00000000000E+00  0.00000000000E+00  0.45593999997E+02  0.45594000000E+02  0.51100000000E-03 0.  1.
         11   -1    0    0    0    0 -0.00000000000E+00 -0.00000000000E+00 -0.45593999997E+02  0.45594000000E+02  0.51100000000E-03 0. -1.
    9900012    2    1    2    0    0 -0.88305320947E+01  0.10035653059E+02  0.38398863967E+02  0.50528863470E+02  0.30000011005E+02 0.  0.
         12    1    1    2    0    0  0.88305320947E+01 -0.10035653059E+02 -0.38398863967E+02  0.40659136530E+02  0.00000000000E+00 0. -1.
         11    1    3    3    0    0 -0.13709411257E+02 -0.21119768871E+01  0.15725021966E+02  0.20968660413E+02  0.51100000000E-03 0. -1.
        -11    1    3    3    0    0  0.79270189806E+01  0.38678587163E+01  0.16757867900E+02  0.18937373043E+02  0.51100000000E-03 0.  1.
         12    1    3    3    0    0 -0.30481398180E+01  0.82797712296E+01  0.59159741007E+01  0.10622830015E+02  0.00000000000E+00 0. -1.
</event>
<event>
 7    1  0.5946946E-013  0.5052886E+02  0.7816164E-02  0.1300439E+00
        -11   -1    0    0    0    0  0.00000000000E+00  0.00000000000E+00  0.45593999997E+02  0.45594000000E+02  0.51100000000E-03 0. -1.
         11   -1    0    0    0    0 -0.00000000000E+00 -0.00000000000E+00 -0.45593999997E+02  0.45594000000E+02  0.51100000000E-03 0.  1.
    9900012    2    1    2    0    0  0.25566210531E+02 -0.25587407486E+02  0.18569307171E+02  0.50528859434E+02  0.29999998736E+02 0.  0.
         12    1    1    2    0    0 -0.25566210531E+02  0.25587407486E+02 -0.18569307171E+02  0.40659140566E+02  0.00000000000E+00 0. -1.
         11    1    3    3    0    0  0.11624262264E+02 -0.23746257862E+02  0.15307839780E+02  0.30550584195E+02  0.51100000000E-03 0.  1.
        -11    1    3    3    0    0  0.13806427472E+02  0.24721560891E+01  0.55612479150E+01  0.15088289297E+02  0.51100000000E-03 0. -1.
        -12    1    3    3    0    0  0.13552079543E+00 -0.43133057130E+01 -0.22997805247E+01  0.48899859429E+01  0.00000000000E+00 0.  1.
</event>
<event>
 7    1  0.5946946E-013  0.5052884E+02  0.7816164E-02  0.1300439E+00
        -11   -1    0    0    0    0  0.00000000000E+00  0.00000000000E+00  0.45593999997E+02  0.45594000000E+02  0.51100000000E-03 0. -1.
         11   -1    0    0    0    0 -0.00000000000E+00 -0.00000000000E+00 -0.45593999997E+02  0.45594000000E+02  0.51100000000E-03 0.  1.
    9900012    2    1    2    0    0  0.39598400296E+02  0.77175765000E+01 -0.50569903257E+01  0.50528838127E+02  0.29999933971E+02 0.  0.
         12    1    1    2    0    0 -0.39598400296E+02 -0.77175765000E+01  0.50569903257E+01  0.40659161873E+02  0.00000000000E+00 0. -1.
         11    1    3    3    0    0  0.48113449050E+01 -0.55695638253E+01 -0.63753649220E+01  0.97372665132E+01  0.51100000000E-03 0.  1.
        -11    1    3    3    0    0  0.22612477365E+02  0.16412180526E+02  0.30373092971E+01  0.28105320675E+02  0.51100000000E-03 0. -1.
        -12    1    3    3    0    0  0.12174578027E+02 -0.31250402010E+01 -0.17189347008E+01  0.12686250939E+02  0.00000000000E+00 0.  1.
</event>
<event>
 7    1  0.5946946E-013  0.5052888E+02  0.7816164E-02  0.1300439E+00
        -11   -1    0    0    0    0  0.00000000000E+00  0.00000000000E+00  0.45593999997E+02  0.45594000000E+02  0.51100000000E-03 0.  1.
         11   -1    0    0    0    0 -0.00000000000E+00 -0.00000000000E+00 -0.45593999997E+02  0.45594000000E+02  0.51100000000E-03 0. -1.
    9900012    2    1    2    0    0  0.38326718079E+02  0.98820057924E+01 -0.93044533353E+01  0.50528877911E+02  0.30000054897E+02 0.  0.
         12    1    1    2    0    0 -0.38326718079E+02 -0.98820057924E+01  0.93044533353E+01  0.40659122089E+02  0.00000000000E+00 0. -1.
         11    1    3    3    0    0  0.15568144360E+02  0.11214460205E+02 -0.19226490897E+01  0.19282837351E+02  0.51100000000E-03 0. -1.
        -11    1    3    3    0    0  0.32646531028E+01 -0.70351549345E+01  0.31451450974E+01  0.83691877012E+01  0.51100000000E-03 0.  1.
         12    1    3    3    0    0  0.19493920616E+02  0.57027005217E+01 -0.10526949343E+02  0.22876852858E+02  0.00000000000E+00 0. -1.
</event>
<event>
 7    1  0.5946946E-013  0.5052887E+02  0.7816164E-02  0.1300439E+00
        -11   -1    0    0    0    0  0.00000000000E+00  0.00000000000E+00  0.45593999997E+02  0.45594000000E+02  0.51100000000E-03 0.  1.
         11   -1    0    0    0    0 -0.00000000000E+00 -0.00000000000E+00 -0.45593999997E+02  0.45594000000E+02  0.51100000000E-03 0. -1.
    9900012    2    1    2    0    0 -0.31382943393E+02 -0.33723201393E+01  0.25630121880E+02  0.50528870315E+02  0.30000031811E+02 0.  0.
         12    1    1    2    0    0  0.31382943393E+02  0.33723201393E+01 -0.25630121880E+02  0.40659129685E+02  0.00000000000E+00 0. -1.
         11    1    3    3    0    0 -0.68455968012E+00 -0.33239359814E+01 -0.55142079065E+01  0.64748483736E+01  0.51100000000E-03 0. -1.
        -11    1    3    3    0    0 -0.17599898829E+02 -0.26629825070E+01  0.17896913937E+02  0.25241779719E+02  0.51100000000E-03 0.  1.
         12    1    3    3    0    0 -0.13098484883E+02  0.26145983491E+01  0.13247415850E+02  0.18812242223E+02  0.00000000000E+00 0. -1.
</event>
<event>
 7    1  0.5946946E-013  0.5052886E+02  0.7816164E-02  0.1300439E+00
        -11   -1    0    0    0    0  0.00000000000E+00  0.00000000000E+00  0.45593999997E+02  0.45594000000E+02  0.51100000000E-03 0.  1.
         11   -1    0    0    0    0 -0.00000000000E+00 -0.00000000000E+00 -0.45593999997E+02  0.45594000000E+02  0.51100000000E-03 0. -1.
    9900012    2    1    2    0    0  0.33382549419E+01  0.57516662182E+01  0.40111591246E+02  0.50528863725E+02  0.30000011778E+02 0.  0.
         12    1    1    2    0    0 -0.33382549419E+01 -0.57516662182E+01 -0.40111591246E+02  0.40659136275E+02  0.00000000000E+00 0. -1.
         11    1    3    3    0    0 -0.97568285838E+00  0.11392195961E+02  0.14761898197E+02  0.18672110874E+02  0.51100000000E-03 0.  1.
        -11    1    3    3    0    0 -0.18813593386E+01 -0.10802810247E+02  0.17151265303E+02  0.20356967454E+02  0.51100000000E-03 0. -1.
         12    1    3    3    0    0  0.61952971389E+01  0.51622805042E+01  0.81984277467E+01  0.11499785396E+02  0.00000000000E+00 0. -1.
</event>
<event>
 7    1  0.5946946E-013  0.5052887E+02  0.7816164E-02  0.1300439E+00
        -11   -1    0    0    0    0  0.00000000000E+00  0.00000000000E+00  0.45593999997E+02  0.45594000000E+02  0.51100000000E-03 0.  1.
         11   -1    0    0    0    0 -0.00000000000E+00 -0.00000000000E+00 -0.45593999997E+02  0.45594000000E+02  0.51100000000E-03 0. -1.
    9900012    2    1    2    0    0 -0.76053840032E+01  0.31563158127E+02  0.24476317814E+02  0.50528868793E+02  0.30000027182E+02 0.  0.
         12    1    1    2    0    0  0.76053840032E+01 -0.31563158127E+02 -0.24476317814E+02  0.40659131207E+02  0.00000000000E+00 0. -1.
         11    1    3    3    0    0 -0.13082920036E+02  0.21226369587E+02  0.19477467137E+02  0.31640058294E+02  0.51100000000E-03 0. -1.
        -11    1    3    3    0    0  0.97826086950E+01  0.86300935082E+01  0.15970546882E+01  0.13142622675E+02  0.51100000000E-03 0.  1.
        -12    1    3    3    0    0 -0.43050726618E+01  0.17066950324E+01  0.34017959889E+01  0.57461878238E+01  0.00000000000E+00 0.  1.
</event>
<event>
 7    1  0.5946946E-013  0.5052887E+02  0.7816164E-02  0.1300439E+00
        -11   -1    0    0    0    0  0.00000000000E+00  0.00000000000E+00  0.45593999997E+02  0.45594000000E+02  0.51100000000E-03 0.  1.
         11   -1    0    0    0    0 -0.00000000000E+00 -0.00000000000E+00 -0.45593999997E+02  0.45594000000E+02  0.51100000000E-03 0. -1.
    9900012    2    1    2    0    0 -0.29802066192E+01 -0.49574705807E+01  0.40245577430E+02  0.50528872505E+02  0.30000038465E+02 0.  0.
         12    1    1    2    0    0  0.29802066192E+01  0.49574705807E+01 -0.40245577430E+02  0.40659127495E+02  0.00000000000E+00 0. -1.
         11    1    3    3    0    0 -0.10836055663E+01 -0.64513527232E+01 -0.23192087379E+01  0.69406687295E+01  0.51100000000E-03 0. -1.
        -11    1    3    3    0    0 -0.51015500301E+01  0.14781023755E+01  0.16666671548E+02  0.17492528122E+02  0.51100000000E-03 0.  1.
         12    1    3    3    0    0  0.32049489772E+01  0.15779767035E-01  0.25898114619E+02  0.26095675653E+02  0.00000000000E+00 0. -1.
</event>
<event>
 7    1  0.5946946E-013  0.5052885E+02  0.7816164E-02  0.1300439E+00
        -11   -1    0    0    0    0  0.00000000000E+00  0.00000000000E+00  0.45593999997E+02  0.45594000000E+02  0.51100000000E-03 0.  1.
         11   -1    0    0    0    0 -0.00000000000E+00 -0.00000000000E+00 -0.45593999997E+02  0.45594000000E+02  0.51100000000E-03 0. -1.
    9900012    2    1    2    0    0 -0.26529331341E+01  0.29562677162E+02  0.27788063076E+02  0.50528851156E+02  0.29999973574E+02 0.  0.
         12    1    1    2    0    0  0.26529331341E+01 -0.29562677162E+02 -0.27788063076E+02  0.40659148844E+02  0.00000000000E+00 0. -1.
         11    1    3    3    0    0  0.28057469923E+01 -0.37285131683E+01  0.39720532719E+00  0.46831398617E+01  0.51100000000E-03 0. -1.
        -11    1    3    3    0    0  0.22407650171E-01  0.29656812418E+02  0.19149680071E+02  0.35302085944E+02  0.51100000000E-03 0.  1.
        -12    1    3    3    0    0 -0.54810877767E+01  0.36343779129E+01  0.82411776770E+01  0.10543625351E+02  0.00000000000E+00 0.  1.
</event>
<event>
 7    1  0.5946946E-013  0.5052891E+02  0.7816164E-02  0.1300439E+00
        -11   -1    0    0    0    0  0.00000000000E+00  0.00000000000E+00  0.45593999997E+02  0.45594000000E+02  0.51100000000E-03 0. -1.
         11   -1    0    0    0    0 -0.00000000000E+00 -0.00000000000E+00 -0.45593999997E+02  0.45594000000E+02  0.51100000000E-03 0.  1.
    9900012    2    1    2    0    0  0.33430117960E+02 -0.20991796035E+02 -0.97433594289E+01  0.50528913186E+02  0.30000162120E+02 0.  0.
         12    1    1    2    0    0 -0.33430117960E+02  0.20991796035E+02  0.97433594289E+01  0.40659086814E+02  0.00000000000E+00 0. -1.
         11    1    3    3    0    0  0.26939792898E+01 -0.12857486160E+02  0.11878387063E+01  0.13190278080E+02  0.51100000000E-03 0. -1.
        -11    1    3    3    0    0  0.23507047978E+02  0.13984262673E+01 -0.90503665814E+01  0.25227882119E+02  0.51100000000E-03 0.  1.
        -12    1    3    3    0    0  0.72290906919E+01 -0.95327361421E+01 -0.18808315538E+01  0.12110752987E+02  0.00000000000E+00 0.  1.
</event>
<event>
 7    1  0.5946946E-013  0.5052887E+02  0.7816164E-02  0.1300439E+00
        -11   -1    0    0    0    0  0.00000000000E+00  0.00000000000E+00  0.45593999997E+02  0.45594000000E+02  0.51100000000E-03 0.  1.
         11   -1    0    0    0    0 -0.00000000000E+00 -0.00000000000E+00 -0.45593999997E+02  0.45594000000E+02  0.51100000000E-03 0. -1.
    9900012    2    1    2    0    0 -0.30953471023E+02 -0.26189156190E+02 -0.30291705500E+01  0.50528866407E+02  0.30000019931E+02 0.  0.
         12    1    1    2    0    0  0.30953471023E+02  0.26189156190E+02  0.30291705500E+01  0.40659133593E+02  0.00000000000E+00 0. -1.
         11    1    3    3    0    0 -0.10097085421E+02 -0.10094098411E+02 -0.11288597467E+02  0.18200944749E+02  0.51100000000E-03 0. -1.
        -11    1    3    3    0    0 -0.23700199280E+02 -0.15585744545E+02  0.75315239020E+01  0.29348572903E+02  0.51100000000E-03 0.  1.
         12    1    3    3    0    0  0.28438136777E+01 -0.50931323522E+00  0.72790301513E+00  0.29793487551E+01  0.00000000000E+00 0. -1.
</event>
<event>
 7    1  0.5946946E-013  0.5052886E+02  0.7816164E-02  0.1300439E+00
        -11   -1    0    0    0    0  0.00000000000E+00  0.00000000000E+00  0.45593999997E+02  0.45594000000E+02  0.51100000000E-03 0.  1.
         11   -1    0    0    0    0 -0.00000000000E+00 -0.00000000000E+00 -0.45593999997E+02  0.45594000000E+02  0.51100000000E-03 0. -1.
    9900012    2    1    2    0    0 -0.18287921088E+02 -0.35938665408E+02 -0.52086308780E+01  0.50528861240E+02  0.30000004226E+02 0.  0.
         12    1    1    2    0    0  0.18287921088E+02  0.35938665408E+02  0.52086308780E+01  0.40659138760E+02  0.00000000000E+00 0. -1.
         11    1    3    3    0    0 -0.83984717012E+01 -0.18073592414E+02  0.11884013617E+02  0.23203854197E+02  0.51100000000E-03 0. -1.
        -11    1    3    3    0    0 -0.24314923376E+01 -0.75315137858E+01 -0.99580472169E+01  0.12720006271E+02  0.51100000000E-03 0.  1.
        -12    1    3    3    0    0 -0.74579570487E+01 -0.10333559208E+02 -0.71345972783E+01  0.14605000773E+02  0.00000000000E+00 0.  1.
</event>
<event>
 7    1  0.5946946E-013  0.5052886E+02  0.7816164E-02  0.1300439E+00
        -11   -1    0    0    0    0  0.00000000000E+00  0.00000000000E+00  0.45593999997E+02  0.45594000000E+02  0.51100000000E-03 0.  1.
         11   -1    0    0    0    0 -0.00000000000E+00 -0.00000000000E+00 -0.45593999997E+02  0.45594000000E+02  0.51100000000E-03 0. -1.
    9900012    2    1    2    0    0  0.34682098658E+02  0.10025691834E+02  0.18703021970E+02  0.50528862099E+02  0.30000006836E+02 0.  0.
         12    1    1    2    0    0 -0.34682098658E+02 -0.10025691834E+02 -0.18703021970E+02  0.40659137901E+02  0.00000000000E+00 0. -1.
         11    1    3    3    0    0  0.12867116276E+02  0.14476468446E+01 -0.49214463601E+01  0.13852039460E+02  0.51100000000E-03 0. -1.
        -11    1    3    3    0    0  0.59643803273E+01  0.77888505460E+01  0.16685817598E+02  0.19356046463E+02  0.51100000000E-03 0.  1.
        -12    1    3    3    0    0  0.15850602054E+02  0.78919444297E+00  0.69386507320E+01  0.17320776176E+02  0.00000000000E+00 0.  1.
</event>
<event>
 7    1  0.6070297E-013  0.5052886E+02  0.7816164E-02  0.1300439E+00
        -11   -1    0    0    0    0  0.00000000000E+00  0.00000000000E+00  0.45593999997E+02  0.45594000000E+02  0.51100000000E-03 0. -1.
         11   -1    0    0    0    0 -0.00000000000E+00 -0.00000000000E+00 -0.45593999997E+02  0.45594000000E+02  0.51100000000E-03 0.  1.
    9900012    2    1    2    0    0 -0.25672052022E+02 -0.15563896035E+02 -0.27420368521E+02  0.50528859273E+02  0.29999998247E+02 0.  0.
         12    1    1    2    0    0  0.25672052022E+02  0.15563896035E+02  0.27420368521E+02  0.40659140727E+02  0.00000000000E+00 0. -1.
         11    1    3    3    0    0 -0.70210861516E+00 -0.69931627152E+01  0.18705515668E+01  0.72729804547E+01  0.51100000000E-03 0. -1.
        -11    1    3    3    0    0 -0.20291438043E+02 -0.11647517708E+02 -0.29500772471E+02  0.37652393061E+02  0.51100000000E-03 0.  1.
        -12    1    3    3    0    0 -0.46785053640E+01  0.30767843879E+01  0.20985238328E+00  0.56034857574E+01  0.00000000000E+00 0.  1.
</event>
<event>
 7    1  0.5946946E-013  0.5052895E+02  0.7816164E-02  0.1300438E+00
        -11   -1    0    0    0    0  0.00000000000E+00  0.00000000000E+00  0.45593999997E+02  0.45594000000E+02  0.51100000000E-03 0. -1.
         11   -1    0    0    0    0 -0.00000000000E+00 -0.00000000000E+00 -0.45593999997E+02  0.45594000000E+02  0.51100000000E-03 0.  1.
    9900012    2    1    2    0    0  0.14883890019E+02  0.37060380500E+02  0.76260242884E+01  0.50528951421E+02  0.30000278337E+02 0.  0.
         12    1    1    2    0    0 -0.14883890019E+02 -0.37060380500E+02 -0.76260242884E+01  0.40659048579E+02  0.00000000000E+00 0. -1.
         11    1    3    3    0    0 -0.35656937450E+01 -0.17687199451E+01  0.49288543684E+01  0.63353096036E+01  0.51100000000E-03 0. -1.
        -11    1    3    3    0    0  0.12271360174E+02  0.31580784141E+02  0.53642031891E+01  0.34303161423E+02  0.51100000000E-03 0.  1.
         12    1    3    3    0    0  0.61782235900E+01  0.72483163042E+01 -0.26670332690E+01  0.98904803944E+01  0.00000000000E+00 0. -1.
</event>
<event>
 7    1  0.5946946E-013  0.5052886E+02  0.7816164E-02  0.1300439E+00
        -11   -1    0    0    0    0  0.00000000000E+00  0.00000000000E+00  0.45593999997E+02  0.45594000000E+02  0.51100000000E-03 0.  1.
         11   -1    0    0    0    0 -0.00000000000E+00 -0.00000000000E+00 -0.45593999997E+02  0.45594000000E+02  0.51100000000E-03 0. -1.
    9900012    2    1    2    0    0 -0.22282828962E+02  0.23765710157E+02  0.24327603753E+02  0.50528858959E+02  0.29999997292E+02 0.  0.
         12    1    1    2    0    0  0.22282828962E+02 -0.23765710157E+02 -0.24327603753E+02  0.40659141041E+02  0.00000000000E+00 0. -1.
         11    1    3    3    0    0 -0.10506728490E+01 -0.20070625952E+00 -0.59208490677E+01  0.60166976309E+01  0.51100000000E-03 0. -1.
        -11    1    3    3    0    0 -0.15610720283E+02  0.14236076438E+02  0.22487054065E+02  0.30854951967E+02  0.51100000000E-03 0.  1.
        -12    1    3    3    0    0 -0.56214358300E+01  0.97303399785E+01  0.77613987555E+01  0.13657209361E+02  0.00000000000E+00 0.  1.
</event>
<event>
 7    1  0.5946946E-013  0.5052889E+02  0.7816164E-02  0.1300439E+00
        -11   -1    0    0    0    0  0.00000000000E+00  0.00000000000E+00  0.45593999997E+02  0.45594000000E+02  0.51100000000E-03 0.  1.
         11   -1    0    0    0    0 -0.00000000000E+00 -0.00000000000E+00 -0.45593999997E+02  0.45594000000E+02  0.51100000000E-03 0. -1.
    9900012    2    1    2    0    0  0.49455129555E+01  0.22798067376E+02  0.33300955607E+02  0.50528885170E+02  0.30000076962E+02 0.  0.
         12    1    1    2    0    0 -0.49455129555E+01 -0.22798067376E+02 -0.33300955607E+02  0.40659114830E+02  0.00000000000E+00 0. -1.
         11    1    3    3    0    0  0.49198884672E+01 -0.76021694168E+00  0.26037157219E+01  0.56180573288E+01  0.51100000000E-03 0. -1.
        -11    1    3    3    0    0  0.38351125450E+00  0.16120143796E+02  0.33319279391E+02  0.37015949215E+02  0.51100000000E-03 0.  1.
        -12    1    3    3    0    0 -0.35788676620E+00  0.74381405215E+01 -0.26220395062E+01  0.78948786265E+01  0.00000000000E+00 0.  1.
</event>
<event>
 7    1  0.5946946E-013  0.5052885E+02  0.7816164E-02  0.1300439E+00
        -11   -1    0    0    0    0  0.00000000000E+00  0.00000000000E+00  0.45593999997E+02  0.45594000000E+02  0.51100000000E-03 0.  1.
         11   -1    0    0    0    0 -0.00000000000E+00 -0.00000000000E+00 -0.45593999997E+02  0.45594000000E+02  0.51100000000E-03 0. -1.
    9900012    2    1    2    0    0  0.53290851625E+01  0.27713483317E+02  0.29269950540E+02  0.50528852064E+02  0.29999976335E+02 0.  0.
         12    1    1    2    0    0 -0.53290851625E+01 -0.27713483317E+02 -0.29269950540E+02  0.40659147936E+02  0.00000000000E+00 0. -1.
         11    1    3    3    0    0 -0.43548753772E+00 -0.34893581298E+01  0.27567212030E+01  0.44681966838E+01  0.51100000000E-03 0. -1.
        -11    1    3    3    0    0 -0.38751867846E+01  0.22847656619E+02  0.23392359277E+02  0.32927723249E+02  0.51100000000E-03 0.  1.
        -12    1    3    3    0    0  0.96397594849E+01  0.83551848278E+01  0.31208700603E+01  0.13132932131E+02  0.00000000000E+00 0.  1.
</event>
<event>
 7    1  0.5946946E-013  0.5052886E+02  0.7816164E-02  0.1300439E+00
        -11   -1    0    0    0    0  0.00000000000E+00  0.00000000000E+00  0.45593999997E+02  0.45594000000E+02  0.51100000000E-03 0.  1.
         11   -1    0    0    0    0 -0.00000000000E+00 -0.00000000000E+00 -0.45593999997E+02  0.45594000000E+02  0.51100000000E-03 0. -1.
    9900012    2    1    2    0    0  0.22768030124E+02  0.11061958869E+02  0.31818475684E+02  0.50528861733E+02  0.30000005724E+02 0.  0.
         12    1    1    2    0    0 -0.22768030124E+02 -0.11061958869E+02 -0.31818475684E+02  0.40659138267E+02  0.00000000000E+00 0. -1.
         11    1    3    3    0    0  0.20941741351E+01  0.11366560230E+01  0.23903294449E+02  0.24021761758E+02  0.51100000000E-03 0. -1.
        -11    1    3    3    0    0  0.12841407014E+01 -0.20246182098E+01  0.15613751791E+01  0.28611167308E+01  0.51100000000E-03 0.  1.
         12    1    3    3    0    0  0.19389715288E+02  0.11949921055E+02  0.63538060568E+01  0.23645983244E+02  0.00000000000E+00 0. -1.
</event>
<event>
 7    1  0.5946946E-013  0.5052887E+02  0.7816164E-02  0.1300439E+00
        -11   -1    0    0    0    0  0.00000000000E+00  0.00000000000E+00  0.45593999997E+02  0.45594000000E+02  0.51100000000E-03 0. -1.
         11   -1    0    0    0    0 -0.00000000000E+00 -0.00000000000E+00 -0.45593999997E+02  0.45594000000E+02  0.51100000000E-03 0.  1.
    9900012    2    1    2    0    0 -0.34640873384E+02 -0.17811561302E+02 -0.11658619307E+02  0.50528865369E+02  0.30000016774E+02 0.  0.
         12    1    1    2    0    0  0.34640873384E+02  0.17811561302E+02  0.11658619307E+02  0.40659134631E+02  0.00000000000E+00 0. -1.
         11    1    3    3    0    0  0.79664537950E+00 -0.52724331395E+01  0.41686474698E+01  0.67683688626E+01  0.51100000000E-03 0. -1.
        -11    1    3    3    0    0 -0.87483502669E+01 -0.77644037124E+01 -0.11315942680E+02  0.16274831993E+02  0.51100000000E-03 0.  1.
         12    1    3    3    0    0 -0.26689168496E+02 -0.47747244504E+01 -0.45113240968E+01  0.27485664513E+02  0.00000000000E+00 0. -1.
</event>
<event>
 7    1  0.5946946E-013  0.5052885E+02  0.7816164E-02  0.1300439E+00
        -11   -1    0    0    0    0  0.00000000000E+00  0.00000000000E+00  0.45593999997E+02  0.45594000000E+02  0.51100000000E-03 0.  1.
         11   -1    0    0    0    0 -0.00000000000E+00 -0.00000000000E+00 -0.45593999997E+02  0.45594000000E+02  0.51100000000E-03 0. -1.
    9900012    2    1    2    0    0  0.46544628315E+01  0.40319709349E+02  0.24131760572E+01  0.50528850907E+02  0.29999972818E+02 0.  0.
         12    1    1    2    0    0 -0.46544628315E+01 -0.40319709349E+02 -0.24131760572E+01  0.40659149093E+02  0.00000000000E+00 0. -1.
         11    1    3    3    0    0 -0.10216172293E+01 -0.96461639528E+00  0.67012276021E+00  0.15566795843E+01  0.51100000000E-03 0. -1.
        -11    1    3    3    0    0  0.32608002772E+01  0.32917747387E+02 -0.98117507126E+01  0.34503352935E+02  0.51100000000E-03 0.  1.
        -12    1    3    3    0    0  0.24152797837E+01  0.83665783578E+01  0.11554804010E+02  0.14468818388E+02  0.00000000000E+00 0.  1.
</event>
<event>
 7    1  0.5946946E-013  0.5052886E+02  0.7816164E-02  0.1300439E+00
        -11   -1    0    0    0    0  0.00000000000E+00  0.00000000000E+00  0.45593999997E+02  0.45594000000E+02  0.51100000000E-03 0.  1.
         11   -1    0    0    0    0 -0.00000000000E+00 -0.00000000000E+00 -0.45593999997E+02  0.45594000000E+02  0.51100000000E-03 0. -1.
    9900012    2    1    2    0    0  0.97473993024E+01 -0.52485583726E+01  0.39122964746E+02  0.50528861684E+02  0.30000005574E+02 0.  0.
         12    1    1    2    0    0 -0.97473993024E+01  0.52485583726E+01 -0.39122964746E+02  0.40659138316E+02  0.00000000000E+00 0. -1.
         11    1    3    3    0    0  0.10336548736E+02 -0.16857819774E+01  0.58845334230E+01  0.12013069321E+02  0.51100000000E-03 0. -1.
        -11    1    3    3    0    0 -0.32019804144E+01 -0.10757132695E+02  0.24171145870E+02  0.26649819424E+02  0.51100000000E-03 0.  1.
         12    1    3    3    0    0  0.26128309811E+01  0.71943563001E+01  0.90672854527E+01  0.11865972939E+02  0.00000000000E+00 0. -1.
</event>
<event>
 7    1  0.5946946E-013  0.5052880E+02  0.7816164E-02  0.1300439E+00
        -11   -1    0    0    0    0  0.00000000000E+00  0.00000000000E+00  0.45593999997E+02  0.45594000000E+02  0.51100000000E-03 0. -1.
         11   -1    0    0    0    0 -0.00000000000E+00 -0.00000000000E+00 -0.45593999997E+02  0.45594000000E+02  0.51100000000E-03 0.  1.
    9900012    2    1    2    0    0  0.31247285976E+02 -0.18722360298E+01  0.25947491848E+02  0.50528800772E+02  0.29999820426E+02 0.  0.
         12    1    1    2    0    0 -0.31247285976E+02  0.18722360298E+01 -0.25947491848E+02  0.40659199228E+02  0.00000000000E+00 0. -1.
         11    1    3    3    0    0 -0.43586494896E+01  0.39020715102E+01  0.55518538430E+00  0.58764120445E+01  0.51100000000E-03 0. -1.
        -11    1    3    3    0    0  0.28471272999E+02 -0.32609843100E+01  0.16857629225E+02  0.33247963370E+02  0.51100000000E-03 0.  1.
         12    1    3    3    0    0  0.71346624667E+01 -0.25133232301E+01  0.85346772388E+01  0.11404425358E+02  0.00000000000E+00 0. -1.
</event>
<event>
 7    1  0.5946946E-013  0.5052883E+02  0.7816164E-02  0.1300439E+00
        -11   -1    0    0    0    0  0.00000000000E+00  0.00000000000E+00  0.45593999997E+02  0.45594000000E+02  0.51100000000E-03 0. -1.
         11   -1    0    0    0    0 -0.00000000000E+00 -0.00000000000E+00 -0.45593999997E+02  0.45594000000E+02  0.51100000000E-03 0.  1.
    9900012    2    1    2    0    0 -0.90401990565E+01 -0.35613470376E+02 -0.17410436724E+02  0.50528834021E+02  0.29999921489E+02 0.  0.
         12    1    1    2    0    0  0.90401990565E+01  0.35613470376E+02  0.17410436724E+02  0.40659165979E+02  0.00000000000E+00 0. -1.
         11    1    3    3    0    0 -0.88747370224E+01 -0.10374849238E+02  0.34128556402E+01  0.14072883067E+02  0.51100000000E-03 0. -1.
        -11    1    3    3    0    0  0.78574939870E+01 -0.12447550773E+02 -0.87577370203E+01  0.17128330040E+02  0.51100000000E-03 0.  1.
        -12    1    3    3    0    0 -0.80229560211E+01 -0.12791070365E+02 -0.12065555344E+02  0.19327620913E+02  0.00000000000E+00 0.  1.
</event>
<event>
 7    1  0.5946946E-013  0.5052885E+02  0.7816164E-02  0.1300439E+00
        -11   -1    0    0    0    0  0.00000000000E+00  0.00000000000E+00  0.45593999997E+02  0.45594000000E+02  0.51100000000E-03 0.  1.
         11   -1    0    0    0    0 -0.00000000000E+00 -0.00000000000E+00 -0.45593999997E+02  0.45594000000E+02  0.51100000000E-03 0. -1.
    9900012    2    1    2    0    0  0.36485077295E+01 -0.33979736945E+02  0.22027983632E+02  0.50528853497E+02  0.29999980688E+02 0.  0.
         12    1    1    2    0    0 -0.36485077295E+01  0.33979736945E+02 -0.22027983632E+02  0.40659146503E+02  0.00000000000E+00 0. -1.
         11    1    3    3    0    0  0.97187929017E+01 -0.29508541307E+02  0.15131387576E+02  0.34556733581E+02  0.51100000000E-03 0. -1.
        -11    1    3    3    0    0 -0.15768798610E+01  0.38124314774E+01 -0.26747909637E+00  0.41343353993E+01  0.51100000000E-03 0.  1.
        -12    1    3    3    0    0 -0.44934053112E+01 -0.82836271148E+01  0.71640751526E+01  0.11837784517E+02  0.00000000000E+00 0.  1.
</event>
<event>
 7    1  0.5946946E-013  0.5052885E+02  0.7816164E-02  0.1300439E+00
        -11   -1    0    0    0    0  0.00000000000E+00  0.00000000000E+00  0.45593999997E+02  0.45594000000E+02  0.51100000000E-03 0. -1.
         11   -1    0    0    0    0 -0.00000000000E+00 -0.00000000000E+00 -0.45593999997E+02  0.45594000000E+02  0.51100000000E-03 0.  1.
    9900012    2    1    2    0    0  0.73087987018E+01  0.16195595376E+02 -0.36571171192E+02  0.50528850840E+02  0.29999972613E+02 0.  0.
         12    1    1    2    0    0 -0.73087987018E+01 -0.16195595376E+02  0.36571171192E+02  0.40659149160E+02  0.00000000000E+00 0. -1.
         11    1    3    3    0    0 -0.10256575566E+02  0.33880255699E+01 -0.88359191986E+01  0.13955268824E+02  0.51100000000E-03 0. -1.
        -11    1    3    3    0    0  0.66527766861E+01  0.68194834396E+01 -0.19340842599E+02  0.21559985731E+02  0.51100000000E-03 0.  1.
         12    1    3    3    0    0  0.10912597582E+02  0.59880863666E+01 -0.83944093949E+01  0.15013596285E+02  0.00000000000E+00 0. -1.
</event>
<event>
 7    1  0.5946946E-013  0.5052886E+02  0.7816164E-02  0.1300439E+00
        -11   -1    0    0    0    0  0.00000000000E+00  0.00000000000E+00  0.45593999997E+02  0.45594000000E+02  0.51100000000E-03 0. -1.
         11   -1    0    0    0    0 -0.00000000000E+00 -0.00000000000E+00 -0.45593999997E+02  0.45594000000E+02  0.51100000000E-03 0.  1.
    9900012    2    1    2    0    0  0.13847981957E+02 -0.33636730698E+02 -0.18165058935E+02  0.50528860530E+02  0.30000002067E+02 0.  0.
         12    1    1    2    0    0 -0.13847981957E+02  0.33636730698E+02  0.18165058935E+02  0.40659139470E+02  0.00000000000E+00 0. -1.
         11    1    3    3    0    0  0.14048674367E+02 -0.65016604191E+01  0.74455292600E+00  0.15498103077E+02  0.51100000000E-03 0. -1.
        -11    1    3    3    0    0  0.25463712185E+01 -0.26088835828E+02 -0.18451505409E+02  0.32055723566E+02  0.51100000000E-03 0.  1.
        -12    1    3    3    0    0 -0.27470636282E+01 -0.10462344507E+01 -0.45810645247E+00  0.29750338864E+01  0.00000000000E+00 0.  1.
</event>
<event>
 7    1  0.5946946E-013  0.5052885E+02  0.7816164E-02  0.1300439E+00
        -11   -1    0    0    0    0  0.00000000000E+00  0.00000000000E+00  0.45593999997E+02  0.45594000000E+02  0.51100000000E-03 0. -1.
         11   -1    0    0    0    0 -0.00000000000E+00 -0.00000000000E+00 -0.45593999997E+02  0.45594000000E+02  0.51100000000E-03 0.  1.
    9900012    2    1    2    0    0  0.87036081096E+01  0.39193752661E+02 -0.64236938341E+01  0.50528845013E+02  0.29999954903E+02 0.  0.
         12    1    1    2    0    0 -0.87036081096E+01 -0.39193752661E+02  0.64236938341E+01  0.40659154987E+02  0.00000000000E+00 0. -1.
         11    1    3    3    0    0 -0.55973148840E+01 -0.77468492640E+00 -0.12883932257E+01  0.57956904689E+01  0.51100000000E-03 0. -1.
        -11    1    3    3    0    0  0.10102644366E+02  0.27015279051E+02  0.27917330686E+01  0.28977275565E+02  0.51100000000E-03 0.  1.
        -12    1    3    3    0    0  0.41982786274E+01  0.12953158536E+02 -0.79270336769E+01  0.15755878979E+02  0.00000000000E+00 0.  1.
</event>
<event>
 7    1  0.5946946E-013  0.5052882E+02  0.7816164E-02  0.1300439E+00
        -11   -1    0    0    0    0  0.00000000000E+00  0.00000000000E+00  0.45593999997E+02  0.45594000000E+02  0.51100000000E-03 0.  1.
         11   -1    0    0    0    0 -0.00000000000E+00 -0.00000000000E+00 -0.45593999997E+02  0.45594000000E+02  0.51100000000E-03 0. -1.
    9900012    2    1    2    0    0  0.27093997050E+02 -0.10049341744E+02  0.28602365941E+02  0.50528815514E+02  0.29999865237E+02 0.  0.
         12    1    1    2    0    0 -0.27093997050E+02  0.10049341744E+02 -0.28602365941E+02  0.40659184486E+02  0.00000000000E+00 0. -1.
         11    1    3    3    0    0  0.12889267674E+02 -0.76424465743E+01  0.29218188626E+02  0.32836606975E+02  0.51100000000E-03 0. -1.
        -11    1    3    3    0    0  0.14945352585E+02 -0.25663127245E+01  0.16967394277E+01  0.15258717175E+02  0.51100000000E-03 0.  1.
         12    1    3    3    0    0 -0.74062320939E+00  0.15941755484E+00 -0.23125621123E+01  0.24334913639E+01  0.00000000000E+00 0. -1.
</event>
<event>
 7    1  0.5946946E-013  0.5052885E+02  0.7816164E-02  0.1300439E+00
        -11   -1    0    0    0    0  0.00000000000E+00  0.00000000000E+00  0.45593999997E+02  0.45594000000E+02  0.51100000000E-03 0.  1.
         11   -1    0    0    0    0 -0.00000000000E+00 -0.00000000000E+00 -0.45593999997E+02  0.45594000000E+02  0.51100000000E-03 0. -1.
    9900012    2    1    2    0    0 -0.15596772865E+02  0.93190292538E+00  0.37537166511E+02  0.50528848059E+02  0.29999964161E+02 0.  0.
         12    1    1    2    0    0  0.15596772865E+02 -0.93190292538E+00 -0.37537166511E+02  0.40659151941E+02  0.00000000000E+00 0. -1.
         11    1    3    3    0    0 -0.37792570047E+01 -0.12592242350E+02  0.81882366292E+01  0.15488530281E+02  0.51100000000E-03 0. -1.
        -11    1    3    3    0    0 -0.12427998788E+02  0.13379006764E+02  0.29120920676E+02  0.34372678062E+02  0.51100000000E-03 0.  1.
        -12    1    3    3    0    0  0.61048292817E+00  0.14513851160E+00  0.22800920613E+00  0.66763971662E+00  0.00000000000E+00 0.  1.
</event>
<event>
 7    1  0.5946946E-013  0.5052886E+02  0.7816164E-02  0.1300439E+00
        -11   -1    0    0    0    0  0.00000000000E+00  0.00000000000E+00  0.45593999997E+02  0.45594000000E+02  0.51100000000E-03 0. -1.
         11   -1    0    0    0    0 -0.00000000000E+00 -0.00000000000E+00 -0.45593999997E+02  0.45594000000E+02  0.51100000000E-03 0.  1.
    9900012    2    1    2    0    0  0.27817794178E+02  0.24950690717E+02 -0.16024941758E+02  0.50528863284E+02  0.30000010437E+02 0.  0.
         12    1    1    2    0    0 -0.27817794178E+02 -0.24950690717E+02  0.16024941758E+02  0.40659136716E+02  0.00000000000E+00 0. -1.
         11    1    3    3    0    0  0.15863323932E+02  0.11872387953E+02 -0.14806898900E+01  0.19869350384E+02  0.51100000000E-03 0. -1.
        -11    1    3    3    0    0  0.66803102985E+01  0.16536644469E+02 -0.16248124053E+02  0.24126514283E+02  0.51100000000E-03 0.  1.
        -12    1    3    3    0    0  0.52741599470E+01 -0.34583417048E+01  0.17038721850E+01  0.65329986160E+01  0.00000000000E+00 0.  1.
</event>
<event>
 7    1  0.5946946E-013  0.5052886E+02  0.7816164E-02  0.1300439E+00
        -11   -1    0    0    0    0  0.00000000000E+00  0.00000000000E+00  0.45593999997E+02  0.45594000000E+02  0.51100000000E-03 0.  1.
         11   -1    0    0    0    0 -0.00000000000E+00 -0.00000000000E+00 -0.45593999997E+02  0.45594000000E+02  0.51100000000E-03 0. -1.
    9900012    2    1    2    0    0  0.22290453517E+02 -0.15678725596E+01  0.33968269458E+02  0.50528857457E+02  0.29999992727E+02 0.  0.
         12    1    1    2    0    0 -0.22290453517E+02  0.15678725596E+01 -0.33968269458E+02  0.40659142543E+02  0.00000000000E+00 0. -1.
         11    1    3    3    0    0 -0.42516007095E+01  0.31290494597E+01  0.93728150098E+01  0.10757170659E+02  0.51100000000E-03 0. -1.
        -11    1    3    3    0    0  0.23014542590E+02 -0.11654450765E+01  0.25844741416E+02  0.34626263038E+02  0.51100000000E-03 0.  1.
        -12    1    3    3    0    0  0.35275116362E+01 -0.35314769428E+01 -0.12492869685E+01  0.51454237600E+01  0.00000000000E+00 0.  1.
</event>
<event>
 7    1  0.5946946E-013  0.5052886E+02  0.7816164E-02  0.1300439E+00
        -11   -1    0    0    0    0  0.00000000000E+00  0.00000000000E+00  0.45593999997E+02  0.45594000000E+02  0.51100000000E-03 0.  1.
         11   -1    0    0    0    0 -0.00000000000E+00 -0.00000000000E+00 -0.45593999997E+02  0.45594000000E+02  0.51100000000E-03 0. -1.
    9900012    2    1    2    0    0 -0.54209302921E+01 -0.97388000889E+01  0.39101600982E+02  0.50528856972E+02  0.29999991252E+02 0.  0.
         12    1    1    2    0    0  0.54209302921E+01  0.97388000889E+01 -0.39101600982E+02  0.40659143028E+02  0.00000000000E+00 0. -1.
         11    1    3    3    0    0 -0.15497527005E+02 -0.34429205325E+01  0.14049892700E+02  0.21199682314E+02  0.51100000000E-03 0. -1.
        -11    1    3    3    0    0 -0.17211586997E+01 -0.18005811438E+01  0.57348519254E+01  0.62524400511E+01  0.51100000000E-03 0.  1.
         12    1    3    3    0    0  0.11797755413E+02 -0.44952984126E+01  0.19316856356E+02  0.23076734606E+02  0.00000000000E+00 0. -1.
</event>
<event>
 7    1  0.5946946E-013  0.5052886E+02  0.7816164E-02  0.1300439E+00
        -11   -1    0    0    0    0  0.00000000000E+00  0.00000000000E+00  0.45593999997E+02  0.45594000000E+02  0.51100000000E-03 0.  1.
         11   -1    0    0    0    0 -0.00000000000E+00 -0.00000000000E+00 -0.45593999997E+02  0.45594000000E+02  0.51100000000E-03 0. -1.
    9900012    2    1    2    0    0  0.30061476994E+02  0.16175414994E+02  0.22086854647E+02  0.50528860837E+02  0.30000003000E+02 0.  0.
         12    1    1    2    0    0 -0.30061476994E+02 -0.16175414994E+02 -0.22086854647E+02  0.40659139163E+02  0.00000000000E+00 0. -1.
         11    1    3    3    0    0  0.52444615742E+01 -0.20628924348E+01 -0.19793300701E+01  0.59730771122E+01  0.51100000000E-03 0. -1.
        -11    1    3    3    0    0  0.24462056907E+02  0.12458789093E+02  0.26609072697E+02  0.38231615240E+02  0.51100000000E-03 0.  1.
        -12    1    3    3    0    0  0.35495851226E+00  0.57795183367E+01 -0.25428879800E+01  0.63241684851E+01  0.00000000000E+00 0.  1.
</event>
<event>
 7    1  0.5946946E-013  0.5052883E+02  0.7816164E-02  0.1300439E+00
        -11   -1    0    0    0    0  0.00000000000E+00  0.00000000000E+00  0.45593999997E+02  0.45594000000E+02  0.51100000000E-03 0.  1.
         11   -1    0    0    0    0 -0.00000000000E+00 -0.00000000000E+00 -0.45593999997E+02  0.45594000000E+02  0.51100000000E-03 0. -1.
    9900012    2    1    2    0    0  0.13099366320E+01  0.14506977995E+02  0.37960507583E+02  0.50528825384E+02  0.29999895237E+02 0.  0.
         12    1    1    2    0    0 -0.13099366320E+01 -0.14506977995E+02 -0.37960507583E+02  0.40659174616E+02  0.00000000000E+00 0. -1.
         11    1    3    3    0    0  0.93209511914E+01  0.79255063250E+01  0.51899647305E+01  0.13290203753E+02  0.51100000000E-03 0. -1.
        -11    1    3    3    0    0  0.30404380755E+01  0.30542850776E+01  0.17717756997E+02  0.18234358620E+02  0.51100000000E-03 0.  1.
         12    1    3    3    0    0 -0.11051452635E+02  0.35271865926E+01  0.15052785855E+02  0.19004263011E+02  0.00000000000E+00 0. -1.
</event>
<event>
 7    1  0.5946946E-013  0.5052886E+02  0.7816164E-02  0.1300439E+00
        -11   -1    0    0    0    0  0.00000000000E+00  0.00000000000E+00  0.45593999997E+02  0.45594000000E+02  0.51100000000E-03 0.  1.
         11   -1    0    0    0    0 -0.00000000000E+00 -0.00000000000E+00 -0.45593999997E+02  0.45594000000E+02  0.51100000000E-03 0. -1.
    9900012    2    1    2    0    0  0.20576305890E+02  0.34890675415E+02 -0.35245067873E+01  0.50528859047E+02  0.29999997559E+02 0.  0.
         12    1    1    2    0    0 -0.20576305890E+02 -0.34890675415E+02  0.35245067873E+01  0.40659140953E+02  0.00000000000E+00 0. -1.
         11    1    3    3    0    0  0.12773199484E+02  0.19363537416E+02  0.63507507689E+01  0.24050639117E+02  0.51100000000E-03 0.  1.
        -11    1    3    3    0    0 -0.18553045991E+01  0.12996869376E+02 -0.99833763052E+01  0.16493288679E+02  0.51100000000E-03 0. -1.
         12    1    3    3    0    0  0.96584110042E+01  0.25302686228E+01  0.10811874900E+00  0.99849312513E+01  0.00000000000E+00 0. -1.
</event>
<event>
 7    1  0.5946946E-013  0.5052886E+02  0.7816164E-02  0.1300439E+00
        -11   -1    0    0    0    0  0.00000000000E+00  0.00000000000E+00  0.45593999997E+02  0.45594000000E+02  0.51100000000E-03 0. -1.
         11   -1    0    0    0    0 -0.00000000000E+00 -0.00000000000E+00 -0.45593999997E+02  0.45594000000E+02  0.51100000000E-03 0.  1.
    9900012    2    1    2    0    0 -0.13076345588E+02  0.38039538451E+02  0.59302779913E+01  0.50528862078E+02  0.30000006773E+02 0.  0.
         12    1    1    2    0    0  0.13076345588E+02 -0.38039538451E+02 -0.59302779913E+01  0.40659137922E+02  0.00000000000E+00 0. -1.
         11    1    3    3    0    0 -0.51533998796E+01  0.52155513087E+01 -0.32264723832E+01  0.80105948639E+01  0.51100000000E-03 0. -1.
        -11    1    3    3    0    0  0.14939844437E+00  0.21533167718E+02  0.16206470575E+02  0.26950868643E+02  0.51100000000E-03 0.  1.
        -12    1    3    3    0    0 -0.80723441525E+01  0.11290819424E+02 -0.70497202001E+01  0.15567398571E+02  0.00000000000E+00 0.  1.
</event>
<event>
 7    1  0.5946946E-013  0.5052886E+02  0.7816164E-02  0.1300439E+00
        -11   -1    0    0    0    0  0.00000000000E+00  0.00000000000E+00  0.45593999997E+02  0.45594000000E+02  0.51100000000E-03 0.  1.
         11   -1    0    0    0    0 -0.00000000000E+00 -0.00000000000E+00 -0.45593999997E+02  0.45594000000E+02  0.51100000000E-03 0. -1.
    9900012    2    1    2    0    0  0.12292982899E+02 -0.37164756100E+02 -0.10992230178E+02  0.50528860206E+02  0.30000001081E+02 0.  0.
         12    1    1    2    0    0 -0.12292982899E+02  0.37164756100E+02  0.10992230178E+02  0.40659139794E+02  0.00000000000E+00 0. -1.
         11    1    3    3    0    0  0.32093713263E+01 -0.37885851940E+00 -0.40177388386E+01  0.51561442691E+01  0.51100000000E-03 0. -1.
        -11    1    3    3    0    0  0.44914607272E+01 -0.17810711657E+02  0.87109573396E+01  0.20329177239E+02  0.51100000000E-03 0.  1.
        -12    1    3    3    0    0  0.45921508454E+01 -0.18975185924E+02 -0.15685448679E+02  0.25043538697E+02  0.00000000000E+00 0.  1.
</event>
<event>
 7    1  0.5946946E-013  0.5052886E+02  0.7816164E-02  0.1300439E+00
        -11   -1    0    0    0    0  0.00000000000E+00  0.00000000000E+00  0.45593999997E+02  0.45594000000E+02  0.51100000000E-03 0.  1.
         11   -1    0    0    0    0 -0.00000000000E+00 -0.00000000000E+00 -0.45593999997E+02  0.45594000000E+02  0.51100000000E-03 0. -1.
    9900012    2    1    2    0    0  0.38496992480E+02  0.12129860886E+02  0.49003374027E+01  0.50528864965E+02  0.30000015547E+02 0.  0.
         12    1    1    2    0    0 -0.38496992480E+02 -0.12129860886E+02 -0.49003374027E+01  0.40659135035E+02  0.00000000000E+00 0. -1.
         11    1    3    3    0    0  0.17105849377E+02 -0.13123793387E+01  0.75817757349E+01  0.18756752011E+02  0.51100000000E-03 0. -1.
        -11    1    3    3    0    0  0.97257015187E+01  0.15203753316E+02  0.36037812776E+01  0.18404635956E+02  0.51100000000E-03 0.  1.
        -12    1    3    3    0    0  0.11665441584E+02 -0.17615130916E+01 -0.62852196098E+01  0.13367476997E+02  0.00000000000E+00 0.  1.
</event>
<event>
 7    1  0.5946946E-013  0.5052888E+02  0.7816164E-02  0.1300439E+00
        -11   -1    0    0    0    0  0.00000000000E+00  0.00000000000E+00  0.45593999997E+02  0.45594000000E+02  0.51100000000E-03 0.  1.
         11   -1    0    0    0    0 -0.00000000000E+00 -0.00000000000E+00 -0.45593999997E+02  0.45594000000E+02  0.51100000000E-03 0. -1.
    9900012    2    1    2    0    0  0.11888377258E+02 -0.14956850376E+02  0.35890434801E+02  0.50528878057E+02  0.30000055342E+02 0.  0.
         12    1    1    2    0    0 -0.11888377258E+02  0.14956850376E+02 -0.35890434801E+02  0.40659121943E+02  0.00000000000E+00 0. -1.
         11    1    3    3    0    0  0.13078561673E+02 -0.70672962705E+01  0.42359855504E+01  0.15457652663E+02  0.51100000000E-03 0. -1.
        -11    1    3    3    0    0  0.41918948216E+01 -0.85812992690E+01  0.22259049489E+02  0.24221394753E+02  0.51100000000E-03 0.  1.
         12    1    3    3    0    0 -0.53820792364E+01  0.69174516393E+00  0.93953997609E+01  0.10849830641E+02  0.00000000000E+00 0. -1.
</event>
<event>
 7    1  0.5946946E-013  0.5052886E+02  0.7816164E-02  0.1300439E+00
        -11   -1    0    0    0    0  0.00000000000E+00  0.00000000000E+00  0.45593999997E+02  0.45594000000E+02  0.51100000000E-03 0.  1.
         11   -1    0    0    0    0 -0.00000000000E+00 -0.00000000000E+00 -0.45593999997E+02  0.45594000000E+02  0.51100000000E-03 0. -1.
    9900012    2    1    2    0    0  0.36673299769E+02 -0.17042934184E+02  0.42158148480E+01  0.50528860605E+02  0.30000002294E+02 0.  0.
         12    1    1    2    0    0 -0.36673299769E+02  0.17042934184E+02 -0.42158148480E+01  0.40659139395E+02  0.00000000000E+00 0. -1.
         11    1    3    3    0    0  0.31722032005E+02 -0.15468327576E+02 -0.48212273439E+01  0.35620228886E+02  0.51100000000E-03 0.  1.
        -11    1    3    3    0    0 -0.22826456893E+01  0.37340983290E+00  0.66580321600E+01  0.70483543292E+01  0.51100000000E-03 0. -1.
        -12    1    3    3    0    0  0.72339134536E+01 -0.19480164402E+01  0.23790100319E+01  0.78602773893E+01  0.00000000000E+00 0.  1.
</event>
<event>
 7    1  0.5946946E-013  0.5052886E+02  0.7816164E-02  0.1300439E+00
        -11   -1    0    0    0    0  0.00000000000E+00  0.00000000000E+00  0.45593999997E+02  0.45594000000E+02  0.51100000000E-03 0.  1.
         11   -1    0    0    0    0 -0.00000000000E+00 -0.00000000000E+00 -0.45593999997E+02  0.45594000000E+02  0.51100000000E-03 0. -1.
    9900012    2    1    2    0    0  0.11256226147E+02  0.37683150792E+02  0.10317137609E+02  0.50528858234E+02  0.29999995089E+02 0.  0.
         12    1    1    2    0    0 -0.11256226147E+02 -0.37683150792E+02 -0.10317137609E+02  0.40659141766E+02  0.00000000000E+00 0. -1.
         11    1    3    3    0    0  0.70237384629E+01 -0.22966027804E+01  0.46250715466E+01  0.87177160655E+01  0.51100000000E-03 0. -1.
        -11    1    3    3    0    0  0.45093515599E+01  0.30683545982E+02  0.83889360726E+01  0.32127690459E+02  0.51100000000E-03 0.  1.
         12    1    3    3    0    0 -0.27686387572E+00  0.92962075901E+01 -0.26968700099E+01  0.96834517097E+01  0.00000000000E+00 0. -1.
</event>
<event>
 7    1  0.5946946E-013  0.5052885E+02  0.7816164E-02  0.1300439E+00
        -11   -1    0    0    0    0  0.00000000000E+00  0.00000000000E+00  0.45593999997E+02  0.45594000000E+02  0.51100000000E-03 0.  1.
         11   -1    0    0    0    0 -0.00000000000E+00 -0.00000000000E+00 -0.45593999997E+02  0.45594000000E+02  0.51100000000E-03 0. -1.
    9900012    2    1    2    0    0  0.22620376616E+02  0.29204911244E+02  0.16987011542E+02  0.50528845555E+02  0.29999956550E+02 0.  0.
         12    1    1    2    0    0 -0.22620376616E+02 -0.29204911244E+02 -0.16987011542E+02  0.40659154445E+02  0.00000000000E+00 0. -1.
         11    1    3    3    0    0 -0.55683197081E+01  0.53352777109E+01 -0.14408490328E+01  0.78452163017E+01  0.51100000000E-03 0. -1.
        -11    1    3    3    0    0  0.11421915117E+02  0.16764279910E+02  0.10055568339E+02  0.22641017661E+02  0.51100000000E-03 0.  1.
         12    1    3    3    0    0  0.16766781208E+02  0.71053536233E+01  0.83722922360E+01  0.20042611593E+02  0.00000000000E+00 0. -1.
</event>
<event>
 7    1  0.5946946E-013  0.5052887E+02  0.7816164E-02  0.1300439E+00
        -11   -1    0    0    0    0  0.00000000000E+00  0.00000000000E+00  0.45593999997E+02  0.45594000000E+02  0.51100000000E-03 0.  1.
         11   -1    0    0    0    0 -0.00000000000E+00 -0.00000000000E+00 -0.45593999997E+02  0.45594000000E+02  0.51100000000E-03 0. -1.
    9900012    2    1    2    0    0 -0.16162906158E+02  0.22477461301E+02  0.29777322122E+02  0.50528871692E+02  0.30000035995E+02 0.  0.
         12    1    1    2    0    0  0.16162906158E+02 -0.22477461301E+02 -0.29777322122E+02  0.40659128308E+02  0.00000000000E+00 0. -1.
         11    1    3    3    0    0 -0.78107548791E+01  0.21111569076E+02  0.12655469986E+02  0.25823771247E+02  0.51100000000E-03 0. -1.
        -11    1    3    3    0    0 -0.99474941830E+01 -0.46195497692E+01  0.75924153798E+01  0.13339327275E+02  0.51100000000E-03 0.  1.
         12    1    3    3    0    0  0.15953429040E+01  0.59854419949E+01  0.95294367560E+01  0.11365773170E+02  0.00000000000E+00 0. -1.
</event>
<event>
 7    1  0.5946946E-013  0.5052886E+02  0.7816164E-02  0.1300439E+00
        -11   -1    0    0    0    0  0.00000000000E+00  0.00000000000E+00  0.45593999997E+02  0.45594000000E+02  0.51100000000E-03 0.  1.
         11   -1    0    0    0    0 -0.00000000000E+00 -0.00000000000E+00 -0.45593999997E+02  0.45594000000E+02  0.51100000000E-03 0. -1.
    9900012    2    1    2    0    0  0.30211623475E+02 -0.15597350068E+02  0.22296773518E+02  0.50528860419E+02  0.30000001730E+02 0.  0.
         12    1    1    2    0    0 -0.30211623475E+02  0.15597350068E+02 -0.22296773518E+02  0.40659139581E+02  0.00000000000E+00 0. -1.
         11    1    3    3    0    0 -0.23666774112E+01 -0.12449254182E+00  0.32345725361E+01  0.40098778178E+01  0.51100000000E-03 0. -1.
        -11    1    3    3    0    0  0.29494890436E+02 -0.90265345721E+01  0.57019778263E+01  0.31367808970E+02  0.51100000000E-03 0.  1.
        -12    1    3    3    0    0  0.30834104508E+01 -0.64463229537E+01  0.13360223156E+02  0.15151173631E+02  0.00000000000E+00 0.  1.
</event>
<event>
 7    1  0.5946946E-013  0.5052886E+02  0.7816164E-02  0.1300439E+00
        -11   -1    0    0    0    0  0.00000000000E+00  0.00000000000E+00  0.45593999997E+02  0.45594000000E+02  0.51100000000E-03 0.  1.
         11   -1    0    0    0    0 -0.00000000000E+00 -0.00000000000E+00 -0.45593999997E+02  0.45594000000E+02  0.51100000000E-03 0. -1.
    9900012    2    1    2    0    0 -0.41371092818E+01 -0.12518935309E+02  0.38462009125E+02  0.50528861293E+02  0.30000004385E+02 0.  0.
         12    1    1    2    0    0  0.41371092818E+01  0.12518935309E+02 -0.38462009125E+02  0.40659138707E+02  0.00000000000E+00 0. -1.
         11    1    3    3    0    0  0.82814617869E+01 -0.51651045812E+01  0.19307144781E+02  0.21633926008E+02  0.51100000000E-03 0. -1.
        -11    1    3    3    0    0 -0.13565538085E+02 -0.25173942908E+01  0.19528045977E+02  0.23910367574E+02  0.51100000000E-03 0.  1.
         12    1    3    3    0    0  0.11469670162E+01 -0.48364364365E+01 -0.37318163265E+00  0.49845677116E+01  0.00000000000E+00 0. -1.
</event>
<event>
 7    1  0.5946946E-013  0.5052886E+02  0.7816164E-02  0.1300439E+00
        -11   -1    0    0    0    0  0.00000000000E+00  0.00000000000E+00  0.45593999997E+02  0.45594000000E+02  0.51100000000E-03 0.  1.
         11   -1    0    0    0    0 -0.00000000000E+00 -0.00000000000E+00 -0.45593999997E+02  0.45594000000E+02  0.51100000000E-03 0. -1.
    9900012    2    1    2    0    0 -0.23383414069E+02  0.98923180004E+01  0.31757256584E+02  0.50528863823E+02  0.30000012076E+02 0.  0.
         12    1    1    2    0    0  0.23383414069E+02 -0.98923180004E+01 -0.31757256584E+02  0.40659136177E+02  0.00000000000E+00 0. -1.
         11    1    3    3    0    0 -0.44342601966E+01  0.31064338145E+01 -0.45431850641E+01  0.70677524945E+01  0.51100000000E-03 0. -1.
        -11    1    3    3    0    0 -0.17778551079E+02  0.38956866159E+01  0.20749582895E+02  0.27600696427E+02  0.51100000000E-03 0.  1.
         12    1    3    3    0    0 -0.11706027939E+01  0.28901975700E+01  0.15550858753E+02  0.15860414902E+02  0.00000000000E+00 0. -1.
</event>
<event>
 7    1  0.5946946E-013  0.5052886E+02  0.7816164E-02  0.1300439E+00
        -11   -1    0    0    0    0  0.00000000000E+00  0.00000000000E+00  0.45593999997E+02  0.45594000000E+02  0.51100000000E-03 0.  1.
         11   -1    0    0    0    0 -0.00000000000E+00 -0.00000000000E+00 -0.45593999997E+02  0.45594000000E+02  0.51100000000E-03 0. -1.
    9900012    2    1    2    0    0 -0.20079669661E+02 -0.34617598449E+02 -0.71829155420E+01  0.50528861645E+02  0.30000005457E+02 0.  0.
         12    1    1    2    0    0  0.20079669661E+02  0.34617598449E+02  0.71829155420E+01  0.40659138355E+02  0.00000000000E+00 0. -1.
         11    1    3    3    0    0  0.39426568747E+01 -0.21811123031E+01 -0.43631661499E+01  0.62720820485E+01  0.51100000000E-03 0. -1.
        -11    1    3    3    0    0 -0.19977713873E+02 -0.20270694631E+02  0.54810416732E+01  0.28983649365E+02  0.51100000000E-03 0.  1.
         12    1    3    3    0    0 -0.40446126629E+01 -0.12165791515E+02 -0.83007910653E+01  0.15273130232E+02  0.00000000000E+00 0. -1.
</event>
<event>
 7    1  0.5946946E-013  0.5052886E+02  0.7816164E-02  0.1300439E+00
        -11   -1    0    0    0    0  0.00000000000E+00  0.00000000000E+00  0.45593999997E+02  0.45594000000E+02  0.51100000000E-03 0.  1.
         11   -1    0    0    0    0 -0.00000000000E+00 -0.00000000000E+00 -0.45593999997E+02  0.45594000000E+02  0.51100000000E-03 0. -1.
    9900012    2    1    2    0    0 -0.65399235201E+01  0.15794928769E+01  0.40098631746E+02  0.50528860003E+02  0.30000000464E+02 0.  0.
         12    1    1    2    0    0  0.65399235201E+01 -0.15794928769E+01 -0.40098631746E+02  0.40659139997E+02  0.00000000000E+00 0. -1.
         11    1    3    3    0    0  0.44471765069E+01  0.68489659297E+01  0.41166764954E+01  0.91450937020E+01  0.51100000000E-03 0. -1.
        -11    1    3    3    0    0 -0.14508827526E+02 -0.74098293922E+01  0.29591737710E+02  0.33779913984E+02  0.51100000000E-03 0.  1.
        -12    1    3    3    0    0  0.35217274988E+01  0.21403563394E+01  0.63902175406E+01  0.76038523166E+01  0.00000000000E+00 0.  1.
</event>
<event>
 7    1  0.5946946E-013  0.5052871E+02  0.7816164E-02  0.1300439E+00
        -11   -1    0    0    0    0  0.00000000000E+00  0.00000000000E+00  0.45593999997E+02  0.45594000000E+02  0.51100000000E-03 0.  1.
         11   -1    0    0    0    0 -0.00000000000E+00 -0.00000000000E+00 -0.45593999997E+02  0.45594000000E+02  0.51100000000E-03 0. -1.
    9900012    2    1    2    0    0 -0.38588128640E+02  0.79013641841E+01 -0.10084755785E+02  0.50528714134E+02  0.29999557079E+02 0.  0.
         12    1    1    2    0    0  0.38588128640E+02 -0.79013641841E+01  0.10084755785E+02  0.40659285866E+02  0.00000000000E+00 0. -1.
         11    1    3    3    0    0 -0.12232073659E+02 -0.66780865274E+01 -0.12546808319E+02  0.18752142942E+02  0.51100000000E-03 0. -1.
        -11    1    3    3    0    0 -0.20869632107E+02  0.75550293008E+01 -0.99299487068E+00  0.22217246703E+02  0.51100000000E-03 0.  1.
         12    1    3    3    0    0 -0.54864228739E+01  0.70244214107E+01  0.34550474048E+01  0.95593244885E+01  0.00000000000E+00 0. -1.
</event>
<event>
 7    1  0.5946946E-013  0.5052886E+02  0.7816164E-02  0.1300439E+00
        -11   -1    0    0    0    0  0.00000000000E+00  0.00000000000E+00  0.45593999997E+02  0.45594000000E+02  0.51100000000E-03 0. -1.
         11   -1    0    0    0    0 -0.00000000000E+00 -0.00000000000E+00 -0.45593999997E+02  0.45594000000E+02  0.51100000000E-03 0.  1.
    9900012    2    1    2    0    0 -0.24135497520E+00 -0.39952097524E+02 -0.75456622898E+01  0.50528863657E+02  0.30000011572E+02 0.  0.
         12    1    1    2    0    0  0.24135497520E+00  0.39952097524E+02  0.75456622898E+01  0.40659136343E+02  0.00000000000E+00 0. -1.
         11    1    3    3    0    0 -0.16218816880E+01 -0.23699127016E+02 -0.15990705472E+02  0.28635324047E+02  0.51100000000E-03 0. -1.
        -11    1    3    3    0    0 -0.51286058119E+01 -0.63680650154E+01  0.20024645900E+01  0.84181182167E+01  0.51100000000E-03 0.  1.
         12    1    3    3    0    0  0.65091325247E+01 -0.98849054923E+01  0.64425785919E+01  0.13475421393E+02  0.00000000000E+00 0. -1.
</event>
<event>
 7    1  0.5946946E-013  0.5052887E+02  0.7816164E-02  0.1300439E+00
        -11   -1    0    0    0    0  0.00000000000E+00  0.00000000000E+00  0.45593999997E+02  0.45594000000E+02  0.51100000000E-03 0.  1.
         11   -1    0    0    0    0 -0.00000000000E+00 -0.00000000000E+00 -0.45593999997E+02  0.45594000000E+02  0.51100000000E-03 0. -1.
    9900012    2    1    2    0    0 -0.10253044091E+02  0.22711728695E+02  0.32128143986E+02  0.50528866101E+02  0.30000019000E+02 0.  0.
         12    1    1    2    0    0  0.10253044091E+02 -0.22711728695E+02 -0.32128143986E+02  0.40659133899E+02  0.00000000000E+00 0. -1.
         11    1    3    3    0    0 -0.77982052975E+01  0.61408502571E+01  0.69489255888E+01  0.12116501758E+02  0.51100000000E-03 0. -1.
        -11    1    3    3    0    0  0.12445293812E+01 -0.54091642147E+01  0.12093745903E+01  0.56807128111E+01  0.51100000000E-03 0.  1.
        -12    1    3    3    0    0 -0.36993681748E+01  0.21980042653E+02  0.23969843807E+02  0.32731651532E+02  0.00000000000E+00 0.  1.
</event>
<event>
 7    1  0.5946946E-013  0.5052886E+02  0.7816164E-02  0.1300439E+00
        -11   -1    0    0    0    0  0.00000000000E+00  0.00000000000E+00  0.45593999997E+02  0.45594000000E+02  0.51100000000E-03 0. -1.
         11   -1    0    0    0    0 -0.00000000000E+00 -0.00000000000E+00 -0.45593999997E+02  0.45594000000E+02  0.51100000000E-03 0.  1.
    9900012    2    1    2    0    0 -0.31998059349E+02 -0.13400808688E+02 -0.21206325587E+02  0.50528859325E+02  0.29999998403E+02 0.  0.
         12    1    1    2    0    0  0.31998059349E+02  0.13400808688E+02  0.21206325587E+02  0.40659140675E+02  0.00000000000E+00 0. -1.
         11    1    3    3    0    0 -0.64675835226E+01  0.66541093285E+00 -0.44623551602E+01  0.78857480412E+01  0.51100000000E-03 0. -1.
        -11    1    3    3    0    0 -0.32736527049E+01  0.29345351576E+01  0.53829071510E+01  0.69501070697E+01  0.51100000000E-03 0.  1.
        -12    1    3    3    0    0 -0.22256823121E+02 -0.17000754778E+02 -0.22126877577E+02  0.35693004214E+02  0.00000000000E+00 0.  1.
</event>
<event>
 7    1  0.5946946E-013  0.5052885E+02  0.7816164E-02  0.1300439E+00
        -11   -1    0    0    0    0  0.00000000000E+00  0.00000000000E+00  0.45593999997E+02  0.45594000000E+02  0.51100000000E-03 0.  1.
         11   -1    0    0    0    0 -0.00000000000E+00 -0.00000000000E+00 -0.45593999997E+02  0.45594000000E+02  0.51100000000E-03 0. -1.
    9900012    2    1    2    0    0  0.34362850808E+02 -0.11537093717E+02  0.18418914522E+02  0.50528850240E+02  0.29999970789E+02 0.  0.
         12    1    1    2    0    0 -0.34362850808E+02  0.11537093717E+02 -0.18418914522E+02  0.40659149760E+02  0.00000000000E+00 0. -1.
         11    1    3    3    0    0  0.14224287510E+01 -0.45718862015E+00 -0.37544151951E+01  0.40407868917E+01  0.51100000000E-03 0.  1.
        -11    1    3    3    0    0  0.29475832336E+02 -0.45126525928E+00  0.13969088675E+02  0.32621523124E+02  0.51100000000E-03 0. -1.
        -12    1    3    3    0    0  0.34645897203E+01 -0.10628639837E+02  0.82042410421E+01  0.13866540225E+02  0.00000000000E+00 0.  1.
</event>
<event>
 7    1  0.5946946E-013  0.5052892E+02  0.7816164E-02  0.1300439E+00
        -11   -1    0    0    0    0  0.00000000000E+00  0.00000000000E+00  0.45593999997E+02  0.45594000000E+02  0.51100000000E-03 0. -1.
         11   -1    0    0    0    0 -0.00000000000E+00 -0.00000000000E+00 -0.45593999997E+02  0.45594000000E+02  0.51100000000E-03 0.  1.
    9900012    2    1    2    0    0  0.22889099377E+02 -0.32367624364E+02 -0.90325393593E+01  0.50528920515E+02  0.30000184398E+02 0.  0.
         12    1    1    2    0    0 -0.22889099377E+02  0.32367624364E+02  0.90325393593E+01  0.40659079485E+02  0.00000000000E+00 0. -1.
         11    1    3    3    0    0  0.46054356528E+01  0.36477721876E+01 -0.75059127745E+01  0.95317892510E+01  0.51100000000E-03 0. -1.
        -11    1    3    3    0    0  0.16603124806E+02 -0.29031611929E+02  0.77902430885E+00  0.33453028618E+02  0.51100000000E-03 0.  1.
         12    1    3    3    0    0  0.16805389182E+01 -0.69837846220E+01 -0.23056508936E+01  0.75441026467E+01  0.00000000000E+00 0. -1.
</event>
<event>
 7    1  0.5946946E-013  0.5052885E+02  0.7816164E-02  0.1300439E+00
        -11   -1    0    0    0    0  0.00000000000E+00  0.00000000000E+00  0.45593999997E+02  0.45594000000E+02  0.51100000000E-03 0.  1.
         11   -1    0    0    0    0 -0.00000000000E+00 -0.00000000000E+00 -0.45593999997E+02  0.45594000000E+02  0.51100000000E-03 0. -1.
    9900012    2    1    2    0    0  0.58580736104E+01  0.50822193845E+01  0.39912658890E+02  0.50528851953E+02  0.29999975995E+02 0.  0.
         12    1    1    2    0    0 -0.58580736104E+01 -0.50822193845E+01 -0.39912658890E+02  0.40659148047E+02  0.00000000000E+00 0. -1.
         11    1    3    3    0    0 -0.44286106498E+01  0.10673760508E+02  0.15865055053E+02  0.19627575698E+02  0.51100000000E-03 0. -1.
        -11    1    3    3    0    0  0.87623635647E+01 -0.55373252231E+01  0.45096749690E+01  0.11303899967E+02  0.51100000000E-03 0.  1.
         12    1    3    3    0    0  0.15243206955E+01 -0.54215900617E-01  0.19537928867E+02  0.19597376288E+02  0.00000000000E+00 0. -1.
</event>
<event>
 7    1  0.5946946E-013  0.5052888E+02  0.7816164E-02  0.1300439E+00
        -11   -1    0    0    0    0  0.00000000000E+00  0.00000000000E+00  0.45593999997E+02  0.45594000000E+02  0.51100000000E-03 0.  1.
         11   -1    0    0    0    0 -0.00000000000E+00 -0.00000000000E+00 -0.45593999997E+02  0.45594000000E+02  0.51100000000E-03 0. -1.
    9900012    2    1    2    0    0 -0.38611745881E+02  0.98970734789E+01 -0.80215203985E+01  0.50528883274E+02  0.30000071199E+02 0.  0.
         12    1    1    2    0    0  0.38611745881E+02 -0.98970734789E+01  0.80215203985E+01  0.40659116726E+02  0.00000000000E+00 0. -1.
         11    1    3    3    0    0 -0.65435061432E+01 -0.48014380673E+01  0.20823116604E+01  0.83789797871E+01  0.51100000000E-03 0. -1.
        -11    1    3    3    0    0 -0.35116891865E+02  0.13560625182E+02 -0.96755017469E+01  0.38867749921E+02  0.51100000000E-03 0.  1.
        -12    1    3    3    0    0  0.30486521274E+01  0.11378863642E+01 -0.42833031197E+00  0.32821535655E+01  0.00000000000E+00 0.  1.
</event>
<event>
 7    1  0.5946946E-013  0.5052886E+02  0.7816164E-02  0.1300439E+00
        -11   -1    0    0    0    0  0.00000000000E+00  0.00000000000E+00  0.45593999997E+02  0.45594000000E+02  0.51100000000E-03 0.  1.
         11   -1    0    0    0    0 -0.00000000000E+00 -0.00000000000E+00 -0.45593999997E+02  0.45594000000E+02  0.51100000000E-03 0. -1.
    9900012    2    1    2    0    0 -0.25299566810E+02  0.29894426637E+02  0.10927991159E+02  0.50528858156E+02  0.29999994851E+02 0.  0.
         12    1    1    2    0    0  0.25299566810E+02 -0.29894426637E+02 -0.10927991159E+02  0.40659141844E+02  0.00000000000E+00 0. -1.
         11    1    3    3    0    0  0.36215086853E+01  0.42066819535E+01 -0.40608573538E+01  0.68776493749E+01  0.51100000000E-03 0. -1.
        -11    1    3    3    0    0 -0.21927363248E+02  0.17957120014E+02  0.42047758918E+01  0.28652182443E+02  0.51100000000E-03 0.  1.
         12    1    3    3    0    0 -0.69937122472E+01  0.77306246692E+01  0.10784072621E+02  0.14999026338E+02  0.00000000000E+00 0. -1.
</event>
<event>
 7    1  0.5946946E-013  0.5052886E+02  0.7816164E-02  0.1300439E+00
        -11   -1    0    0    0    0  0.00000000000E+00  0.00000000000E+00  0.45593999997E+02  0.45594000000E+02  0.51100000000E-03 0. -1.
         11   -1    0    0    0    0 -0.00000000000E+00 -0.00000000000E+00 -0.45593999997E+02  0.45594000000E+02  0.51100000000E-03 0.  1.
    9900012    2    1    2    0    0 -0.19924280422E+02  0.61669179239E+01 -0.34902122073E+02  0.50528856474E+02  0.29999989739E+02 0.  0.
         12    1    1    2    0    0  0.19924280422E+02 -0.61669179239E+01  0.34902122073E+02  0.40659143526E+02  0.00000000000E+00 0. -1.
         11    1    3    3    0    0  0.23542804787E+01 -0.39876324305E+01  0.18477584468E+01  0.49857858470E+01  0.51100000000E-03 0. -1.
        -11    1    3    3    0    0 -0.19175523842E+02  0.11837313956E+02 -0.34938517042E+02  0.41575505885E+02  0.51100000000E-03 0.  1.
        -12    1    3    3    0    0 -0.31030370594E+01 -0.16827636013E+01 -0.18113634785E+01  0.39675647419E+01  0.00000000000E+00 0.  1.
</event>
<event>
 7    1  0.5946946E-013  0.5052887E+02  0.7816164E-02  0.1300439E+00
        -11   -1    0    0    0    0  0.00000000000E+00  0.00000000000E+00  0.45593999997E+02  0.45594000000E+02  0.51100000000E-03 0.  1.
         11   -1    0    0    0    0 -0.00000000000E+00 -0.00000000000E+00 -0.45593999997E+02  0.45594000000E+02  0.51100000000E-03 0. -1.
    9900012    2    1    2    0    0  0.18663262159E+02  0.92616708100E+01  0.34915169073E+02  0.50528869020E+02  0.30000027874E+02 0.  0.
         12    1    1    2    0    0 -0.18663262159E+02 -0.92616708100E+01 -0.34915169073E+02  0.40659130980E+02  0.00000000000E+00 0. -1.
         11    1    3    3    0    0  0.71642761031E+01  0.11595603158E+02  0.76372487148E+01  0.15624097826E+02  0.51100000000E-03 0. -1.
        -11    1    3    3    0    0 -0.54583731638E+00  0.27772419302E+00  0.21117158551E+02  0.21126037363E+02  0.51100000000E-03 0.  1.
         12    1    3    3    0    0  0.12044823372E+02 -0.26116565414E+01  0.61607618072E+01  0.13778733832E+02  0.00000000000E+00 0. -1.
</event>
<event>
 7    1  0.5946946E-013  0.5052884E+02  0.7816164E-02  0.1300439E+00
        -11   -1    0    0    0    0  0.00000000000E+00  0.00000000000E+00  0.45593999997E+02  0.45594000000E+02  0.51100000000E-03 0. -1.
         11   -1    0    0    0    0 -0.00000000000E+00 -0.00000000000E+00 -0.45593999997E+02  0.45594000000E+02  0.51100000000E-03 0.  1.
    9900012    2    1    2    0    0 -0.14963448925E+01 -0.34341845050E+02 -0.21715575871E+02  0.50528836151E+02  0.29999927964E+02 0.  0.
         12    1    1    2    0    0  0.14963448925E+01  0.34341845050E+02  0.21715575871E+02  0.40659163849E+02  0.00000000000E+00 0. -1.
         11    1    3    3    0    0  0.42729838666E+01 -0.97857702821E+01  0.16738391265E+01  0.10808396219E+02  0.51100000000E-03 0. -1.
        -11    1    3    3    0    0 -0.12177391139E+02 -0.10840863988E+02 -0.81020735326E+01  0.18205954596E+02  0.51100000000E-03 0.  1.
        -12    1    3    3    0    0  0.64080623800E+01 -0.13715210780E+02 -0.15287341465E+02  0.21514485336E+02  0.00000000000E+00 0.  1.
</event>
<event>
 7    1  0.5946946E-013  0.5052885E+02  0.7816164E-02  0.1300439E+00
        -11   -1    0    0    0    0  0.00000000000E+00  0.00000000000E+00  0.45593999997E+02  0.45594000000E+02  0.51100000000E-03 0.  1.
         11   -1    0    0    0    0 -0.00000000000E+00 -0.00000000000E+00 -0.45593999997E+02  0.45594000000E+02  0.51100000000E-03 0. -1.
    9900012    2    1    2    0    0  0.26637238195E+02 -0.26594157213E+02  0.15374494801E+02  0.50528846702E+02  0.29999960036E+02 0.  0.
         12    1    1    2    0    0 -0.26637238195E+02  0.26594157213E+02 -0.15374494801E+02  0.40659153298E+02  0.00000000000E+00 0. -1.
         11    1    3    3    0    0  0.17772760199E+02 -0.96307883127E+01 -0.56885315870E+01  0.20999582864E+02  0.51100000000E-03 0. -1.
        -11    1    3    3    0    0  0.67788900965E+01 -0.47871057669E+01  0.75323173788E+01  0.11207387649E+02  0.51100000000E-03 0.  1.
         12    1    3    3    0    0  0.20855878996E+01 -0.12176263133E+02  0.13530709010E+02  0.18321876189E+02  0.00000000000E+00 0. -1.
</event>
<event>
 7    1  0.5946946E-013  0.5052886E+02  0.7816164E-02  0.1300439E+00
        -11   -1    0    0    0    0  0.00000000000E+00  0.00000000000E+00  0.45593999997E+02  0.45594000000E+02  0.51100000000E-03 0.  1.
         11   -1    0    0    0    0 -0.00000000000E+00 -0.00000000000E+00 -0.45593999997E+02  0.45594000000E+02  0.51100000000E-03 0. -1.
    9900012    2    1    2    0    0  0.21074892489E+02  0.32980041626E+02  0.11015048402E+02  0.50528861662E+02  0.30000005508E+02 0.  0.
         12    1    1    2    0    0 -0.21074892489E+02 -0.32980041626E+02 -0.11015048402E+02  0.40659138338E+02  0.00000000000E+00 0. -1.
         11    1    3    3    0    0 -0.25981636592E+01  0.38876983622E+01 -0.68658672876E+00  0.47261035275E+01  0.51100000000E-03 0. -1.
        -11    1    3    3    0    0  0.17383545351E+02  0.45192263306E+01  0.22702813472E+00  0.17962811518E+02  0.51100000000E-03 0.  1.
        -12    1    3    3    0    0  0.62895107965E+01  0.24573116933E+02  0.11474606996E+02  0.27839946616E+02  0.00000000000E+00 0.  1.
</event>
<event>
 7    1  0.5946946E-013  0.5052885E+02  0.7816164E-02  0.1300439E+00
        -11   -1    0    0    0    0  0.00000000000E+00  0.00000000000E+00  0.45593999997E+02  0.45594000000E+02  0.51100000000E-03 0. -1.
         11   -1    0    0    0    0 -0.00000000000E+00 -0.00000000000E+00 -0.45593999997E+02  0.45594000000E+02  0.51100000000E-03 0.  1.
    9900012    2    1    2    0    0 -0.59531297752E+01  0.39655441805E+02  0.67210384997E+01  0.50528853706E+02  0.29999981324E+02 0.  0.
         12    1    1    2    0    0  0.59531297752E+01 -0.39655441805E+02 -0.67210384997E+01  0.40659146294E+02  0.00000000000E+00 0. -1.
         11    1    3    3    0    0  0.33691168950E+01  0.19616429270E+02 -0.31407144555E+01  0.20149921427E+02  0.51100000000E-03 0. -1.
        -11    1    3    3    0    0 -0.14945246167E+02  0.13925476898E+02  0.70373874735E+01  0.21605650014E+02  0.51100000000E-03 0.  1.
        -12    1    3    3    0    0  0.56229994966E+01  0.61135356362E+01  0.28243654818E+01  0.87732822643E+01  0.00000000000E+00 0.  1.
</event>
<event>
 7    1  0.5946946E-013  0.5052887E+02  0.7816164E-02  0.1300439E+00
        -11   -1    0    0    0    0  0.00000000000E+00  0.00000000000E+00  0.45593999997E+02  0.45594000000E+02  0.51100000000E-03 0.  1.
         11   -1    0    0    0    0 -0.00000000000E+00 -0.00000000000E+00 -0.45593999997E+02  0.45594000000E+02  0.51100000000E-03 0. -1.
    9900012    2    1    2    0    0 -0.30860432551E+02  0.23846000707E+02  0.11496379365E+02  0.50528870823E+02  0.30000033353E+02 0.  0.
         12    1    1    2    0    0  0.30860432551E+02 -0.23846000707E+02 -0.11496379365E+02  0.40659129177E+02  0.00000000000E+00 0. -1.
         11    1    3    3    0    0 -0.82629562725E+01  0.13499926328E+02 -0.79616435014E+01  0.17717568251E+02  0.51100000000E-03 0. -1.
        -11    1    3    3    0    0 -0.16083395448E+02  0.10118046314E+02  0.10428432147E+02  0.21674931779E+02  0.51100000000E-03 0.  1.
         12    1    3    3    0    0 -0.65140808305E+01  0.22802806505E+00  0.90295907196E+01  0.11136370792E+02  0.00000000000E+00 0. -1.
</event>
<event>
 7    1  0.5946946E-013  0.5052887E+02  0.7816164E-02  0.1300439E+00
        -11   -1    0    0    0    0  0.00000000000E+00  0.00000000000E+00  0.45593999997E+02  0.45594000000E+02  0.51100000000E-03 0. -1.
         11   -1    0    0    0    0 -0.00000000000E+00 -0.00000000000E+00 -0.45593999997E+02  0.45594000000E+02  0.51100000000E-03 0.  1.
    9900012    2    1    2    0    0 -0.13886809138E+02  0.14929067508E+02 -0.35177331845E+02  0.50528865720E+02  0.30000017842E+02 0.  0.
         12    1    1    2    0    0  0.13886809138E+02 -0.14929067508E+02  0.35177331845E+02  0.40659134280E+02  0.00000000000E+00 0. -1.
         11    1    3    3    0    0 -0.12943867026E+01  0.11242968064E+02 -0.68629944202E+01  0.13235575563E+02  0.51100000000E-03 0. -1.
        -11    1    3    3    0    0 -0.65995203035E+01 -0.50782253783E+01 -0.24718659265E+02  0.26083599394E+02  0.51100000000E-03 0.  1.
        -12    1    3    3    0    0 -0.59929021323E+01  0.87643248221E+01 -0.35956781595E+01  0.11209690762E+02  0.00000000000E+00 0.  1.
</event>
<event>
 7    1  0.5946946E-013  0.5052887E+02  0.7816164E-02  0.1300439E+00
        -11   -1    0    0    0    0  0.00000000000E+00  0.00000000000E+00  0.45593999997E+02  0.45594000000E+02  0.51100000000E-03 0. -1.
         11   -1    0    0    0    0 -0.00000000000E+00 -0.00000000000E+00 -0.45593999997E+02  0.45594000000E+02  0.51100000000E-03 0.  1.
    9900012    2    1    2    0    0  0.36219352350E+02  0.74183429956E+01 -0.16920142059E+02  0.50528874275E+02  0.30000043846E+02 0.  0.
         12    1    1    2    0    0 -0.36219352350E+02 -0.74183429956E+01  0.16920142059E+02  0.40659125725E+02  0.00000000000E+00 0. -1.
         11    1    3    3    0    0 -0.35715877306E+01  0.19091348146E+01 -0.29682520711E+01  0.50211109603E+01  0.51100000000E-03 0. -1.
        -11    1    3    3    0    0  0.21068015826E+02 -0.45481540904E+01 -0.10504110988E+02  0.23976725055E+02  0.51100000000E-03 0.  1.
         12    1    3    3    0    0  0.18722924254E+02  0.10057362271E+02 -0.34477790004E+01  0.21531038259E+02  0.00000000000E+00 0. -1.
</event>
<event>
 7    1  0.5946946E-013  0.5052885E+02  0.7816164E-02  0.1300439E+00
        -11   -1    0    0    0    0  0.00000000000E+00  0.00000000000E+00  0.45593999997E+02  0.45594000000E+02  0.51100000000E-03 0.  1.
         11   -1    0    0    0    0 -0.00000000000E+00 -0.00000000000E+00 -0.45593999997E+02  0.45594000000E+02  0.51100000000E-03 0. -1.
    9900012    2    1    2    0    0 -0.12649235280E+02 -0.35654504124E+02 -0.14896963429E+02  0.50528851744E+02  0.29999975361E+02 0.  0.
         12    1    1    2    0    0  0.12649235280E+02  0.35654504124E+02  0.14896963429E+02  0.40659148256E+02  0.00000000000E+00 0. -1.
         11    1    3    3    0    0 -0.44746541066E+01 -0.13812988236E+02 -0.13488317476E+02  0.19818069583E+02  0.51100000000E-03 0. -1.
        -11    1    3    3    0    0 -0.11612688186E+02 -0.42094202743E+01  0.17359470479E+01  0.12473462164E+02  0.51100000000E-03 0.  1.
        -12    1    3    3    0    0  0.34381070126E+01 -0.17632095613E+02 -0.31445930016E+01  0.18237319997E+02  0.00000000000E+00 0.  1.
</event>
<event>
 7    1  0.5946946E-013  0.5052887E+02  0.7816164E-02  0.1300439E+00
        -11   -1    0    0    0    0  0.00000000000E+00  0.00000000000E+00  0.45593999997E+02  0.45594000000E+02  0.51100000000E-03 0.  1.
         11   -1    0    0    0    0 -0.00000000000E+00 -0.00000000000E+00 -0.45593999997E+02  0.45594000000E+02  0.51100000000E-03 0. -1.
    9900012    2    1    2    0    0 -0.24497360835E+02  0.16270360710E+02  0.28077027050E+02  0.50528870970E+02  0.30000033802E+02 0.  0.
         12    1    1    2    0    0  0.24497360835E+02 -0.16270360710E+02 -0.28077027050E+02  0.40659129030E+02  0.00000000000E+00 0. -1.
         11    1    3    3    0    0 -0.25573971707E+02  0.72088911263E+01  0.23378778616E+02  0.35391572866E+02  0.51100000000E-03 0. -1.
        -11    1    3    3    0    0 -0.17138684283E+01  0.10474704317E+02  0.15986294472E+01  0.10733703549E+02  0.51100000000E-03 0.  1.
         12    1    3    3    0    0  0.27904793006E+01 -0.14132347335E+01  0.30996189869E+01  0.44035945548E+01  0.00000000000E+00 0. -1.
</event>
<event>
 7    1  0.5946946E-013  0.5052885E+02  0.7816164E-02  0.1300439E+00
        -11   -1    0    0    0    0  0.00000000000E+00  0.00000000000E+00  0.45593999997E+02  0.45594000000E+02  0.51100000000E-03 0.  1.
         11   -1    0    0    0    0 -0.00000000000E+00 -0.00000000000E+00 -0.45593999997E+02  0.45594000000E+02  0.51100000000E-03 0. -1.
    9900012    2    1    2    0    0  0.33590650311E+02 -0.21167478236E+02  0.87620178771E+01  0.50528845059E+02  0.29999955042E+02 0.  0.
         12    1    1    2    0    0 -0.33590650311E+02  0.21167478236E+02 -0.87620178771E+01  0.40659154941E+02  0.00000000000E+00 0. -1.
         11    1    3    3    0    0  0.16868157804E+01 -0.13251230327E+02  0.40480644900E+01  0.13958054271E+02  0.51100000000E-03 0. -1.
        -11    1    3    3    0    0  0.30759608256E+02 -0.90012740141E+01  0.48049903531E+00  0.32053195060E+02  0.51100000000E-03 0.  1.
         12    1    3    3    0    0  0.11442262749E+01  0.10850261056E+01  0.42334543518E+01  0.45175957285E+01  0.00000000000E+00 0. -1.
</event>
<event>
 7    1  0.5946946E-013  0.5052885E+02  0.7816164E-02  0.1300439E+00
        -11   -1    0    0    0    0  0.00000000000E+00  0.00000000000E+00  0.45593999997E+02  0.45594000000E+02  0.51100000000E-03 0.  1.
         11   -1    0    0    0    0 -0.00000000000E+00 -0.00000000000E+00 -0.45593999997E+02  0.45594000000E+02  0.51100000000E-03 0. -1.
    9900012    2    1    2    0    0  0.25280481017E+02  0.18266836584E+02  0.26084222510E+02  0.50528847240E+02  0.29999961671E+02 0.  0.
         12    1    1    2    0    0 -0.25280481017E+02 -0.18266836584E+02 -0.26084222510E+02  0.40659152760E+02  0.00000000000E+00 0. -1.
         11    1    3    3    0    0 -0.66931820188E+00 -0.50164830431E+01  0.19591327697E+01  0.54269043154E+01  0.51100000000E-03 0. -1.
        -11    1    3    3    0    0  0.85077320081E+01  0.83710121107E+01  0.17562225180E+02  0.21234102317E+02  0.51100000000E-03 0.  1.
         12    1    3    3    0    0  0.17442067211E+02  0.14912307516E+02  0.65628645603E+01  0.23867840608E+02  0.00000000000E+00 0. -1.
</event>
<event>
 7    1  0.5946946E-013  0.5052886E+02  0.7816164E-02  0.1300439E+00
        -11   -1    0    0    0    0  0.00000000000E+00  0.00000000000E+00  0.45593999997E+02  0.45594000000E+02  0.51100000000E-03 0. -1.
         11   -1    0    0    0    0 -0.00000000000E+00 -0.00000000000E+00 -0.45593999997E+02  0.45594000000E+02  0.51100000000E-03 0.  1.
    9900012    2    1    2    0    0 -0.14785130324E+02  0.37821581923E+02  0.20231731691E+01  0.50528863665E+02  0.30000011597E+02 0.  0.
         12    1    1    2    0    0  0.14785130324E+02 -0.37821581923E+02 -0.20231731691E+01  0.40659136335E+02  0.00000000000E+00 0. -1.
         11    1    3    3    0    0 -0.59223826024E+00  0.19740292080E+02  0.13683436552E+02  0.24026367052E+02  0.51100000000E-03 0. -1.
        -11    1    3    3    0    0 -0.13805970691E+02  0.18249858073E+02 -0.10330560021E+02  0.25107421553E+02  0.51100000000E-03 0.  1.
         12    1    3    3    0    0 -0.38692137217E+00 -0.16856823032E+00 -0.13297033614E+01  0.13950750610E+01  0.00000000000E+00 0. -1.
</event>
<event>
 7    1  0.5946946E-013  0.5052886E+02  0.7816164E-02  0.1300439E+00
        -11   -1    0    0    0    0  0.00000000000E+00  0.00000000000E+00  0.45593999997E+02  0.45594000000E+02  0.51100000000E-03 0. -1.
         11   -1    0    0    0    0 -0.00000000000E+00 -0.00000000000E+00 -0.45593999997E+02  0.45594000000E+02  0.51100000000E-03 0.  1.
    9900012    2    1    2    0    0 -0.15419918475E+02  0.27780297335E+02 -0.25370194206E+02  0.50528861300E+02  0.30000004407E+02 0.  0.
         12    1    1    2    0    0  0.15419918475E+02 -0.27780297335E+02  0.25370194206E+02  0.40659138700E+02  0.00000000000E+00 0. -1.
         11    1    3    3    0    0  0.25119619717E+01  0.48694409255E+01 -0.14380121202E+02  0.15388609226E+02  0.51100000000E-03 0. -1.
        -11    1    3    3    0    0 -0.20838081529E+02  0.19590877427E+02 -0.11217013744E+02  0.30722134004E+02  0.51100000000E-03 0.  1.
        -12    1    3    3    0    0  0.29062010826E+01  0.33199789828E+01  0.22694074024E+00  0.44181180697E+01  0.00000000000E+00 0.  1.
</event>
<event>
 7    1  0.5946946E-013  0.5052886E+02  0.7816164E-02  0.1300439E+00
        -11   -1    0    0    0    0  0.00000000000E+00  0.00000000000E+00  0.45593999997E+02  0.45594000000E+02  0.51100000000E-03 0.  1.
         11   -1    0    0    0    0 -0.00000000000E+00 -0.00000000000E+00 -0.45593999997E+02  0.45594000000E+02  0.51100000000E-03 0. -1.
    9900012    2    1    2    0    0 -0.60261700684E+01  0.31097915837E+02  0.25490598889E+02  0.50528859247E+02  0.29999998166E+02 0.  0.
         12    1    1    2    0    0  0.60261700684E+01 -0.31097915837E+02 -0.25490598889E+02  0.40659140753E+02  0.00000000000E+00 0. -1.
         11    1    3    3    0    0 -0.16428891411E+02  0.20318604643E+02  0.12062331957E+02  0.28779402706E+02  0.51100000000E-03 0. -1.
        -11    1    3    3    0    0  0.27081847758E+01  0.84818927789E+01  0.55034707104E+01  0.10467328218E+02  0.51100000000E-03 0.  1.
         12    1    3    3    0    0  0.76945365663E+01  0.22974184151E+01  0.79247962210E+01  0.11282128323E+02  0.00000000000E+00 0. -1.
</event>
<event>
 7    1  0.5946946E-013  0.5052887E+02  0.7816164E-02  0.1300439E+00
        -11   -1    0    0    0    0  0.00000000000E+00  0.00000000000E+00  0.45593999997E+02  0.45594000000E+02  0.51100000000E-03 0. -1.
         11   -1    0    0    0    0 -0.00000000000E+00 -0.00000000000E+00 -0.45593999997E+02  0.45594000000E+02  0.51100000000E-03 0.  1.
    9900012    2    1    2    0    0  0.20107005875E+02  0.22707788175E+02 -0.27078206162E+02  0.50528873374E+02  0.30000041108E+02 0.  0.
         12    1    1    2    0    0 -0.20107005875E+02 -0.22707788175E+02  0.27078206162E+02  0.40659126626E+02  0.00000000000E+00 0. -1.
         11    1    3    3    0    0 -0.42655994187E+01  0.16584245460E+01  0.24261049459E+01  0.51799320309E+01  0.51100000000E-03 0. -1.
        -11    1    3    3    0    0  0.19925751144E+02  0.10140168739E+02 -0.22087453769E+02  0.31427920628E+02  0.51100000000E-03 0.  1.
         12    1    3    3    0    0  0.44468541491E+01  0.10909194890E+02 -0.74168573379E+01  0.13921020715E+02  0.00000000000E+00 0. -1.
</event>
<event>
 7    1  0.5946946E-013  0.5052886E+02  0.7816164E-02  0.1300439E+00
        -11   -1    0    0    0    0  0.00000000000E+00  0.00000000000E+00  0.45593999997E+02  0.45594000000E+02  0.51100000000E-03 0. -1.
         11   -1    0    0    0    0 -0.00000000000E+00 -0.00000000000E+00 -0.45593999997E+02  0.45594000000E+02  0.51100000000E-03 0.  1.
    9900012    2    1    2    0    0  0.19209963468E+00 -0.35342892469E+02 -0.20099967049E+02  0.50528860490E+02  0.30000001945E+02 0.  0.
         12    1    1    2    0    0 -0.19209963468E+00  0.35342892469E+02  0.20099967049E+02  0.40659139510E+02  0.00000000000E+00 0. -1.
         11    1    3    3    0    0  0.89402558097E+00 -0.17538057313E+02  0.41320021760E+01  0.18040404050E+02  0.51100000000E-03 0.  1.
        -11    1    3    3    0    0  0.38579295768E+01 -0.11016930616E+02 -0.20295764078E+02  0.23413124964E+02  0.51100000000E-03 0. -1.
         12    1    3    3    0    0 -0.45598555231E+01 -0.67879045402E+01 -0.39362051471E+01  0.90753314760E+01  0.00000000000E+00 0. -1.
</event>
<event>
 7    1  0.5946946E-013  0.5052884E+02  0.7816164E-02  0.1300439E+00
        -11   -1    0    0    0    0  0.00000000000E+00  0.00000000000E+00  0.45593999997E+02  0.45594000000E+02  0.51100000000E-03 0.  1.
         11   -1    0    0    0    0 -0.00000000000E+00 -0.00000000000E+00 -0.45593999997E+02  0.45594000000E+02  0.51100000000E-03 0. -1.
    9900012    2    1    2    0    0 -0.32961764556E+02 -0.20010887748E+02  0.12893945721E+02  0.50528838826E+02  0.29999936096E+02 0.  0.
         12    1    1    2    0    0  0.32961764556E+02  0.20010887748E+02 -0.12893945721E+02  0.40659161174E+02  0.00000000000E+00 0. -1.
         11    1    3    3    0    0 -0.11665996434E+01 -0.83281581310E+01 -0.14935543488E+01  0.85410700405E+01  0.51100000000E-03 0. -1.
        -11    1    3    3    0    0 -0.29740784637E+02 -0.11825857252E+02  0.50205179626E+01  0.32397079675E+02  0.51100000000E-03 0.  1.
        -12    1    3    3    0    0 -0.20543802756E+01  0.14312763473E+00  0.93669821068E+01  0.95906891111E+01  0.00000000000E+00 0.  1.
</event>
<event>
 7    1  0.5946946E-013  0.5052886E+02  0.7816164E-02  0.1300439E+00
        -11   -1    0    0    0    0  0.00000000000E+00  0.00000000000E+00  0.45593999997E+02  0.45594000000E+02  0.51100000000E-03 0. -1.
         11   -1    0    0    0    0 -0.00000000000E+00 -0.00000000000E+00 -0.45593999997E+02  0.45594000000E+02  0.51100000000E-03 0.  1.
    9900012    2    1    2    0    0 -0.57800236928E+01 -0.21366556029E+02 -0.34106115217E+02  0.50528862212E+02  0.30000007181E+02 0.  0.
         12    1    1    2    0    0  0.57800236928E+01  0.21366556029E+02  0.34106115217E+02  0.40659137788E+02  0.00000000000E+00 0. -1.
         11    1    3    3    0    0  0.52348971729E+01 -0.16778995107E+01 -0.32495301086E+01  0.63858391278E+01  0.51100000000E-03 0. -1.
        -11    1    3    3    0    0 -0.13580930351E+02 -0.10888532321E+02 -0.30319087646E+02  0.34960676212E+02  0.51100000000E-03 0.  1.
        -12    1    3    3    0    0  0.25660094848E+01 -0.88001241972E+01 -0.53749746289E+00  0.91823468724E+01  0.00000000000E+00 0.  1.
</event>
<event>
 7    1  0.5946946E-013  0.5052889E+02  0.7816164E-02  0.1300439E+00
        -11   -1    0    0    0    0  0.00000000000E+00  0.00000000000E+00  0.45593999997E+02  0.45594000000E+02  0.51100000000E-03 0. -1.
         11   -1    0    0    0    0 -0.00000000000E+00 -0.00000000000E+00 -0.45593999997E+02  0.45594000000E+02  0.51100000000E-03 0.  1.
    9900012    2    1    2    0    0 -0.35846934766E+02  0.18076119632E+02 -0.64354121775E+01  0.50528888315E+02  0.30000086523E+02 0.  0.
         12    1    1    2    0    0  0.35846934766E+02 -0.18076119632E+02  0.64354121775E+01  0.40659111685E+02  0.00000000000E+00 0. -1.
         11    1    3    3    0    0 -0.10263818181E+02  0.14686497225E+02  0.33944896730E+01  0.18236274970E+02  0.51100000000E-03 0. -1.
        -11    1    3    3    0    0 -0.27329201752E+02  0.17463531126E+01 -0.64256373744E+01  0.28128701241E+02  0.51100000000E-03 0.  1.
        -12    1    3    3    0    0  0.17460851667E+01  0.16432692945E+01 -0.34042644761E+01  0.41639121037E+01  0.00000000000E+00 0.  1.
</event>
<event>
 7    1  0.5946946E-013  0.5052886E+02  0.7816164E-02  0.1300439E+00
        -11   -1    0    0    0    0  0.00000000000E+00  0.00000000000E+00  0.45593999997E+02  0.45594000000E+02  0.51100000000E-03 0.  1.
         11   -1    0    0    0    0 -0.00000000000E+00 -0.00000000000E+00 -0.45593999997E+02  0.45594000000E+02  0.51100000000E-03 0. -1.
    9900012    2    1    2    0    0 -0.45837330850E+01 -0.20204735055E+01  0.40349382690E+02  0.50528860736E+02  0.30000002694E+02 0.  0.
         12    1    1    2    0    0  0.45837330850E+01  0.20204735055E+01 -0.40349382690E+02  0.40659139264E+02  0.00000000000E+00 0. -1.
         11    1    3    3    0    0 -0.49608647990E+01 -0.12158537488E+02  0.85828729607E+01  0.15687763446E+02  0.51100000000E-03 0. -1.
        -11    1    3    3    0    0  0.46599630619E+01  0.20590794426E+01  0.97384833144E+01  0.10990592405E+02  0.51100000000E-03 0.  1.
         12    1    3    3    0    0 -0.42828313479E+01  0.80789845401E+01  0.22028026415E+02  0.23850504886E+02  0.00000000000E+00 0. -1.
</event>
<event>
 7    1  0.5946946E-013  0.5052885E+02  0.7816164E-02  0.1300439E+00
        -11   -1    0    0    0    0  0.00000000000E+00  0.00000000000E+00  0.45593999997E+02  0.45594000000E+02  0.51100000000E-03 0.  1.
         11   -1    0    0    0    0 -0.00000000000E+00 -0.00000000000E+00 -0.45593999997E+02  0.45594000000E+02  0.51100000000E-03 0. -1.
    9900012    2    1    2    0    0  0.29951715892E+02  0.20838892877E+02 -0.17938822289E+02  0.50528854826E+02  0.29999984728E+02 0.  0.
         12    1    1    2    0    0 -0.29951715892E+02 -0.20838892877E+02  0.17938822289E+02  0.40659145174E+02  0.00000000000E+00 0. -1.
         11    1    3    3    0    0  0.10335120707E+02 -0.55185731335E+01  0.86189989917E+00  0.11747861131E+02  0.51100000000E-03 0. -1.
        -11    1    3    3    0    0  0.18061033526E+02  0.21967570713E+02 -0.12804772238E+02  0.31188736547E+02  0.51100000000E-03 0.  1.
         12    1    3    3    0    0  0.15555616587E+01  0.43898952976E+01 -0.59959499503E+01  0.75922571482E+01  0.00000000000E+00 0. -1.
</event>
<event>
 7    1  0.5946946E-013  0.5052880E+02  0.7816164E-02  0.1300439E+00
        -11   -1    0    0    0    0  0.00000000000E+00  0.00000000000E+00  0.45593999997E+02  0.45594000000E+02  0.51100000000E-03 0. -1.
         11   -1    0    0    0    0 -0.00000000000E+00 -0.00000000000E+00 -0.45593999997E+02  0.45594000000E+02  0.51100000000E-03 0.  1.
    9900012    2    1    2    0    0  0.52947487964E+01  0.13321240130E+02 -0.38048404931E+02  0.50528795370E+02  0.29999804005E+02 0.  0.
         12    1    1    2    0    0 -0.52947487964E+01 -0.13321240130E+02  0.38048404931E+02  0.40659204630E+02  0.00000000000E+00 0. -1.
         11    1    3    3    0    0 -0.25000831598E+01 -0.40486914864E+01 -0.25640237579E+01  0.54052323400E+01  0.51100000000E-03 0. -1.
        -11    1    3    3    0    0  0.47587021539E+01  0.17089259911E+02 -0.11942015386E+02  0.21384568788E+02  0.51100000000E-03 0.  1.
        -12    1    3    3    0    0  0.30361298022E+01  0.28067170531E+00 -0.23542365787E+02  0.23738994242E+02  0.00000000000E+00 0.  1.
</event>
<event>
 7    1  0.5946946E-013  0.5052886E+02  0.7816164E-02  0.1300439E+00
        -11   -1    0    0    0    0  0.00000000000E+00  0.00000000000E+00  0.45593999997E+02  0.45594000000E+02  0.51100000000E-03 0.  1.
         11   -1    0    0    0    0 -0.00000000000E+00 -0.00000000000E+00 -0.45593999997E+02  0.45594000000E+02  0.51100000000E-03 0. -1.
    9900012    2    1    2    0    0 -0.30625221709E+02  0.14844686184E+02  0.22246271332E+02  0.50528862026E+02  0.30000006613E+02 0.  0.
         12    1    1    2    0    0  0.30625221709E+02 -0.14844686184E+02 -0.22246271332E+02  0.40659137974E+02  0.00000000000E+00 0. -1.
         11    1    3    3    0    0 -0.73545347675E+01 -0.12998899803E+01 -0.59293868574E+01  0.95360644069E+01  0.51100000000E-03 0. -1.
        -11    1    3    3    0    0 -0.20606677320E+02  0.16912948338E+02  0.27112653434E+02  0.38023400008E+02  0.51100000000E-03 0.  1.
        -12    1    3    3    0    0 -0.26640096218E+01 -0.76837217370E+00  0.10630047555E+01  0.29693976111E+01  0.00000000000E+00 0.  1.
</event>
<event>
 7    1  0.5946946E-013  0.5052887E+02  0.7816164E-02  0.1300439E+00
        -11   -1    0    0    0    0  0.00000000000E+00  0.00000000000E+00  0.45593999997E+02  0.45594000000E+02  0.51100000000E-03 0.  1.
         11   -1    0    0    0    0 -0.00000000000E+00 -0.00000000000E+00 -0.45593999997E+02  0.45594000000E+02  0.51100000000E-03 0. -1.
    9900012    2    1    2    0    0  0.76374702023E+01 -0.18087852766E+02  0.35604264975E+02  0.50528867530E+02  0.30000023344E+02 0.  0.
         12    1    1    2    0    0 -0.76374702023E+01  0.18087852766E+02 -0.35604264975E+02  0.40659132470E+02  0.00000000000E+00 0. -1.
         11    1    3    3    0    0  0.15578585358E+02 -0.36653404812E+01  0.26115787931E+02  0.30629420858E+02  0.51100000000E-03 0. -1.
        -11    1    3    3    0    0 -0.83028804700E+01 -0.11393090970E+02  0.61610509227E+01  0.15385021764E+02  0.51100000000E-03 0.  1.
         12    1    3    3    0    0  0.36176531392E+00 -0.30294213158E+01  0.33274261219E+01  0.45144249077E+01  0.00000000000E+00 0. -1.
</event>
<event>
 7    1  0.5946946E-013  0.5052886E+02  0.7816164E-02  0.1300439E+00
        -11   -1    0    0    0    0  0.00000000000E+00  0.00000000000E+00  0.45593999997E+02  0.45594000000E+02  0.51100000000E-03 0.  1.
         11   -1    0    0    0    0 -0.00000000000E+00 -0.00000000000E+00 -0.45593999997E+02  0.45594000000E+02  0.51100000000E-03 0. -1.
    9900012    2    1    2    0    0  0.89794258973E+01  0.91532776484E+01  0.38584360907E+02  0.50528862187E+02  0.30000007102E+02 0.  0.
         12    1    1    2    0    0 -0.89794258973E+01 -0.91532776484E+01 -0.38584360907E+02  0.40659137813E+02  0.00000000000E+00 0. -1.
         11    1    3    3    0    0  0.20174804672E+01  0.14185430935E+02  0.22005119478E+02  0.26258750194E+02  0.51100000000E-03 0.  1.
        -11    1    3    3    0    0 -0.12011492764E+01 -0.65272361397E+01  0.14140149878E+02  0.15620224391E+02  0.51100000000E-03 0. -1.
        -12    1    3    3    0    0  0.81630947064E+01  0.14950828531E+01  0.24390915513E+01  0.86498876016E+01  0.00000000000E+00 0.  1.
</event>
<event>
 7    1  0.5946946E-013  0.5052886E+02  0.7816164E-02  0.1300439E+00
        -11   -1    0    0    0    0  0.00000000000E+00  0.00000000000E+00  0.45593999997E+02  0.45594000000E+02  0.51100000000E-03 0.  1.
         11   -1    0    0    0    0 -0.00000000000E+00 -0.00000000000E+00 -0.45593999997E+02  0.45594000000E+02  0.51100000000E-03 0. -1.
    9900012    2    1    2    0    0 -0.82121819611E+00  0.75932788684E+01  0.39935365054E+02  0.50528860003E+02  0.30000000466E+02 0.  0.
         12    1    1    2    0    0  0.82121819611E+00 -0.75932788684E+01 -0.39935365054E+02  0.40659139997E+02  0.00000000000E+00 0. -1.
         11    1    3    3    0    0 -0.12671634251E+01 -0.64550076295E+01  0.23622787758E+02  0.24521601260E+02  0.51100000000E-03 0. -1.
        -11    1    3    3    0    0  0.55932385471E+01  0.11686891352E+02  0.15632033804E+02  0.20303404346E+02  0.51100000000E-03 0.  1.
         12    1    3    3    0    0 -0.51472933182E+01  0.23613951458E+01  0.68054349110E+00  0.57038543969E+01  0.00000000000E+00 0. -1.
</event>
<event>
 7    1  0.5946946E-013  0.5052886E+02  0.7816164E-02  0.1300439E+00
        -11   -1    0    0    0    0  0.00000000000E+00  0.00000000000E+00  0.45593999997E+02  0.45594000000E+02  0.51100000000E-03 0.  1.
         11   -1    0    0    0    0 -0.00000000000E+00 -0.00000000000E+00 -0.45593999997E+02  0.45594000000E+02  0.51100000000E-03 0. -1.
    9900012    2    1    2    0    0  0.24186087285E+02  0.16895706952E+02  0.27977384707E+02  0.50528858511E+02  0.29999995930E+02 0.  0.
         12    1    1    2    0    0 -0.24186087285E+02 -0.16895706952E+02 -0.27977384707E+02  0.40659141489E+02  0.00000000000E+00 0. -1.
         11    1    3    3    0    0  0.23108071228E+02  0.34713208568E+01  0.10253712921E+02  0.25518065234E+02  0.51100000000E-03 0. -1.
        -11    1    3    3    0    0  0.14311466370E+01  0.12132631401E+02  0.67534848734E+01  0.13959172025E+02  0.51100000000E-03 0.  1.
         12    1    3    3    0    0 -0.35313057986E+00  0.12917546934E+01  0.10970186913E+02  0.11051621252E+02  0.00000000000E+00 0. -1.
</event>
<event>
 7    1  0.5946946E-013  0.5052884E+02  0.7816164E-02  0.1300439E+00
        -11   -1    0    0    0    0  0.00000000000E+00  0.00000000000E+00  0.45593999997E+02  0.45594000000E+02  0.51100000000E-03 0. -1.
         11   -1    0    0    0    0 -0.00000000000E+00 -0.00000000000E+00 -0.45593999997E+02  0.45594000000E+02  0.51100000000E-03 0.  1.
    9900012    2    1    2    0    0  0.66543406322E+01 -0.31800984699E+02 -0.24445539448E+02  0.50528840196E+02  0.29999940260E+02 0.  0.
         12    1    1    2    0    0 -0.66543406322E+01  0.31800984699E+02  0.24445539448E+02  0.40659159804E+02  0.00000000000E+00 0. -1.
         11    1    3    3    0    0  0.53362531680E+01 -0.27555776491E+02 -0.38571907891E+01  0.28331507848E+02  0.51100000000E-03 0. -1.
        -11    1    3    3    0    0  0.18279501985E+01 -0.51264243571E+01 -0.86776701324E+01  0.10243221554E+02  0.51100000000E-03 0.  1.
         12    1    3    3    0    0 -0.50986273427E+00  0.88121614952E+00 -0.11910678526E+02  0.11954110794E+02  0.00000000000E+00 0. -1.
</event>
<event>
 7    1  0.5946946E-013  0.5052887E+02  0.7816164E-02  0.1300439E+00
        -11   -1    0    0    0    0  0.00000000000E+00  0.00000000000E+00  0.45593999997E+02  0.45594000000E+02  0.51100000000E-03 0.  1.
         11   -1    0    0    0    0 -0.00000000000E+00 -0.00000000000E+00 -0.45593999997E+02  0.45594000000E+02  0.51100000000E-03 0. -1.
    9900012    2    1    2    0    0  0.39070817839E+02 -0.68717317341E+01  0.89115216500E+01  0.50528871606E+02  0.30000035733E+02 0.  0.
         12    1    1    2    0    0 -0.39070817839E+02  0.68717317341E+01 -0.89115216500E+01  0.40659128394E+02  0.00000000000E+00 0. -1.
         11    1    3    3    0    0  0.23157181217E+02  0.56059557436E+01  0.41234241230E+01  0.24180248313E+02  0.51100000000E-03 0. -1.
        -11    1    3    3    0    0  0.11850645509E+02 -0.16266523296E+02  0.22835012047E+01  0.20254677414E+02  0.51100000000E-03 0.  1.
        -12    1    3    3    0    0  0.40629911133E+01  0.37888358181E+01  0.25045963223E+01  0.60939458794E+01  0.00000000000E+00 0.  1.
</event>
<event>
 7    1  0.5946946E-013  0.5052886E+02  0.7816164E-02  0.1300439E+00
        -11   -1    0    0    0    0  0.00000000000E+00  0.00000000000E+00  0.45593999997E+02  0.45594000000E+02  0.51100000000E-03 0.  1.
         11   -1    0    0    0    0 -0.00000000000E+00 -0.00000000000E+00 -0.45593999997E+02  0.45594000000E+02  0.51100000000E-03 0. -1.
    9900012    2    1    2    0    0 -0.13415408889E+02 -0.14208112843E+02  0.35655600962E+02  0.50528861468E+02  0.30000004919E+02 0.  0.
         12    1    1    2    0    0  0.13415408889E+02  0.14208112843E+02 -0.35655600962E+02  0.40659138532E+02  0.00000000000E+00 0. -1.
         11    1    3    3    0    0  0.42143256729E-01  0.20985805085E+01 -0.16468118549E+01  0.26679216164E+01  0.51100000000E-03 0. -1.
        -11    1    3    3    0    0 -0.17930387117E+02 -0.10321971901E+02  0.33752965523E+02  0.39589197617E+02  0.51100000000E-03 0.  1.
        -12    1    3    3    0    0  0.44728349710E+01 -0.59847214496E+01  0.35494472935E+01  0.82717422347E+01  0.00000000000E+00 0.  1.
</event>
<event>
 7    1  0.5946946E-013  0.5052886E+02  0.7816164E-02  0.1300439E+00
        -11   -1    0    0    0    0  0.00000000000E+00  0.00000000000E+00  0.45593999997E+02  0.45594000000E+02  0.51100000000E-03 0.  1.
         11   -1    0    0    0    0 -0.00000000000E+00 -0.00000000000E+00 -0.45593999997E+02  0.45594000000E+02  0.51100000000E-03 0. -1.
    9900012    2    1    2    0    0  0.33961026599E+02  0.45366974838E+01  0.21891381668E+02  0.50528861506E+02  0.30000005035E+02 0.  0.
         12    1    1    2    0    0 -0.33961026599E+02 -0.45366974838E+01 -0.21891381668E+02  0.40659138494E+02  0.00000000000E+00 0. -1.
         11    1    3    3    0    0  0.27953274476E+02 -0.83351123690E+01  0.12014238448E+02  0.31546815654E+02  0.51100000000E-03 0. -1.
        -11    1    3    3    0    0  0.68838459024E+01  0.93460093454E+01  0.44083098141E+01  0.12416457658E+02  0.51100000000E-03 0.  1.
         12    1    3    3    0    0 -0.87609377958E+00  0.35258005074E+01  0.54688334052E+01  0.65655881947E+01  0.00000000000E+00 0. -1.
</event>
<event>
 7    1  0.5946946E-013  0.5052884E+02  0.7816164E-02  0.1300439E+00
        -11   -1    0    0    0    0  0.00000000000E+00  0.00000000000E+00  0.45593999997E+02  0.45594000000E+02  0.51100000000E-03 0.  1.
         11   -1    0    0    0    0 -0.00000000000E+00 -0.00000000000E+00 -0.45593999997E+02  0.45594000000E+02  0.51100000000E-03 0. -1.
    9900012    2    1    2    0    0 -0.11131099756E+02 -0.13635581719E+02  0.36651559709E+02  0.50528839904E+02  0.29999939373E+02 0.  0.
         12    1    1    2    0    0  0.11131099756E+02  0.13635581719E+02 -0.36651559709E+02  0.40659160096E+02  0.00000000000E+00 0. -1.
         11    1    3    3    0    0 -0.47296888640E+01 -0.91295688300E+01  0.20244477924E+01  0.10479378459E+02  0.51100000000E-03 0. -1.
        -11    1    3    3    0    0  0.51383104569E+00  0.22320517208E+01  0.28548395329E+02  0.28640128375E+02  0.51100000000E-03 0.  1.
        -12    1    3    3    0    0 -0.69152419374E+01 -0.67380646100E+01  0.60787165877E+01  0.11409333070E+02  0.00000000000E+00 0.  1.
</event>
<event>
 7    1  0.5946946E-013  0.5052887E+02  0.7816164E-02  0.1300439E+00
        -11   -1    0    0    0    0  0.00000000000E+00  0.00000000000E+00  0.45593999997E+02  0.45594000000E+02  0.51100000000E-03 0. -1.
         11   -1    0    0    0    0 -0.00000000000E+00 -0.00000000000E+00 -0.45593999997E+02  0.45594000000E+02  0.51100000000E-03 0.  1.
    9900012    2    1    2    0    0 -0.61862084848E+01  0.13078810984E+02 -0.37997903755E+02  0.50528866192E+02  0.30000019278E+02 0.  0.
         12    1    1    2    0    0  0.61862084848E+01 -0.13078810984E+02  0.37997903755E+02  0.40659133808E+02  0.00000000000E+00 0. -1.
         11    1    3    3    0    0  0.29297073335E+01 -0.16533121082E+01  0.31294490937E+01  0.45945704781E+01  0.51100000000E-03 0. -1.
        -11    1    3    3    0    0 -0.42905500849E+01 -0.59935671323E+00 -0.10134261295E+02  0.11021401942E+02  0.51100000000E-03 0.  1.
         12    1    3    3    0    0 -0.48253657335E+01  0.15331479806E+02 -0.30993091554E+02  0.34912893772E+02  0.00000000000E+00 0. -1.
</event>
<event>
 7    1  0.5946946E-013  0.5052886E+02  0.7816164E-02  0.1300439E+00
        -11   -1    0    0    0    0  0.00000000000E+00  0.00000000000E+00  0.45593999997E+02  0.45594000000E+02  0.51100000000E-03 0.  1.
         11   -1    0    0    0    0 -0.00000000000E+00 -0.00000000000E+00 -0.45593999997E+02  0.45594000000E+02  0.51100000000E-03 0. -1.
    9900012    2    1    2    0    0  0.10518557226E+02  0.64573236896E+01  0.38740530410E+02  0.50528858693E+02  0.29999996484E+02 0.  0.
         12    1    1    2    0    0 -0.10518557226E+02 -0.64573236896E+01 -0.38740530410E+02  0.40659141307E+02  0.00000000000E+00 0. -1.
         11    1    3    3    0    0 -0.25744615876E+01  0.12676738849E+02  0.11850414341E+02  0.17543086405E+02  0.51100000000E-03 0. -1.
        -11    1    3    3    0    0 -0.58454305668E+00 -0.53134660394E+01  0.86638208756E+01  0.10180196676E+02  0.51100000000E-03 0.  1.
         12    1    3    3    0    0  0.13677561870E+02 -0.90594911991E+00  0.18226295194E+02  0.22805575612E+02  0.00000000000E+00 0. -1.
</event>
<event>
 7    1  0.5946946E-013  0.5052888E+02  0.7816164E-02  0.1300439E+00
        -11   -1    0    0    0    0  0.00000000000E+00  0.00000000000E+00  0.45593999997E+02  0.45594000000E+02  0.51100000000E-03 0. -1.
         11   -1    0    0    0    0 -0.00000000000E+00 -0.00000000000E+00 -0.45593999997E+02  0.45594000000E+02  0.51100000000E-03 0.  1.
    9900012    2    1    2    0    0  0.30427091227E+02 -0.24849760491E+02 -0.10480742714E+02  0.50528875012E+02  0.30000046085E+02 0.  0.
         12    1    1    2    0    0 -0.30427091227E+02  0.24849760491E+02  0.10480742714E+02  0.40659124988E+02  0.00000000000E+00 0. -1.
         11    1    3    3    0    0 -0.25655736562E+01 -0.42282357434E+00  0.23746518409E+01  0.35213519544E+01  0.51100000000E-03 0. -1.
        -11    1    3    3    0    0  0.12680257692E+02 -0.59178564230E+01 -0.13604931981E+02  0.19516765466E+02  0.51100000000E-03 0.  1.
        -12    1    3    3    0    0  0.20312407190E+02 -0.18509080494E+02  0.74953742574E+00  0.27490757591E+02  0.00000000000E+00 0.  1.
</event>
<event>
 7    1  0.5946946E-013  0.5052886E+02  0.7816164E-02  0.1300439E+00
        -11   -1    0    0    0    0  0.00000000000E+00  0.00000000000E+00  0.45593999997E+02  0.45594000000E+02  0.51100000000E-03 0.  1.
         11   -1    0    0    0    0 -0.00000000000E+00 -0.00000000000E+00 -0.45593999997E+02  0.45594000000E+02  0.51100000000E-03 0. -1.
    9900012    2    1    2    0    0 -0.33599095245E+02 -0.22616751787E+02 -0.35705925400E+01  0.50528858423E+02  0.29999995663E+02 0.  0.
         12    1    1    2    0    0  0.33599095245E+02  0.22616751787E+02  0.35705925400E+01  0.40659141577E+02  0.00000000000E+00 0. -1.
         11    1    3    3    0    0 -0.21058888853E+02 -0.15004443811E+01  0.33330977667E+01  0.21373761345E+02  0.51100000000E-03 0. -1.
        -11    1    3    3    0    0 -0.74457763331E+01 -0.18764531163E+02  0.90928982620E-01  0.20188003451E+02  0.51100000000E-03 0.  1.
        -12    1    3    3    0    0 -0.50944300592E+01 -0.23517762427E+01 -0.69946192892E+01  0.89670936275E+01  0.00000000000E+00 0.  1.
</event>
<event>
 7    1  0.5946946E-013  0.5052886E+02  0.7816164E-02  0.1300439E+00
        -11   -1    0    0    0    0  0.00000000000E+00  0.00000000000E+00  0.45593999997E+02  0.45594000000E+02  0.51100000000E-03 0.  1.
         11   -1    0    0    0    0 -0.00000000000E+00 -0.00000000000E+00 -0.45593999997E+02  0.45594000000E+02  0.51100000000E-03 0. -1.
    9900012    2    1    2    0    0 -0.34272163254E+02 -0.20896889844E+02 -0.64733952460E+01  0.50528855576E+02  0.29999987009E+02 0.  0.
         12    1    1    2    0    0  0.34272163254E+02  0.20896889844E+02  0.64733952460E+01  0.40659144424E+02  0.00000000000E+00 0. -1.
         11    1    3    3    0    0 -0.63221703105E+01  0.24843028531E+01 -0.84254389547E+01  0.10822643852E+02  0.51100000000E-03 0. -1.
        -11    1    3    3    0    0 -0.23700699373E+02 -0.11129155705E+02 -0.16852194941E+01  0.26237782347E+02  0.51100000000E-03 0.  1.
         12    1    3    3    0    0 -0.42492935711E+01 -0.12252036992E+02  0.36372632028E+01  0.13468429378E+02  0.00000000000E+00 0. -1.
</event>
<event>
 7    1  0.5946946E-013  0.5052886E+02  0.7816164E-02  0.1300439E+00
        -11   -1    0    0    0    0  0.00000000000E+00  0.00000000000E+00  0.45593999997E+02  0.45594000000E+02  0.51100000000E-03 0.  1.
         11   -1    0    0    0    0 -0.00000000000E+00 -0.00000000000E+00 -0.45593999997E+02  0.45594000000E+02  0.51100000000E-03 0. -1.
    9900012    2    1    2    0    0 -0.19793409239E+01  0.40545603186E+02  0.23026657558E+01  0.50528855914E+02  0.29999988035E+02 0.  0.
         12    1    1    2    0    0  0.19793409239E+01 -0.40545603186E+02 -0.23026657558E+01  0.40659144086E+02  0.00000000000E+00 0. -1.
         11    1    3    3    0    0 -0.83054893564E+01  0.18259844700E+02  0.41772236130E+01  0.20490297198E+02  0.51100000000E-03 0.  1.
        -11    1    3    3    0    0  0.96312782057E+01  0.86159793685E+01  0.56323145482E+01  0.14096793528E+02  0.51100000000E-03 0. -1.
         12    1    3    3    0    0 -0.33051297732E+01  0.13669779118E+02 -0.75068724054E+01  0.15941765187E+02  0.00000000000E+00 0. -1.
</event>
<event>
 7    1  0.5946946E-013  0.5052886E+02  0.7816164E-02  0.1300439E+00
        -11   -1    0    0    0    0  0.00000000000E+00  0.00000000000E+00  0.45593999997E+02  0.45594000000E+02  0.51100000000E-03 0.  1.
         11   -1    0    0    0    0 -0.00000000000E+00 -0.00000000000E+00 -0.45593999997E+02  0.45594000000E+02  0.51100000000E-03 0. -1.
    9900012    2    1    2    0    0  0.13890936671E+02  0.50071076972E+01  0.37883193943E+02  0.50528860407E+02  0.30000001694E+02 0.  0.
         12    1    1    2    0    0 -0.13890936671E+02 -0.50071076972E+01 -0.37883193943E+02  0.40659139593E+02  0.00000000000E+00 0. -1.
         11    1    3    3    0    0 -0.83649052383E+00  0.98294437344E+00 -0.68730297135E+00  0.14622864539E+01  0.51100000000E-03 0. -1.
        -11    1    3    3    0    0  0.82168003110E+01  0.13186072473E+02  0.33102949007E+02  0.36567657128E+02  0.51100000000E-03 0.  1.
        -12    1    3    3    0    0  0.65106268833E+01 -0.91619091496E+01  0.54675479072E+01  0.12498916825E+02  0.00000000000E+00 0.  1.
</event>
<event>
 7    1  0.5946946E-013  0.5052885E+02  0.7816164E-02  0.1300439E+00
        -11   -1    0    0    0    0  0.00000000000E+00  0.00000000000E+00  0.45593999997E+02  0.45594000000E+02  0.51100000000E-03 0.  1.
         11   -1    0    0    0    0 -0.00000000000E+00 -0.00000000000E+00 -0.45593999997E+02  0.45594000000E+02  0.51100000000E-03 0. -1.
    9900012    2    1    2    0    0  0.26917762996E+02  0.12180531928E+02  0.27932691843E+02  0.50528848553E+02  0.29999965663E+02 0.  0.
         12    1    1    2    0    0 -0.26917762996E+02 -0.12180531928E+02 -0.27932691843E+02  0.40659151447E+02  0.00000000000E+00 0. -1.
         11    1    3    3    0    0 -0.21739455764E+01 -0.30576511144E+01  0.99112131659E+01  0.10597519351E+02  0.51100000000E-03 0. -1.
        -11    1    3    3    0    0  0.17124832482E+02  0.92222707917E+01  0.18053294944E+02  0.26537362806E+02  0.51100000000E-03 0.  1.
         12    1    3    3    0    0  0.11966876090E+02  0.60159122506E+01 -0.31816266857E-01  0.13393966397E+02  0.00000000000E+00 0. -1.
</event>
<event>
 7    1  0.6458014E-013  0.5052889E+02  0.7816164E-02  0.1300439E+00
        -11   -1    0    0    0    0  0.00000000000E+00  0.00000000000E+00  0.45593999997E+02  0.45594000000E+02  0.51100000000E-03 0. -1.
         11   -1    0    0    0    0 -0.00000000000E+00 -0.00000000000E+00 -0.45593999997E+02  0.45594000000E+02  0.51100000000E-03 0.  1.
    9900012    2    1    2    0    0  0.16999824397E+02  0.23779794244E+02 -0.28261113693E+02  0.50528890431E+02  0.30000092953E+02 0.  0.
         12    1    1    2    0    0 -0.16999824397E+02 -0.23779794244E+02  0.28261113693E+02  0.40659109569E+02  0.00000000000E+00 0. -1.
         11    1    3    3    0    0  0.10759125236E+02  0.98997921993E+01  0.40011811043E+00  0.14626166832E+02  0.51100000000E-03 0. -1.
        -11    1    3    3    0    0 -0.49375171512E+01  0.53388847449E+01 -0.12632751452E+02  0.14576322426E+02  0.51100000000E-03 0.  1.
        -12    1    3    3    0    0  0.11178216312E+02  0.85411172997E+01 -0.16028480351E+02  0.21326401173E+02  0.00000000000E+00 0.  1.
</event>
<event>
 7    1  0.5946946E-013  0.5052886E+02  0.7816164E-02  0.1300439E+00
        -11   -1    0    0    0    0  0.00000000000E+00  0.00000000000E+00  0.45593999997E+02  0.45594000000E+02  0.51100000000E-03 0.  1.
         11   -1    0    0    0    0 -0.00000000000E+00 -0.00000000000E+00 -0.45593999997E+02  0.45594000000E+02  0.51100000000E-03 0. -1.
    9900012    2    1    2    0    0  0.22028030050E+01  0.25495745501E+02  0.31595572448E+02  0.50528861076E+02  0.30000003728E+02 0.  0.
         12    1    1    2    0    0 -0.22028030050E+01 -0.25495745501E+02 -0.31595572448E+02  0.40659138924E+02  0.00000000000E+00 0. -1.
         11    1    3    3    0    0 -0.10680499943E+00  0.68794929809E+01  0.28496895165E+02  0.29315727269E+02  0.51100000000E-03 0. -1.
        -11    1    3    3    0    0 -0.28047426323E+01  0.11313991824E+02  0.38261988691E+01  0.12268365428E+02  0.51100000000E-03 0.  1.
         12    1    3    3    0    0  0.51143506368E+01  0.73022606957E+01 -0.72752158650E+00  0.89447683795E+01  0.00000000000E+00 0. -1.
</event>
<event>
 7    1  0.5946946E-013  0.5052882E+02  0.7816164E-02  0.1300439E+00
        -11   -1    0    0    0    0  0.00000000000E+00  0.00000000000E+00  0.45593999997E+02  0.45594000000E+02  0.51100000000E-03 0. -1.
         11   -1    0    0    0    0 -0.00000000000E+00 -0.00000000000E+00 -0.45593999997E+02  0.45594000000E+02  0.51100000000E-03 0.  1.
    9900012    2    1    2    0    0  0.12352734373E+02 -0.36615689550E+02  0.12643962702E+02  0.50528824399E+02  0.29999892244E+02 0.  0.
         12    1    1    2    0    0 -0.12352734373E+02  0.36615689550E+02 -0.12643962702E+02  0.40659175601E+02  0.00000000000E+00 0. -1.
         11    1    3    3    0    0  0.31330184086E+01  0.19748540249E+01  0.15138593462E+01  0.40009527802E+01  0.51100000000E-03 0. -1.
        -11    1    3    3    0    0  0.26689089652E+01 -0.38524097186E+02  0.98492266783E+01  0.39852683792E+02  0.51100000000E-03 0.  1.
        -12    1    3    3    0    0  0.65508069991E+01 -0.66446389509E-01  0.12808766774E+01  0.66751878269E+01  0.00000000000E+00 0.  1.
</event>
<event>
 7    1  0.5946946E-013  0.5052887E+02  0.7816164E-02  0.1300439E+00
        -11   -1    0    0    0    0  0.00000000000E+00  0.00000000000E+00  0.45593999997E+02  0.45594000000E+02  0.51100000000E-03 0.  1.
         11   -1    0    0    0    0 -0.00000000000E+00 -0.00000000000E+00 -0.45593999997E+02  0.45594000000E+02  0.51100000000E-03 0. -1.
    9900012    2    1    2    0    0 -0.37528054791E+02 -0.11048620694E+02  0.11078720308E+02  0.50528868685E+02  0.30000026856E+02 0.  0.
         12    1    1    2    0    0  0.37528054791E+02  0.11048620694E+02 -0.11078720308E+02  0.40659131315E+02  0.00000000000E+00 0. -1.
         11    1    3    3    0    0 -0.19578544956E+02 -0.18156025291E+01 -0.21697985637E+01  0.19781907421E+02  0.51100000000E-03 0. -1.
        -11    1    3    3    0    0 -0.52021838111E+00 -0.33064164012E+01  0.11817161521E+02  0.12282032537E+02  0.51100000000E-03 0.  1.
        -12    1    3    3    0    0 -0.17429291453E+02 -0.59266017637E+01  0.14313573508E+01  0.18464928727E+02  0.00000000000E+00 0.  1.
</event>
<event>
 7    1  0.5946946E-013  0.5052886E+02  0.7816164E-02  0.1300439E+00
        -11   -1    0    0    0    0  0.00000000000E+00  0.00000000000E+00  0.45593999997E+02  0.45594000000E+02  0.51100000000E-03 0.  1.
         11   -1    0    0    0    0 -0.00000000000E+00 -0.00000000000E+00 -0.45593999997E+02  0.45594000000E+02  0.51100000000E-03 0. -1.
    9900012    2    1    2    0    0 -0.34207613030E+02  0.13470572018E+02  0.17365154080E+02  0.50528859872E+02  0.30000000068E+02 0.  0.
         12    1    1    2    0    0  0.34207613030E+02 -0.13470572018E+02 -0.17365154080E+02  0.40659140128E+02  0.00000000000E+00 0. -1.
         11    1    3    3    0    0  0.12110762055E+01  0.39104789988E+00  0.11764451517E+02  0.11833086824E+02  0.51100000000E-03 0. -1.
        -11    1    3    3    0    0 -0.24872079907E+02  0.82354628270E+01  0.66847503398E+01  0.27039398925E+02  0.51100000000E-03 0.  1.
         12    1    3    3    0    0 -0.10546609328E+02  0.48440612914E+01 -0.10840477761E+01  0.11656374123E+02  0.00000000000E+00 0. -1.
</event>
<event>
 7    1  0.5946946E-013  0.5052886E+02  0.7816164E-02  0.1300439E+00
        -11   -1    0    0    0    0  0.00000000000E+00  0.00000000000E+00  0.45593999997E+02  0.45594000000E+02  0.51100000000E-03 0.  1.
         11   -1    0    0    0    0 -0.00000000000E+00 -0.00000000000E+00 -0.45593999997E+02  0.45594000000E+02  0.51100000000E-03 0. -1.
    9900012    2    1    2    0    0  0.34021871496E+02  0.73392827743E+01  0.21019345707E+02  0.50528859506E+02  0.29999998955E+02 0.  0.
         12    1    1    2    0    0 -0.34021871496E+02 -0.73392827743E+01 -0.21019345707E+02  0.40659140494E+02  0.00000000000E+00 0. -1.
         11    1    3    3    0    0  0.11468892025E+01 -0.36935225527E+01  0.27402186628E+01  0.47398588873E+01  0.51100000000E-03 0. -1.
        -11    1    3    3    0    0  0.37073663027E+01  0.10825131632E+02  0.10667990960E+02  0.15643978750E+02  0.51100000000E-03 0.  1.
        -12    1    3    3    0    0  0.29167615991E+02  0.20767369488E+00  0.76111360839E+01  0.30145021869E+02  0.00000000000E+00 0.  1.
</event>
<event>
 7    1  0.5946946E-013  0.5052886E+02  0.7816164E-02  0.1300439E+00
        -11   -1    0    0    0    0  0.00000000000E+00  0.00000000000E+00  0.45593999997E+02  0.45594000000E+02  0.51100000000E-03 0.  1.
         11   -1    0    0    0    0 -0.00000000000E+00 -0.00000000000E+00 -0.45593999997E+02  0.45594000000E+02  0.51100000000E-03 0. -1.
    9900012    2    1    2    0    0 -0.34656852162E+02 -0.13497204799E+02  0.16428452002E+02  0.50528856202E+02  0.29999988913E+02 0.  0.
         12    1    1    2    0    0  0.34656852162E+02  0.13497204799E+02 -0.16428452002E+02  0.40659143798E+02  0.00000000000E+00 0. -1.
         11    1    3    3    0    0 -0.74774041766E+01  0.59196980606E+01  0.87197340943E+01  0.12922389922E+02  0.51100000000E-03 0. -1.
        -11    1    3    3    0    0 -0.26559799317E+02 -0.18978541745E+02  0.10830739827E+02  0.34393501014E+02  0.51100000000E-03 0.  1.
        -12    1    3    3    0    0 -0.61964866860E+00 -0.43836111431E+00 -0.31220219197E+01  0.32129652668E+01  0.00000000000E+00 0.  1.
</event>
<event>
 7    1  0.5946946E-013  0.5052887E+02  0.7816164E-02  0.1300439E+00
        -11   -1    0    0    0    0  0.00000000000E+00  0.00000000000E+00  0.45593999997E+02  0.45594000000E+02  0.51100000000E-03 0.  1.
         11   -1    0    0    0    0 -0.00000000000E+00 -0.00000000000E+00 -0.45593999997E+02  0.45594000000E+02  0.51100000000E-03 0. -1.
    9900012    2    1    2    0    0 -0.33791383608E+02 -0.19548532190E+02  0.11364945558E+02  0.50528871819E+02  0.30000036380E+02 0.  0.
         12    1    1    2    0    0  0.33791383608E+02  0.19548532190E+02 -0.11364945558E+02  0.40659128181E+02  0.00000000000E+00 0. -1.
         11    1    3    3    0    0 -0.89097950016E-01  0.26523596027E+01  0.43864578148E+01  0.51267886955E+01  0.51100000000E-03 0. -1.
        -11    1    3    3    0    0 -0.29165975517E+02 -0.21321792323E+02 -0.10444516123E+01  0.36143655531E+02  0.51100000000E-03 0.  1.
        -12    1    3    3    0    0 -0.45363101411E+01 -0.87909946950E+00  0.80229393559E+01  0.92584275923E+01  0.00000000000E+00 0.  1.
</event>
<event>
 7    1  0.5946946E-013  0.5052883E+02  0.7816164E-02  0.1300439E+00
        -11   -1    0    0    0    0  0.00000000000E+00  0.00000000000E+00  0.45593999997E+02  0.45594000000E+02  0.51100000000E-03 0. -1.
         11   -1    0    0    0    0 -0.00000000000E+00 -0.00000000000E+00 -0.45593999997E+02  0.45594000000E+02  0.51100000000E-03 0.  1.
    9900012    2    1    2    0    0 -0.19574517860E+02  0.30257477116E+02  0.18827953207E+02  0.50528825232E+02  0.29999894776E+02 0.  0.
         12    1    1    2    0    0  0.19574517860E+02 -0.30257477116E+02 -0.18827953207E+02  0.40659174768E+02  0.00000000000E+00 0. -1.
         11    1    3    3    0    0 -0.55820138806E+01 -0.78415327735E+00  0.85764071055E+01  0.10262969084E+02  0.51100000000E-03 0. -1.
        -11    1    3    3    0    0  0.14506063819E+01  0.62197236900E+01 -0.42112367663E+01  0.76500808505E+01  0.51100000000E-03 0.  1.
        -12    1    3    3    0    0 -0.15443110361E+02  0.24821906703E+02  0.14462782868E+02  0.32615775298E+02  0.00000000000E+00 0.  1.
</event>
<event>
 7    1  0.5946946E-013  0.5052886E+02  0.7816164E-02  0.1300439E+00
        -11   -1    0    0    0    0  0.00000000000E+00  0.00000000000E+00  0.45593999997E+02  0.45594000000E+02  0.51100000000E-03 0.  1.
         11   -1    0    0    0    0 -0.00000000000E+00 -0.00000000000E+00 -0.45593999997E+02  0.45594000000E+02  0.51100000000E-03 0. -1.
    9900012    2    1    2    0    0 -0.36881227536E+02  0.67895532277E+01  0.15711219499E+02  0.50528863318E+02  0.30000010541E+02 0.  0.
         12    1    1    2    0    0  0.36881227536E+02 -0.67895532277E+01 -0.15711219499E+02  0.40659136682E+02  0.00000000000E+00 0. -1.
         11    1    3    3    0    0  0.24051834546E+01  0.68647470741E+01  0.66890115630E+00  0.73045936820E+01  0.51100000000E-03 0. -1.
        -11    1    3    3    0    0 -0.22126555062E+02  0.83898757468E+00  0.32419608850E+01  0.22378531000E+02  0.51100000000E-03 0.  1.
         12    1    3    3    0    0 -0.17159855928E+02 -0.91418142110E+00  0.11800357457E+02  0.20845738636E+02  0.00000000000E+00 0. -1.
</event>
<event>
 7    1  0.5946946E-013  0.5052887E+02  0.7816164E-02  0.1300439E+00
        -11   -1    0    0    0    0  0.00000000000E+00  0.00000000000E+00  0.45593999997E+02  0.45594000000E+02  0.51100000000E-03 0.  1.
         11   -1    0    0    0    0 -0.00000000000E+00 -0.00000000000E+00 -0.45593999997E+02  0.45594000000E+02  0.51100000000E-03 0. -1.
    9900012    2    1    2    0    0  0.24164284579E+02  0.24009211694E+02  0.22199324425E+02  0.50528869411E+02  0.30000029061E+02 0.  0.
         12    1    1    2    0    0 -0.24164284579E+02 -0.24009211694E+02 -0.22199324425E+02  0.40659130589E+02  0.00000000000E+00 0. -1.
         11    1    3    3    0    0  0.67108496173E+01  0.18037280520E+01  0.24868312175E+01  0.73806007369E+01  0.51100000000E-03 0. -1.
        -11    1    3    3    0    0 -0.14053252389E+01  0.18479783880E+02  0.58027212938E+01  0.19420322499E+02  0.51100000000E-03 0.  1.
        -12    1    3    3    0    0  0.18858760200E+02  0.37256997619E+01  0.13909771913E+02  0.23727946175E+02  0.00000000000E+00 0.  1.
</event>
<event>
 7    1  0.5946946E-013  0.5052884E+02  0.7816164E-02  0.1300439E+00
        -11   -1    0    0    0    0  0.00000000000E+00  0.00000000000E+00  0.45593999997E+02  0.45594000000E+02  0.51100000000E-03 0. -1.
         11   -1    0    0    0    0 -0.00000000000E+00 -0.00000000000E+00 -0.45593999997E+02  0.45594000000E+02  0.51100000000E-03 0.  1.
    9900012    2    1    2    0    0 -0.25652770377E+02 -0.25360873485E+02 -0.18759757387E+02  0.50528843231E+02  0.29999949486E+02 0.  0.
         12    1    1    2    0    0  0.25652770377E+02  0.25360873485E+02  0.18759757387E+02  0.40659156769E+02  0.00000000000E+00 0. -1.
         11    1    3    3    0    0 -0.33339103805E+00 -0.19454183044E+02 -0.13178916400E+02  0.23500217557E+02  0.51100000000E-03 0. -1.
        -11    1    3    3    0    0 -0.17179514721E+02 -0.56482919035E+01 -0.22259155745E+01  0.18220692300E+02  0.51100000000E-03 0.  1.
         12    1    3    3    0    0 -0.81398646180E+01 -0.25839853737E+00 -0.33549254117E+01  0.88079333741E+01  0.00000000000E+00 0. -1.
</event>
<event>
 7    1  0.5946946E-013  0.5052887E+02  0.7816164E-02  0.1300439E+00
        -11   -1    0    0    0    0  0.00000000000E+00  0.00000000000E+00  0.45593999997E+02  0.45594000000E+02  0.51100000000E-03 0.  1.
         11   -1    0    0    0    0 -0.00000000000E+00 -0.00000000000E+00 -0.45593999997E+02  0.45594000000E+02  0.51100000000E-03 0. -1.
    9900012    2    1    2    0    0 -0.17746656205E+02 -0.23773647690E+02  0.27803501321E+02  0.50528870440E+02  0.30000032188E+02 0.  0.
         12    1    1    2    0    0  0.17746656205E+02  0.23773647690E+02 -0.27803501321E+02  0.40659129560E+02  0.00000000000E+00 0. -1.
         11    1    3    3    0    0 -0.82677377385E+01 -0.22150112407E+02  0.63113516492E+01  0.24470719786E+02  0.51100000000E-03 0.  1.
        -11    1    3    3    0    0 -0.59924893043E+01  0.45073872604E+01  0.90181603442E+01  0.11728328280E+02  0.51100000000E-03 0. -1.
        -12    1    3    3    0    0 -0.34864291620E+01 -0.61309225427E+01  0.12473989327E+02  0.14329822374E+02  0.00000000000E+00 0.  1.
</event>
<event>
 7    1  0.5946946E-013  0.5052886E+02  0.7816164E-02  0.1300439E+00
        -11   -1    0    0    0    0  0.00000000000E+00  0.00000000000E+00  0.45593999997E+02  0.45594000000E+02  0.51100000000E-03 0.  1.
         11   -1    0    0    0    0 -0.00000000000E+00 -0.00000000000E+00 -0.45593999997E+02  0.45594000000E+02  0.51100000000E-03 0. -1.
    9900012    2    1    2    0    0 -0.17509808782E+02  0.14476591342E+02  0.33719435039E+02  0.50528863267E+02  0.30000010387E+02 0.  0.
         12    1    1    2    0    0  0.17509808782E+02 -0.14476591342E+02 -0.33719435039E+02  0.40659136733E+02  0.00000000000E+00 0. -1.
         11    1    3    3    0    0 -0.18584925144E+02 -0.30559018415E+01  0.18200624083E+02  0.26191614993E+02  0.51100000000E-03 0. -1.
        -11    1    3    3    0    0 -0.26705140305E+01  0.55901108281E+01  0.58603946693E+01  0.85279077269E+01  0.51100000000E-03 0.  1.
         12    1    3    3    0    0  0.37456303927E+01  0.11942382356E+02  0.96584162873E+01  0.15809340548E+02  0.00000000000E+00 0. -1.
</event>
<event>
 7    1  0.5946946E-013  0.5052886E+02  0.7816164E-02  0.1300439E+00
        -11   -1    0    0    0    0  0.00000000000E+00  0.00000000000E+00  0.45593999997E+02  0.45594000000E+02  0.51100000000E-03 0. -1.
         11   -1    0    0    0    0 -0.00000000000E+00 -0.00000000000E+00 -0.45593999997E+02  0.45594000000E+02  0.51100000000E-03 0.  1.
    9900012    2    1    2    0    0  0.31017466013E+02  0.10865902989E+02  0.23937728028E+02  0.50528857501E+02  0.29999992860E+02 0.  0.
         12    1    1    2    0    0 -0.31017466013E+02 -0.10865902989E+02 -0.23937728028E+02  0.40659142499E+02  0.00000000000E+00 0. -1.
         11    1    3    3    0    0  0.19310250840E+02 -0.57625383780E+01  0.12824986855E+02  0.23886668335E+02  0.51100000000E-03 0. -1.
        -11    1    3    3    0    0  0.23422206034E+00  0.11525935143E+02  0.66942694258E+01  0.13330989622E+02  0.51100000000E-03 0.  1.
        -12    1    3    3    0    0  0.11472993112E+02  0.51025062240E+01  0.44184717472E+01  0.13311199544E+02  0.00000000000E+00 0.  1.
</event>
<event>
 7    1  0.5946946E-013  0.5052886E+02  0.7816164E-02  0.1300439E+00
        -11   -1    0    0    0    0  0.00000000000E+00  0.00000000000E+00  0.45593999997E+02  0.45594000000E+02  0.51100000000E-03 0.  1.
         11   -1    0    0    0    0 -0.00000000000E+00 -0.00000000000E+00 -0.45593999997E+02  0.45594000000E+02  0.51100000000E-03 0. -1.
    9900012    2    1    2    0    0 -0.67601552929E+01  0.20371123060E+02 -0.34532352599E+02  0.50528859203E+02  0.29999998033E+02 0.  0.
         12    1    1    2    0    0  0.67601552929E+01 -0.20371123060E+02  0.34532352599E+02  0.40659140797E+02  0.00000000000E+00 0. -1.
         11    1    3    3    0    0  0.30714966342E+00  0.28076852609E+01 -0.90828808936E+01  0.95118958693E+01  0.51100000000E-03 0. -1.
        -11    1    3    3    0    0 -0.14119721044E+02  0.49332296298E+01 -0.46142195414E+01  0.15652293735E+02  0.51100000000E-03 0.  1.
        -12    1    3    3    0    0  0.70524160876E+01  0.12630208169E+02 -0.20835252164E+02  0.25364669598E+02  0.00000000000E+00 0.  1.
</event>
<event>
 7    1  0.5946946E-013  0.5052885E+02  0.7816164E-02  0.1300439E+00
        -11   -1    0    0    0    0  0.00000000000E+00  0.00000000000E+00  0.45593999997E+02  0.45594000000E+02  0.51100000000E-03 0. -1.
         11   -1    0    0    0    0 -0.00000000000E+00 -0.00000000000E+00 -0.45593999997E+02  0.45594000000E+02  0.51100000000E-03 0.  1.
    9900012    2    1    2    0    0 -0.24248815412E+02  0.24682652740E+02 -0.21352476785E+02  0.50528847770E+02  0.29999963283E+02 0.  0.
         12    1    1    2    0    0  0.24248815412E+02 -0.24682652740E+02  0.21352476785E+02  0.40659152230E+02  0.00000000000E+00 0. -1.
         11    1    3    3    0    0 -0.20351951690E+02  0.21932902743E+02 -0.13078975295E+02  0.32654459961E+02  0.51100000000E-03 0. -1.
        -11    1    3    3    0    0  0.47473720199E+01 -0.28571745387E+01 -0.29184604307E+01  0.62624594997E+01  0.51100000000E-03 0.  1.
        -12    1    3    3    0    0 -0.86442357419E+01  0.56069245352E+01 -0.53550410599E+01  0.11611928309E+02  0.00000000000E+00 0.  1.
</event>
<event>
 7    1  0.5946946E-013  0.5052886E+02  0.7816164E-02  0.1300439E+00
        -11   -1    0    0    0    0  0.00000000000E+00  0.00000000000E+00  0.45593999997E+02  0.45594000000E+02  0.51100000000E-03 0.  1.
         11   -1    0    0    0    0 -0.00000000000E+00 -0.00000000000E+00 -0.45593999997E+02  0.45594000000E+02  0.51100000000E-03 0. -1.
    9900012    2    1    2    0    0 -0.32467718411E+02  0.16865780763E+02  0.17735795012E+02  0.50528859277E+02  0.29999998260E+02 0.  0.
         12    1    1    2    0    0  0.32467718411E+02 -0.16865780763E+02 -0.17735795012E+02  0.40659140723E+02  0.00000000000E+00 0. -1.
         11    1    3    3    0    0 -0.37940093859E+01  0.90705905971E+01  0.12091653804E+02  0.15584550458E+02  0.51100000000E-03 0.  1.
        -11    1    3    3    0    0 -0.19630285130E+02 -0.24192080357E+01 -0.92957171465E+00  0.19800625385E+02  0.51100000000E-03 0. -1.
         12    1    3    3    0    0 -0.90434238954E+01  0.10214398202E+02  0.65737129231E+01  0.15143683435E+02  0.00000000000E+00 0. -1.
</event>
<event>
 7    1  0.5946946E-013  0.5052886E+02  0.7816164E-02  0.1300439E+00
        -11   -1    0    0    0    0  0.00000000000E+00  0.00000000000E+00  0.45593999997E+02  0.45594000000E+02  0.51100000000E-03 0.  1.
         11   -1    0    0    0    0 -0.00000000000E+00 -0.00000000000E+00 -0.45593999997E+02  0.45594000000E+02  0.51100000000E-03 0. -1.
    9900012    2    1    2    0    0 -0.23994249333E+02 -0.28956804750E+02 -0.15457839814E+02  0.50528863830E+02  0.30000012098E+02 0.  0.
         12    1    1    2    0    0  0.23994249333E+02  0.28956804750E+02  0.15457839814E+02  0.40659136170E+02  0.00000000000E+00 0. -1.
         11    1    3    3    0    0 -0.89563487514E+01 -0.58323370335E+01 -0.14136873662E+02  0.17722402078E+02  0.51100000000E-03 0. -1.
        -11    1    3    3    0    0 -0.16900168792E+02 -0.17699366031E+02  0.42177947958E+01  0.24832902696E+02  0.51100000000E-03 0.  1.
        -12    1    3    3    0    0  0.18622682109E+01 -0.54251016857E+01 -0.55387609475E+01  0.79735590562E+01  0.00000000000E+00 0.  1.
</event>
<event>
 7    1  0.5946946E-013  0.5052880E+02  0.7816164E-02  0.1300439E+00
        -11   -1    0    0    0    0  0.00000000000E+00  0.00000000000E+00  0.45593999997E+02  0.45594000000E+02  0.51100000000E-03 0.  1.
         11   -1    0    0    0    0 -0.00000000000E+00 -0.00000000000E+00 -0.45593999997E+02  0.45594000000E+02  0.51100000000E-03 0. -1.
    9900012    2    1    2    0    0 -0.68043523772E+01 -0.39271807269E+02 -0.80371895060E+01  0.50528800886E+02  0.29999820773E+02 0.  0.
         12    1    1    2    0    0  0.68043523772E+01  0.39271807269E+02  0.80371895060E+01  0.40659199114E+02  0.00000000000E+00 0. -1.
         11    1    3    3    0    0 -0.64493851296E+01 -0.10743192312E+02 -0.16350208769E+02  0.20599516418E+02  0.51100000000E-03 0. -1.
        -11    1    3    3    0    0 -0.16520268238E+00 -0.13974685370E+02  0.22227449762E+01  0.14151315084E+02  0.51100000000E-03 0.  1.
         12    1    3    3    0    0 -0.18976456517E+00 -0.14553929586E+02  0.60902742866E+01  0.15777969384E+02  0.00000000000E+00 0. -1.
</event>
<event>
 7    1  0.5946946E-013  0.5052887E+02  0.7816164E-02  0.1300439E+00
        -11   -1    0    0    0    0  0.00000000000E+00  0.00000000000E+00  0.45593999997E+02  0.45594000000E+02  0.51100000000E-03 0.  1.
         11   -1    0    0    0    0 -0.00000000000E+00 -0.00000000000E+00 -0.45593999997E+02  0.45594000000E+02  0.51100000000E-03 0. -1.
    9900012    2    1    2    0    0  0.23984777909E+02  0.10457627993E+02  0.31121272587E+02  0.50528866192E+02  0.30000019277E+02 0.  0.
         12    1    1    2    0    0 -0.23984777909E+02 -0.10457627993E+02 -0.31121272587E+02  0.40659133808E+02  0.00000000000E+00 0. -1.
         11    1    3    3    0    0 -0.23065281001E+01  0.70431543184E+01  0.14990642022E+02  0.16722602762E+02  0.51100000000E-03 0. -1.
        -11    1    3    3    0    0  0.14424345217E+02 -0.10369659050E+01  0.16391482249E+01  0.14554169176E+02  0.51100000000E-03 0.  1.
        -12    1    3    3    0    0  0.11866960792E+02  0.44514395795E+01  0.14491482340E+02  0.19252094254E+02  0.00000000000E+00 0.  1.
</event>
<event>
 7    1  0.5946946E-013  0.5052887E+02  0.7816164E-02  0.1300439E+00
        -11   -1    0    0    0    0  0.00000000000E+00  0.00000000000E+00  0.45593999997E+02  0.45594000000E+02  0.51100000000E-03 0. -1.
         11   -1    0    0    0    0 -0.00000000000E+00 -0.00000000000E+00 -0.45593999997E+02  0.45594000000E+02  0.51100000000E-03 0.  1.
    9900012    2    1    2    0    0 -0.11656351932E+00  0.33900960970E+02  0.22447192357E+02  0.50528865892E+02  0.30000018365E+02 0.  0.
         12    1    1    2    0    0  0.11656351932E+00 -0.33900960970E+02 -0.22447192357E+02  0.40659134108E+02  0.00000000000E+00 0. -1.
         11    1    3    3    0    0  0.73178400527E+01 -0.18166629253E+01  0.16372605367E+01  0.77156768691E+01  0.51100000000E-03 0.  1.
        -11    1    3    3    0    0 -0.54549676761E+01  0.86984214656E+01  0.67832599517E+01  0.12305763860E+02  0.51100000000E-03 0. -1.
         12    1    3    3    0    0 -0.19794358960E+01  0.27019202429E+02  0.14026671868E+02  0.30507425163E+02  0.00000000000E+00 0. -1.
</event>
<event>
 7    1  0.5946946E-013  0.5052887E+02  0.7816164E-02  0.1300439E+00
        -11   -1    0    0    0    0  0.00000000000E+00  0.00000000000E+00  0.45593999997E+02  0.45594000000E+02  0.51100000000E-03 0.  1.
         11   -1    0    0    0    0 -0.00000000000E+00 -0.00000000000E+00 -0.45593999997E+02  0.45594000000E+02  0.51100000000E-03 0. -1.
    9900012    2    1    2    0    0 -0.95635392933E+01 -0.12956378135E+02  0.37334107133E+02  0.50528873428E+02  0.30000041271E+02 0.  0.
         12    1    1    2    0    0  0.95635392933E+01  0.12956378135E+02 -0.37334107133E+02  0.40659126572E+02  0.00000000000E+00 0. -1.
         11    1    3    3    0    0 -0.61064060223E+01 -0.12222632382E+02  0.85766969981E+01  0.16131976584E+02  0.51100000000E-03 0. -1.
        -11    1    3    3    0    0  0.37003616100E-01  0.16176468696E+00  0.30423278265E+02  0.30423730832E+02  0.51100000000E-03 0.  1.
        -12    1    3    3    0    0 -0.34941368871E+01 -0.89551043942E+00 -0.16658681295E+01  0.39731660118E+01  0.00000000000E+00 0.  1.
</event>
<event>
 7    1  0.5946946E-013  0.5052885E+02  0.7816164E-02  0.1300439E+00
        -11   -1    0    0    0    0  0.00000000000E+00  0.00000000000E+00  0.45593999997E+02  0.45594000000E+02  0.51100000000E-03 0.  1.
         11   -1    0    0    0    0 -0.00000000000E+00 -0.00000000000E+00 -0.45593999997E+02  0.45594000000E+02  0.51100000000E-03 0. -1.
    9900012    2    1    2    0    0  0.30027186452E+02 -0.27255750477E+02  0.29424928044E+01  0.50528854360E+02  0.29999983311E+02 0.  0.
         12    1    1    2    0    0 -0.30027186452E+02  0.27255750477E+02 -0.29424928044E+01  0.40659145640E+02  0.00000000000E+00 0. -1.
         11    1    3    3    0    0  0.26944188378E+02 -0.27939104174E+02  0.28601584437E+01  0.38919960637E+02  0.51100000000E-03 0.  1.
        -11    1    3    3    0    0 -0.35677649106E+01 -0.20151331396E+01  0.13628009263E+01  0.43182096584E+01  0.51100000000E-03 0. -1.
         12    1    3    3    0    0  0.66507629852E+01  0.26984868373E+01 -0.12804665656E+01  0.72906840640E+01  0.00000000000E+00 0. -1.
</event>
<event>
 7    1  0.5946946E-013  0.5052889E+02  0.7816164E-02  0.1300439E+00
        -11   -1    0    0    0    0  0.00000000000E+00  0.00000000000E+00  0.45593999997E+02  0.45594000000E+02  0.51100000000E-03 0.  1.
         11   -1    0    0    0    0 -0.00000000000E+00 -0.00000000000E+00 -0.45593999997E+02  0.45594000000E+02  0.51100000000E-03 0. -1.
    9900012    2    1    2    0    0 -0.12753835852E+02 -0.23379618734E+02  0.30722895109E+02  0.50528890505E+02  0.30000093178E+02 0.  0.
         12    1    1    2    0    0  0.12753835852E+02  0.23379618734E+02 -0.30722895109E+02  0.40659109495E+02  0.00000000000E+00 0. -1.
         11    1    3    3    0    0 -0.13644101378E+01 -0.91863240659E+01  0.20055116606E+02  0.22101082942E+02  0.51100000000E-03 0. -1.
        -11    1    3    3    0    0 -0.88512857181E+01 -0.40078294909E+01 -0.39019256336E+01  0.10470576871E+02  0.51100000000E-03 0.  1.
        -12    1    3    3    0    0 -0.25381399965E+01 -0.10185465177E+02  0.14569704136E+02  0.17957230692E+02  0.00000000000E+00 0.  1.
</event>
<event>
 7    1  0.5946946E-013  0.5052884E+02  0.7816164E-02  0.1300439E+00
        -11   -1    0    0    0    0  0.00000000000E+00  0.00000000000E+00  0.45593999997E+02  0.45594000000E+02  0.51100000000E-03 0.  1.
         11   -1    0    0    0    0 -0.00000000000E+00 -0.00000000000E+00 -0.45593999997E+02  0.45594000000E+02  0.51100000000E-03 0. -1.
    9900012    2    1    2    0    0  0.24540715969E+02  0.30631979512E+02  0.10611426512E+02  0.50528840125E+02  0.29999940044E+02 0.  0.
         12    1    1    2    0    0 -0.24540715969E+02 -0.30631979512E+02 -0.10611426512E+02  0.40659159875E+02  0.00000000000E+00 0. -1.
         11    1    3    3    0    0  0.97047804751E+01  0.29939954528E+02  0.14513908592E+01  0.31506986160E+02  0.51100000000E-03 0. -1.
        -11    1    3    3    0    0  0.27604636976E+01 -0.28570625520E+01  0.31721900768E+01  0.50838721853E+01  0.51100000000E-03 0.  1.
         12    1    3    3    0    0  0.12075471797E+02  0.35490875361E+01  0.59878455758E+01  0.13937981780E+02  0.00000000000E+00 0. -1.
</event>
<event>
 7    1  0.5946946E-013  0.5052883E+02  0.7816164E-02  0.1300439E+00
        -11   -1    0    0    0    0  0.00000000000E+00  0.00000000000E+00  0.45593999997E+02  0.45594000000E+02  0.51100000000E-03 0.  1.
         11   -1    0    0    0    0 -0.00000000000E+00 -0.00000000000E+00 -0.45593999997E+02  0.45594000000E+02  0.51100000000E-03 0. -1.
    9900012    2    1    2    0    0  0.33081086356E+02 -0.23454369262E+02 -0.29499234430E+01  0.50528834240E+02  0.29999922156E+02 0.  0.
         12    1    1    2    0    0 -0.33081086356E+02  0.23454369262E+02  0.29499234430E+01  0.40659165760E+02  0.00000000000E+00 0. -1.
         11    1    3    3    0    0 -0.15165189268E+01 -0.12078817345E+02 -0.43317529564E+01  0.12921367654E+02  0.51100000000E-03 0. -1.
        -11    1    3    3    0    0  0.96546729347E+01 -0.69061292499E+00  0.37248682546E+01  0.10371321009E+02  0.51100000000E-03 0.  1.
         12    1    3    3    0    0  0.24942932348E+02 -0.10684938992E+02 -0.23430387412E+01  0.27236145578E+02  0.00000000000E+00 0. -1.
</event>
<event>
 7    1  0.5946946E-013  0.5052886E+02  0.7816164E-02  0.1300439E+00
        -11   -1    0    0    0    0  0.00000000000E+00  0.00000000000E+00  0.45593999997E+02  0.45594000000E+02  0.51100000000E-03 0.  1.
         11   -1    0    0    0    0 -0.00000000000E+00 -0.00000000000E+00 -0.45593999997E+02  0.45594000000E+02  0.51100000000E-03 0. -1.
    9900012    2    1    2    0    0 -0.86204053263E+01 -0.25206502296E+02  0.30716224733E+02  0.50528860709E+02  0.30000002612E+02 0.  0.
         12    1    1    2    0    0  0.86204053263E+01  0.25206502296E+02 -0.30716224733E+02  0.40659139291E+02  0.00000000000E+00 0. -1.
         11    1    3    3    0    0  0.85605869816E+01 -0.87813872078E+01  0.56733031299E+01  0.13512319543E+02  0.51100000000E-03 0. -1.
        -11    1    3    3    0    0 -0.70206454706E+01 -0.14875672556E+02  0.18846592224E+02  0.25015377982E+02  0.51100000000E-03 0.  1.
        -12    1    3    3    0    0 -0.10160346837E+02 -0.15494425324E+01  0.61963293789E+01  0.12001163185E+02  0.00000000000E+00 0.  1.
</event>
<event>
 7    1  0.5946946E-013  0.5052886E+02  0.7816164E-02  0.1300439E+00
        -11   -1    0    0    0    0  0.00000000000E+00  0.00000000000E+00  0.45593999997E+02  0.45594000000E+02  0.51100000000E-03 0.  1.
         11   -1    0    0    0    0 -0.00000000000E+00 -0.00000000000E+00 -0.45593999997E+02  0.45594000000E+02  0.51100000000E-03 0. -1.
    9900012    2    1    2    0    0 -0.14537373954E+02  0.16501149835E+02  0.34198574228E+02  0.50528859987E+02  0.30000000417E+02 0.  0.
         12    1    1    2    0    0  0.14537373954E+02 -0.16501149835E+02 -0.34198574228E+02  0.40659140013E+02  0.00000000000E+00 0. -1.
         11    1    3    3    0    0 -0.11559396458E+02  0.62670617567E+01  0.24839455950E+01  0.13381543092E+02  0.51100000000E-03 0. -1.
        -11    1    3    3    0    0 -0.61803187749E+00  0.14171648751E+02  0.27366292966E+02  0.30824204494E+02  0.51100000000E-03 0.  1.
        -12    1    3    3    0    0 -0.23599456188E+01 -0.39375606724E+01  0.43483356669E+01  0.63231124017E+01  0.00000000000E+00 0.  1.
</event>
<event>
 7    1  0.5946946E-013  0.5052887E+02  0.7816164E-02  0.1300439E+00
        -11   -1    0    0    0    0  0.00000000000E+00  0.00000000000E+00  0.45593999997E+02  0.45594000000E+02  0.51100000000E-03 0.  1.
         11   -1    0    0    0    0 -0.00000000000E+00 -0.00000000000E+00 -0.45593999997E+02  0.45594000000E+02  0.51100000000E-03 0. -1.
    9900012    2    1    2    0    0  0.12671814317E+02  0.32215923246E+02  0.21324268131E+02  0.50528868185E+02  0.30000025334E+02 0.  0.
         12    1    1    2    0    0 -0.12671814317E+02 -0.32215923246E+02 -0.21324268131E+02  0.40659131815E+02  0.00000000000E+00 0. -1.
         11    1    3    3    0    0 -0.18805993170E+01  0.18762174491E+02  0.24599002521E+01  0.19015965790E+02  0.51100000000E-03 0.  1.
        -11    1    3    3    0    0 -0.29514546371E+00 -0.47632801010E-01  0.92598320087E+01  0.92646569725E+01  0.51100000000E-03 0. -1.
         12    1    3    3    0    0  0.14847559098E+02  0.13501381556E+02  0.96045358699E+01  0.22248245422E+02  0.00000000000E+00 0. -1.
</event>
<event>
 7    1  0.5946946E-013  0.5052887E+02  0.7816164E-02  0.1300439E+00
        -11   -1    0    0    0    0  0.00000000000E+00  0.00000000000E+00  0.45593999997E+02  0.45594000000E+02  0.51100000000E-03 0.  1.
         11   -1    0    0    0    0 -0.00000000000E+00 -0.00000000000E+00 -0.45593999997E+02  0.45594000000E+02  0.51100000000E-03 0. -1.
    9900012    2    1    2    0    0 -0.38700142518E+01 -0.32863957588E+01  0.40340889804E+02  0.50528870674E+02  0.30000032901E+02 0.  0.
         12    1    1    2    0    0  0.38700142518E+01  0.32863957588E+01 -0.40340889804E+02  0.40659129326E+02  0.00000000000E+00 0. -1.
         11    1    3    3    0    0 -0.57553861919E+01  0.74656192576E+01  0.29913487364E+01  0.98897982104E+01  0.51100000000E-03 0. -1.
        -11    1    3    3    0    0 -0.25311290277E+01 -0.84456744750E+01  0.32542596630E+02  0.33715821615E+02  0.51100000000E-03 0.  1.
        -12    1    3    3    0    0  0.44165009678E+01 -0.23063405415E+01  0.48069444373E+01  0.69232508488E+01  0.00000000000E+00 0.  1.
</event>
<event>
 7    1  0.5946946E-013  0.5052885E+02  0.7816164E-02  0.1300439E+00
        -11   -1    0    0    0    0  0.00000000000E+00  0.00000000000E+00  0.45593999997E+02  0.45594000000E+02  0.51100000000E-03 0.  1.
         11   -1    0    0    0    0 -0.00000000000E+00 -0.00000000000E+00 -0.45593999997E+02  0.45594000000E+02  0.51100000000E-03 0. -1.
    9900012    2    1    2    0    0  0.37145135189E+02 -0.11743876692E+02  0.11639873740E+02  0.50528851353E+02  0.29999974174E+02 0.  0.
         12    1    1    2    0    0 -0.37145135189E+02  0.11743876692E+02 -0.11639873740E+02  0.40659148647E+02  0.00000000000E+00 0. -1.
         11    1    3    3    0    0  0.51366966946E+00 -0.41428118227E+01 -0.64006494958E+01  0.76416660851E+01  0.51100000000E-03 0. -1.
        -11    1    3    3    0    0  0.27088015354E+02 -0.10248744933E+02  0.14305368757E+02  0.32302336202E+02  0.51100000000E-03 0.  1.
         12    1    3    3    0    0  0.95434501654E+01  0.26476800645E+01  0.37351544791E+01  0.10584849067E+02  0.00000000000E+00 0. -1.
</event>
<event>
 7    1  0.5946946E-013  0.5052889E+02  0.7816164E-02  0.1300439E+00
        -11   -1    0    0    0    0  0.00000000000E+00  0.00000000000E+00  0.45593999997E+02  0.45594000000E+02  0.51100000000E-03 0.  1.
         11   -1    0    0    0    0 -0.00000000000E+00 -0.00000000000E+00 -0.45593999997E+02  0.45594000000E+02  0.51100000000E-03 0. -1.
    9900012    2    1    2    0    0  0.85971491276E+01 -0.17691929063E+02  0.35584375425E+02  0.50528891532E+02  0.30000096299E+02 0.  0.
         12    1    1    2    0    0 -0.85971491276E+01  0.17691929063E+02 -0.35584375425E+02  0.40659108468E+02  0.00000000000E+00 0. -1.
         11    1    3    3    0    0 -0.80857314713E+01 -0.92881458338E+01  0.56577416818E+01  0.13552075400E+02  0.51100000000E-03 0. -1.
        -11    1    3    3    0    0  0.17613360326E+02 -0.53731561516E+01  0.26858534544E+02  0.32565044866E+02  0.51100000000E-03 0.  1.
        -12    1    3    3    0    0 -0.93047972702E+00 -0.30306270775E+01  0.30680991988E+01  0.44117712655E+01  0.00000000000E+00 0.  1.
</event>
<event>
 7    1  0.5946946E-013  0.5052886E+02  0.7816164E-02  0.1300439E+00
        -11   -1    0    0    0    0  0.00000000000E+00  0.00000000000E+00  0.45593999997E+02  0.45594000000E+02  0.51100000000E-03 0. -1.
         11   -1    0    0    0    0 -0.00000000000E+00 -0.00000000000E+00 -0.45593999997E+02  0.45594000000E+02  0.51100000000E-03 0.  1.
    9900012    2    1    2    0    0  0.11133797071E+02 -0.33589487296E+02 -0.20023752352E+02  0.50528858934E+02  0.29999997214E+02 0.  0.
         12    1    1    2    0    0 -0.11133797071E+02  0.33589487296E+02  0.20023752352E+02  0.40659141066E+02  0.00000000000E+00 0. -1.
         11    1    3    3    0    0 -0.37756497124E+01 -0.91578866645E-01  0.20323754757E+01  0.42888772161E+01  0.51100000000E-03 0. -1.
        -11    1    3    3    0    0  0.10344755177E+02 -0.34273059542E+02 -0.20950090059E+02  0.41479667836E+02  0.51100000000E-03 0.  1.
        -12    1    3    3    0    0  0.45646916059E+01  0.77515111287E+00 -0.11060377691E+01  0.47603138816E+01  0.00000000000E+00 0.  1.
</event>
<event>
 7    1  0.5946946E-013  0.5052888E+02  0.7816164E-02  0.1300439E+00
        -11   -1    0    0    0    0  0.00000000000E+00  0.00000000000E+00  0.45593999997E+02  0.45594000000E+02  0.51100000000E-03 0.  1.
         11   -1    0    0    0    0 -0.00000000000E+00 -0.00000000000E+00 -0.45593999997E+02  0.45594000000E+02  0.51100000000E-03 0. -1.
    9900012    2    1    2    0    0 -0.10288493681E+02 -0.39123398658E+01  0.39140832686E+02  0.50528876930E+02  0.30000051917E+02 0.  0.
         12    1    1    2    0    0  0.10288493681E+02  0.39123398658E+01 -0.39140832686E+02  0.40659123070E+02  0.00000000000E+00 0. -1.
         11    1    3    3    0    0  0.46985952253E+00  0.79222549519E+01  0.14282667526E+02  0.16339445627E+02  0.51100000000E-03 0. -1.
        -11    1    3    3    0    0 -0.10990689169E+02 -0.17809834596E+01  0.20290120163E+02  0.23144246088E+02  0.51100000000E-03 0.  1.
         12    1    3    3    0    0  0.23233596575E+00 -0.10053611358E+02  0.45680449973E+01  0.11045185215E+02  0.00000000000E+00 0. -1.
</event>
<event>
 7    1  0.5946946E-013  0.5052887E+02  0.7816164E-02  0.1300439E+00
        -11   -1    0    0    0    0  0.00000000000E+00  0.00000000000E+00  0.45593999997E+02  0.45594000000E+02  0.51100000000E-03 0.  1.
         11   -1    0    0    0    0 -0.00000000000E+00 -0.00000000000E+00 -0.45593999997E+02  0.45594000000E+02  0.51100000000E-03 0. -1.
    9900012    2    1    2    0    0  0.97675130450E+01  0.38463434467E+02 -0.88501212550E+01  0.50528871280E+02  0.30000034742E+02 0.  0.
         12    1    1    2    0    0 -0.97675130450E+01 -0.38463434467E+02  0.88501212550E+01  0.40659128720E+02  0.00000000000E+00 0. -1.
         11    1    3    3    0    0  0.17731847120E+02  0.30712865662E+02 -0.84939411411E+01  0.36467047533E+02  0.51100000000E-03 0. -1.
        -11    1    3    3    0    0 -0.79063086401E+01  0.25676882933E+01 -0.21337443523E+01  0.85822843524E+01  0.51100000000E-03 0.  1.
        -12    1    3    3    0    0 -0.58025434861E-01  0.51828805116E+01  0.17775642384E+01  0.54795393940E+01  0.00000000000E+00 0.  1.
</event>
<event>
 7    1  0.5946946E-013  0.5052886E+02  0.7816164E-02  0.1300439E+00
        -11   -1    0    0    0    0  0.00000000000E+00  0.00000000000E+00  0.45593999997E+02  0.45594000000E+02  0.51100000000E-03 0. -1.
         11   -1    0    0    0    0 -0.00000000000E+00 -0.00000000000E+00 -0.45593999997E+02  0.45594000000E+02  0.51100000000E-03 0.  1.
    9900012    2    1    2    0    0  0.21446188656E+02  0.74345927714E+01 -0.33733567209E+02  0.50528859156E+02  0.29999997890E+02 0.  0.
         12    1    1    2    0    0 -0.21446188656E+02 -0.74345927714E+01  0.33733567209E+02  0.40659140844E+02  0.00000000000E+00 0. -1.
         11    1    3    3    0    0  0.45647676890E+01 -0.35364524430E+01 -0.18650172024E+01  0.60681042643E+01  0.51100000000E-03 0. -1.
        -11    1    3    3    0    0  0.35508749205E+01  0.51695139165E+01 -0.28963958635E+02  0.29635173138E+02  0.51100000000E-03 0.  1.
        -12    1    3    3    0    0  0.13330546047E+02  0.58015312979E+01 -0.29045913716E+01  0.14825581754E+02  0.00000000000E+00 0.  1.
</event>
<event>
 7    1  0.5946946E-013  0.5052885E+02  0.7816164E-02  0.1300439E+00
        -11   -1    0    0    0    0  0.00000000000E+00  0.00000000000E+00  0.45593999997E+02  0.45594000000E+02  0.51100000000E-03 0.  1.
         11   -1    0    0    0    0 -0.00000000000E+00 -0.00000000000E+00 -0.45593999997E+02  0.45594000000E+02  0.51100000000E-03 0. -1.
    9900012    2    1    2    0    0  0.15618523978E+02 -0.37324663942E+02  0.40121400844E+01  0.50528854686E+02  0.29999984302E+02 0.  0.
         12    1    1    2    0    0 -0.15618523978E+02  0.37324663942E+02 -0.40121400844E+01  0.40659145314E+02  0.00000000000E+00 0. -1.
         11    1    3    3    0    0  0.10568952804E+02 -0.11645872864E+02  0.41181673790E+01  0.16256949928E+02  0.51100000000E-03 0. -1.
        -11    1    3    3    0    0  0.14541004749E+01 -0.28238702680E+02 -0.37820022719E+01  0.28527921036E+02  0.51100000000E-03 0.  1.
        -12    1    3    3    0    0  0.35954706989E+01  0.25599116014E+01  0.36759749773E+01  0.57439837211E+01  0.00000000000E+00 0.  1.
</event>
<event>
 7    1  0.5946946E-013  0.5052882E+02  0.7816164E-02  0.1300439E+00
        -11   -1    0    0    0    0  0.00000000000E+00  0.00000000000E+00  0.45593999997E+02  0.45594000000E+02  0.51100000000E-03 0. -1.
         11   -1    0    0    0    0 -0.00000000000E+00 -0.00000000000E+00 -0.45593999997E+02  0.45594000000E+02  0.51100000000E-03 0.  1.
    9900012    2    1    2    0    0  0.18644233078E+01  0.40514233878E+02 -0.28791186714E+01  0.50528824586E+02  0.29999892813E+02 0.  0.
         12    1    1    2    0    0 -0.18644233078E+01 -0.40514233878E+02  0.28791186714E+01  0.40659175414E+02  0.00000000000E+00 0. -1.
         11    1    3    3    0    0 -0.10465083213E+01 -0.41988087162E+01  0.30119615529E+01  0.52722942784E+01  0.51100000000E-03 0. -1.
        -11    1    3    3    0    0  0.26109610917E+01  0.23116796751E+02 -0.25929782223E+01  0.23407839417E+02  0.51100000000E-03 0.  1.
         12    1    3    3    0    0  0.29997053739E+00  0.21596245843E+02 -0.32981020020E+01  0.21848690891E+02  0.00000000000E+00 0. -1.
</event>
<event>
 7    1  0.5946946E-013  0.5052886E+02  0.7816164E-02  0.1300439E+00
        -11   -1    0    0    0    0  0.00000000000E+00  0.00000000000E+00  0.45593999997E+02  0.45594000000E+02  0.51100000000E-03 0.  1.
         11   -1    0    0    0    0 -0.00000000000E+00 -0.00000000000E+00 -0.45593999997E+02  0.45594000000E+02  0.51100000000E-03 0. -1.
    9900012    2    1    2    0    0 -0.30132511942E+02  0.16319076574E+02  0.21883446723E+02  0.50528858634E+02  0.29999996304E+02 0.  0.
         12    1    1    2    0    0  0.30132511942E+02 -0.16319076574E+02 -0.21883446723E+02  0.40659141366E+02  0.00000000000E+00 0. -1.
         11    1    3    3    0    0  0.11693845851E+01  0.99049633582E+01 -0.80342130576E+00  0.10006060438E+02  0.51100000000E-03 0. -1.
        -11    1    3    3    0    0 -0.20549751737E+02  0.55049628889E+00  0.18273362378E+02  0.27504747144E+02  0.51100000000E-03 0.  1.
        -12    1    3    3    0    0 -0.10752144790E+02  0.58636169271E+01  0.44135056508E+01  0.13018051052E+02  0.00000000000E+00 0.  1.
</event>
<event>
 7    1  0.5946946E-013  0.5052884E+02  0.7816164E-02  0.1300439E+00
        -11   -1    0    0    0    0  0.00000000000E+00  0.00000000000E+00  0.45593999997E+02  0.45594000000E+02  0.51100000000E-03 0.  1.
         11   -1    0    0    0    0 -0.00000000000E+00 -0.00000000000E+00 -0.45593999997E+02  0.45594000000E+02  0.51100000000E-03 0. -1.
    9900012    2    1    2    0    0 -0.23802814367E+02 -0.13756914179E+02  0.29955645261E+02  0.50528839377E+02  0.29999937771E+02 0.  0.
         12    1    1    2    0    0  0.23802814367E+02  0.13756914179E+02 -0.29955645261E+02  0.40659160623E+02  0.00000000000E+00 0. -1.
         11    1    3    3    0    0  0.95095826740E+00 -0.46511303870E+01 -0.41651571277E+00  0.47655871730E+01  0.51100000000E-03 0. -1.
        -11    1    3    3    0    0 -0.22085429456E+02 -0.15036499068E+02  0.28342059259E+02  0.38950414911E+02  0.51100000000E-03 0.  1.
        -12    1    3    3    0    0 -0.26683431785E+01  0.59307152761E+01  0.20301017152E+01  0.68128372928E+01  0.00000000000E+00 0.  1.
</event>
<event>
 7    1  0.5946946E-013  0.5052887E+02  0.7816164E-02  0.1300439E+00
        -11   -1    0    0    0    0  0.00000000000E+00  0.00000000000E+00  0.45593999997E+02  0.45594000000E+02  0.51100000000E-03 0.  1.
         11   -1    0    0    0    0 -0.00000000000E+00 -0.00000000000E+00 -0.45593999997E+02  0.45594000000E+02  0.51100000000E-03 0. -1.
    9900012    2    1    2    0    0 -0.38000899499E+02  0.12240499208E+02  0.76984805211E+01  0.50528870817E+02  0.30000033335E+02 0.  0.
         12    1    1    2    0    0  0.38000899499E+02 -0.12240499208E+02 -0.76984805211E+01  0.40659129183E+02  0.00000000000E+00 0. -1.
         11    1    3    3    0    0  0.36505357834E+01 -0.27547748521E+01  0.30470375638E+01  0.54954193805E+01  0.51100000000E-03 0. -1.
        -11    1    3    3    0    0 -0.31246020523E+02  0.83022153569E+01  0.20807499649E+01  0.32397069297E+02  0.51100000000E-03 0.  1.
         12    1    3    3    0    0 -0.10405414760E+02  0.66930587027E+01  0.25706929924E+01  0.12636382140E+02  0.00000000000E+00 0. -1.
</event>
<event>
 7    1  0.5946946E-013  0.5052886E+02  0.7816164E-02  0.1300439E+00
        -11   -1    0    0    0    0  0.00000000000E+00  0.00000000000E+00  0.45593999997E+02  0.45594000000E+02  0.51100000000E-03 0. -1.
         11   -1    0    0    0    0 -0.00000000000E+00 -0.00000000000E+00 -0.45593999997E+02  0.45594000000E+02  0.51100000000E-03 0.  1.
    9900012    2    1    2    0    0  0.42152823678E+01  0.21053399898E+02 -0.34527543603E+02  0.50528861790E+02  0.30000005897E+02 0.  0.
         12    1    1    2    0    0 -0.42152823678E+01 -0.21053399898E+02  0.34527543603E+02  0.40659138210E+02  0.00000000000E+00 0. -1.
         11    1    3    3    0    0  0.33544833267E+01  0.97091421220E+01 -0.51529289509E+01  0.11492287682E+02  0.51100000000E-03 0. -1.
        -11    1    3    3    0    0  0.83708630462E+01  0.11571262589E+01 -0.23709340795E+02  0.25170282686E+02  0.51100000000E-03 0.  1.
        -12    1    3    3    0    0 -0.75100640050E+01  0.10187131517E+02 -0.56652738572E+01  0.13866291422E+02  0.00000000000E+00 0.  1.
</event>
<event>
 7    1  0.5946946E-013  0.5052890E+02  0.7816164E-02  0.1300439E+00
        -11   -1    0    0    0    0  0.00000000000E+00  0.00000000000E+00  0.45593999997E+02  0.45594000000E+02  0.51100000000E-03 0.  1.
         11   -1    0    0    0    0 -0.00000000000E+00 -0.00000000000E+00 -0.45593999997E+02  0.45594000000E+02  0.51100000000E-03 0. -1.
    9900012    2    1    2    0    0 -0.10603765233E+02 -0.78543051488E+01  0.38458185876E+02  0.50528904986E+02  0.30000137196E+02 0.  0.
         12    1    1    2    0    0  0.10603765233E+02  0.78543051488E+01 -0.38458185876E+02  0.40659095014E+02  0.00000000000E+00 0. -1.
         11    1    3    3    0    0 -0.80500747345E+01  0.79257212740E+01  0.75588350924E+01  0.13592525489E+02  0.51100000000E-03 0. -1.
        -11    1    3    3    0    0 -0.45977252455E+01 -0.14737571217E+02  0.17476082952E+02  0.23318416722E+02  0.51100000000E-03 0.  1.
        -12    1    3    3    0    0  0.20440347468E+01 -0.10424552059E+01  0.13423267831E+02  0.13617962776E+02  0.00000000000E+00 0.  1.
</event>
<event>
 7    1  0.5946946E-013  0.5052885E+02  0.7816164E-02  0.1300439E+00
        -11   -1    0    0    0    0  0.00000000000E+00  0.00000000000E+00  0.45593999997E+02  0.45594000000E+02  0.51100000000E-03 0.  1.
         11   -1    0    0    0    0 -0.00000000000E+00 -0.00000000000E+00 -0.45593999997E+02  0.45594000000E+02  0.51100000000E-03 0. -1.
    9900012    2    1    2    0    0 -0.53269307294E+01 -0.61359140491E+00  0.40304012780E+02  0.50528854269E+02  0.29999983036E+02 0.  0.
         12    1    1    2    0    0  0.53269307294E+01  0.61359140491E+00 -0.40304012780E+02  0.40659145731E+02  0.00000000000E+00 0. -1.
         11    1    3    3    0    0 -0.13788289707E+01  0.13286694969E+02  0.12828790540E+02  0.18520672220E+02  0.51100000000E-03 0. -1.
        -11    1    3    3    0    0 -0.45375559800E+01 -0.14722147723E+02  0.25939580913E+02  0.30169403475E+02  0.51100000000E-03 0.  1.
        -12    1    3    3    0    0  0.58945422124E+00  0.82186134913E+00  0.15356413276E+01  0.18387785737E+01  0.00000000000E+00 0.  1.
</event>
<event>
 7    1  0.5946946E-013  0.5052886E+02  0.7816164E-02  0.1300439E+00
        -11   -1    0    0    0    0  0.00000000000E+00  0.00000000000E+00  0.45593999997E+02  0.45594000000E+02  0.51100000000E-03 0.  1.
         11   -1    0    0    0    0 -0.00000000000E+00 -0.00000000000E+00 -0.45593999997E+02  0.45594000000E+02  0.51100000000E-03 0. -1.
    9900012    2    1    2    0    0  0.38705833674E+02 -0.21819355508E+01  0.12258203935E+02  0.50528856295E+02  0.29999989194E+02 0.  0.
         12    1    1    2    0    0 -0.38705833674E+02  0.21819355508E+01 -0.12258203935E+02  0.40659143705E+02  0.00000000000E+00 0. -1.
         11    1    3    3    0    0  0.12159260871E+02 -0.96385070269E+00 -0.81693892351E+01  0.14680448012E+02  0.51100000000E-03 0. -1.
        -11    1    3    3    0    0  0.19030393745E+02  0.49935223532E+01  0.14454533689E+02  0.24413617020E+02  0.51100000000E-03 0.  1.
        -12    1    3    3    0    0  0.75161790571E+01 -0.62116072013E+01  0.59730594814E+01  0.11434791262E+02  0.00000000000E+00 0.  1.
</event>
<event>
 7    1  0.5946946E-013  0.5052887E+02  0.7816164E-02  0.1300439E+00
        -11   -1    0    0    0    0  0.00000000000E+00  0.00000000000E+00  0.45593999997E+02  0.45594000000E+02  0.51100000000E-03 0. -1.
         11   -1    0    0    0    0 -0.00000000000E+00 -0.00000000000E+00 -0.45593999997E+02  0.45594000000E+02  0.51100000000E-03 0.  1.
    9900012    2    1    2    0    0 -0.38567624698E+02 -0.95762272145E+01  0.86022634744E+01  0.50528871389E+02  0.30000035075E+02 0.  0.
         12    1    1    2    0    0  0.38567624698E+02  0.95762272145E+01 -0.86022634744E+01  0.40659128611E+02  0.00000000000E+00 0. -1.
         11    1    3    3    0    0 -0.16349192545E+02  0.64545762461E+01 -0.24686334817E+01  0.17749698671E+02  0.51100000000E-03 0. -1.
        -11    1    3    3    0    0 -0.22827865891E+02 -0.16710526239E+02  0.77468070335E+01  0.29331999042E+02  0.51100000000E-03 0.  1.
         12    1    3    3    0    0  0.60943373842E+00  0.67972277868E+00  0.33240899225E+01  0.34471736757E+01  0.00000000000E+00 0. -1.
</event>
<event>
 7    1  0.5946946E-013  0.5052890E+02  0.7816164E-02  0.1300439E+00
        -11   -1    0    0    0    0  0.00000000000E+00  0.00000000000E+00  0.45593999997E+02  0.45594000000E+02  0.51100000000E-03 0.  1.
         11   -1    0    0    0    0 -0.00000000000E+00 -0.00000000000E+00 -0.45593999997E+02  0.45594000000E+02  0.51100000000E-03 0. -1.
    9900012    2    1    2    0    0 -0.21736526769E+02 -0.48050370643E+01  0.34023479609E+02  0.50528903332E+02  0.30000132168E+02 0.  0.
         12    1    1    2    0    0  0.21736526769E+02  0.48050370643E+01 -0.34023479609E+02  0.40659096668E+02  0.00000000000E+00 0. -1.
         11    1    3    3    0    0 -0.43193747758E+01 -0.54496172370E+01  0.68006143659E+00  0.69869743311E+01  0.51100000000E-03 0. -1.
        -11    1    3    3    0    0 -0.79073286087E+01  0.71572011911E+01  0.29942761258E+01  0.11077773440E+02  0.51100000000E-03 0.  1.
        -12    1    3    3    0    0 -0.95098233844E+01 -0.65126210184E+01  0.30349142046E+02  0.32464155561E+02  0.00000000000E+00 0.  1.
</event>
<event>
 7    1  0.5946946E-013  0.5052886E+02  0.7816164E-02  0.1300439E+00
        -11   -1    0    0    0    0  0.00000000000E+00  0.00000000000E+00  0.45593999997E+02  0.45594000000E+02  0.51100000000E-03 0.  1.
         11   -1    0    0    0    0 -0.00000000000E+00 -0.00000000000E+00 -0.45593999997E+02  0.45594000000E+02  0.51100000000E-03 0. -1.
    9900012    2    1    2    0    0  0.51232138338E+01  0.18743496690E+02  0.35715538559E+02  0.50528859789E+02  0.29999999814E+02 0.  0.
         12    1    1    2    0    0 -0.51232138338E+01 -0.18743496690E+02 -0.35715538559E+02  0.40659140211E+02  0.00000000000E+00 0. -1.
         11    1    3    3    0    0  0.78197357688E+01  0.18961243592E+02  0.14410071815E+02  0.25066455593E+02  0.51100000000E-03 0. -1.
        -11    1    3    3    0    0 -0.52235325189E+00 -0.26710360085E+01  0.21952951381E+02  0.22121016271E+02  0.51100000000E-03 0.  1.
         12    1    3    3    0    0 -0.21741686831E+01  0.24532891071E+01 -0.64748463710E+00  0.33413879243E+01  0.00000000000E+00 0. -1.
</event>
<event>
 7    1  0.5946946E-013  0.5052885E+02  0.7816164E-02  0.1300439E+00
        -11   -1    0    0    0    0  0.00000000000E+00  0.00000000000E+00  0.45593999997E+02  0.45594000000E+02  0.51100000000E-03 0.  1.
         11   -1    0    0    0    0 -0.00000000000E+00 -0.00000000000E+00 -0.45593999997E+02  0.45594000000E+02  0.51100000000E-03 0. -1.
    9900012    2    1    2    0    0  0.36606667901E+02  0.95179567434E+01  0.14917320890E+02  0.50528854683E+02  0.29999984293E+02 0.  0.
         12    1    1    2    0    0 -0.36606667901E+02 -0.95179567434E+01 -0.14917320890E+02  0.40659145317E+02  0.00000000000E+00 0. -1.
         11    1    3    3    0    0  0.43299894091E+01  0.89274167783E+01 -0.15559905359E+00  0.99232953167E+01  0.51100000000E-03 0. -1.
        -11    1    3    3    0    0  0.97316586730E+01 -0.73252680886E+01  0.10908335456E+02  0.16351040205E+02  0.51100000000E-03 0.  1.
        -12    1    3    3    0    0  0.22545019819E+02  0.79158080537E+01  0.41645844877E+01  0.24254519161E+02  0.00000000000E+00 0.  1.
</event>
<event>
 7    1  0.5946946E-013  0.5052885E+02  0.7816164E-02  0.1300439E+00
        -11   -1    0    0    0    0  0.00000000000E+00  0.00000000000E+00  0.45593999997E+02  0.45594000000E+02  0.51100000000E-03 0. -1.
         11   -1    0    0    0    0 -0.00000000000E+00 -0.00000000000E+00 -0.45593999997E+02  0.45594000000E+02  0.51100000000E-03 0.  1.
    9900012    2    1    2    0    0  0.22617253171E+02 -0.33573705552E+02  0.37990263745E+01  0.50528850391E+02  0.29999971250E+02 0.  0.
         12    1    1    2    0    0 -0.22617253171E+02  0.33573705552E+02 -0.37990263745E+01  0.40659149609E+02  0.00000000000E+00 0. -1.
         11    1    3    3    0    0  0.89593670924E+01 -0.13105598691E+02  0.11040893950E+02  0.19337226151E+02  0.51100000000E-03 0. -1.
        -11    1    3    3    0    0  0.15371027577E+02 -0.80161534640E+01 -0.67784751708E+01  0.18613837085E+02  0.51100000000E-03 0.  1.
         12    1    3    3    0    0 -0.17131414984E+01 -0.12451953398E+02 -0.46339240435E+00  0.12577787155E+02  0.00000000000E+00 0. -1.
</event>
<event>
 7    1  0.5946946E-013  0.5052883E+02  0.7816164E-02  0.1300439E+00
        -11   -1    0    0    0    0  0.00000000000E+00  0.00000000000E+00  0.45593999997E+02  0.45594000000E+02  0.51100000000E-03 0. -1.
         11   -1    0    0    0    0 -0.00000000000E+00 -0.00000000000E+00 -0.45593999997E+02  0.45594000000E+02  0.51100000000E-03 0.  1.
    9900012    2    1    2    0    0  0.24768678311E+02 -0.23315279031E+02 -0.22272812195E+02  0.50528833449E+02  0.29999919752E+02 0.  0.
         12    1    1    2    0    0 -0.24768678311E+02  0.23315279031E+02  0.22272812195E+02  0.40659166551E+02  0.00000000000E+00 0. -1.
         11    1    3    3    0    0 -0.15888050312E+01 -0.33314119868E+01  0.30805905815E+01  0.48075613199E+01  0.51100000000E-03 0. -1.
        -11    1    3    3    0    0  0.17638925394E+02 -0.36657419014E+01 -0.18940321646E+02  0.26140105911E+02  0.51100000000E-03 0.  1.
        -12    1    3    3    0    0  0.87185579479E+01 -0.16318125143E+02 -0.64130811306E+01  0.19581166218E+02  0.00000000000E+00 0.  1.
</event>
<event>
 7    1  0.5946946E-013  0.5052886E+02  0.7816164E-02  0.1300439E+00
        -11   -1    0    0    0    0  0.00000000000E+00  0.00000000000E+00  0.45593999997E+02  0.45594000000E+02  0.51100000000E-03 0.  1.
         11   -1    0    0    0    0 -0.00000000000E+00 -0.00000000000E+00 -0.45593999997E+02  0.45594000000E+02  0.51100000000E-03 0. -1.
    9900012    2    1    2    0    0 -0.33624937233E+02  0.12025980403E+02  0.19439780063E+02  0.50528860100E+02  0.30000000759E+02 0.  0.
         12    1    1    2    0    0  0.33624937233E+02 -0.12025980403E+02 -0.19439780063E+02  0.40659139900E+02  0.00000000000E+00 0. -1.
         11    1    3    3    0    0 -0.10545239994E+02 -0.90572336963E+01  0.64839025558E+01  0.15338727502E+02  0.51100000000E-03 0. -1.
        -11    1    3    3    0    0 -0.16859920926E+02  0.17784146205E+02  0.58654248882E+01  0.25197936409E+02  0.51100000000E-03 0.  1.
        -12    1    3    3    0    0 -0.62197763121E+01  0.32990678937E+01  0.70904526187E+01  0.99921961889E+01  0.00000000000E+00 0.  1.
</event>
<event>
 7    1  0.5946946E-013  0.5052885E+02  0.7816164E-02  0.1300439E+00
        -11   -1    0    0    0    0  0.00000000000E+00  0.00000000000E+00  0.45593999997E+02  0.45594000000E+02  0.51100000000E-03 0. -1.
         11   -1    0    0    0    0 -0.00000000000E+00 -0.00000000000E+00 -0.45593999997E+02  0.45594000000E+02  0.51100000000E-03 0.  1.
    9900012    2    1    2    0    0 -0.19863945817E+02 -0.22960967114E+02 -0.27044111487E+02  0.50528851948E+02  0.29999975980E+02 0.  0.
         12    1    1    2    0    0  0.19863945817E+02  0.22960967114E+02  0.27044111487E+02  0.40659148052E+02  0.00000000000E+00 0. -1.
         11    1    3    3    0    0 -0.15154991231E+02 -0.14313705044E+01 -0.11118680743E+02  0.18850666897E+02  0.51100000000E-03 0. -1.
        -11    1    3    3    0    0  0.18390302701E+01 -0.19426733822E+02 -0.15253820344E+02  0.24768105593E+02  0.51100000000E-03 0.  1.
        -12    1    3    3    0    0 -0.65479848562E+01 -0.21028627871E+01 -0.67161040007E+00  0.69100794574E+01  0.00000000000E+00 0.  1.
</event>
<event>
 7    1  0.5946946E-013  0.5052887E+02  0.7816164E-02  0.1300439E+00
        -11   -1    0    0    0    0  0.00000000000E+00  0.00000000000E+00  0.45593999997E+02  0.45594000000E+02  0.51100000000E-03 0.  1.
         11   -1    0    0    0    0 -0.00000000000E+00 -0.00000000000E+00 -0.45593999997E+02  0.45594000000E+02  0.51100000000E-03 0. -1.
    9900012    2    1    2    0    0 -0.38242465944E+01  0.39720561073E+02 -0.77985043608E+01  0.50528874281E+02  0.30000043866E+02 0.  0.
         12    1    1    2    0    0  0.38242465944E+01 -0.39720561073E+02  0.77985043608E+01  0.40659125719E+02  0.00000000000E+00 0. -1.
         11    1    3    3    0    0 -0.59190726957E+01  0.74157578815E+01 -0.11920910212E+02  0.15236042369E+02  0.51100000000E-03 0. -1.
        -11    1    3    3    0    0 -0.47353275739E+01  0.14387887838E+02  0.53870446943E+01  0.16076532414E+02  0.51100000000E-03 0.  1.
         12    1    3    3    0    0  0.68301536752E+01  0.17916915353E+02 -0.12646388434E+01  0.19216299498E+02  0.00000000000E+00 0. -1.
</event>
<event>
 7    1  0.5946946E-013  0.5052886E+02  0.7816164E-02  0.1300439E+00
        -11   -1    0    0    0    0  0.00000000000E+00  0.00000000000E+00  0.45593999997E+02  0.45594000000E+02  0.51100000000E-03 0. -1.
         11   -1    0    0    0    0 -0.00000000000E+00 -0.00000000000E+00 -0.45593999997E+02  0.45594000000E+02  0.51100000000E-03 0.  1.
    9900012    2    1    2    0    0 -0.18912446937E+02  0.35848326109E+02 -0.32222157568E+01  0.50528858244E+02  0.29999995118E+02 0.  0.
         12    1    1    2    0    0  0.18912446937E+02 -0.35848326109E+02  0.32222157568E+01  0.40659141756E+02  0.00000000000E+00 0. -1.
         11    1    3    3    0    0 -0.14868803871E+01  0.13290495007E+00  0.77482521129E+00  0.16819130121E+01  0.51100000000E-03 0. -1.
        -11    1    3    3    0    0  0.52202283353E+01  0.15047802883E+01  0.43741027218E+01  0.69748062677E+01  0.51100000000E-03 0.  1.
        -12    1    3    3    0    0 -0.22645794885E+02  0.34210640870E+02 -0.83711436899E+01  0.41872138964E+02  0.00000000000E+00 0.  1.
</event>
<event>
 7    1  0.5946946E-013  0.5052886E+02  0.7816164E-02  0.1300439E+00
        -11   -1    0    0    0    0  0.00000000000E+00  0.00000000000E+00  0.45593999997E+02  0.45594000000E+02  0.51100000000E-03 0.  1.
         11   -1    0    0    0    0 -0.00000000000E+00 -0.00000000000E+00 -0.45593999997E+02  0.45594000000E+02  0.51100000000E-03 0. -1.
    9900012    2    1    2    0    0 -0.35262021648E+01  0.61374407805E+01  0.40038271797E+02  0.50528862165E+02  0.30000007035E+02 0.  0.
         12    1    1    2    0    0  0.35262021648E+01 -0.61374407805E+01 -0.40038271797E+02  0.40659137835E+02  0.00000000000E+00 0. -1.
         11    1    3    3    0    0 -0.87447855785E+01  0.68939450964E+01  0.20075316802E+02  0.22956831200E+02  0.51100000000E-03 0.  1.
        -11    1    3    3    0    0  0.11098123048E+02 -0.12868593828E+01  0.66324196267E+01  0.12992818502E+02  0.51100000000E-03 0. -1.
         12    1    3    3    0    0 -0.58795396344E+01  0.53035506688E+00  0.13330535368E+02  0.14579212462E+02  0.00000000000E+00 0. -1.
</event>
<event>
 7    1  0.5946946E-013  0.5052889E+02  0.7816164E-02  0.1300439E+00
        -11   -1    0    0    0    0  0.00000000000E+00  0.00000000000E+00  0.45593999997E+02  0.45594000000E+02  0.51100000000E-03 0. -1.
         11   -1    0    0    0    0 -0.00000000000E+00 -0.00000000000E+00 -0.45593999997E+02  0.45594000000E+02  0.51100000000E-03 0.  1.
    9900012    2    1    2    0    0 -0.24107756727E+02 -0.20975012997E+02 -0.25140172886E+02  0.50528887892E+02  0.30000085238E+02 0.  0.
         12    1    1    2    0    0  0.24107756727E+02  0.20975012997E+02  0.25140172886E+02  0.40659112108E+02  0.00000000000E+00 0. -1.
         11    1    3    3    0    0 -0.17278722419E+02 -0.84184083301E+01 -0.31577757995E+01  0.19478074738E+02  0.51100000000E-03 0. -1.
        -11    1    3    3    0    0 -0.57561648588E+01 -0.15222558251E+02 -0.22846157308E+02  0.28050073398E+02  0.51100000000E-03 0.  1.
        -12    1    3    3    0    0 -0.10728694490E+01  0.26659535844E+01  0.86376022125E+00  0.30007397569E+01  0.00000000000E+00 0.  1.
</event>
<event>
 7    1  0.5946946E-013  0.5052885E+02  0.7816164E-02  0.1300439E+00
        -11   -1    0    0    0    0  0.00000000000E+00  0.00000000000E+00  0.45593999997E+02  0.45594000000E+02  0.51100000000E-03 0.  1.
         11   -1    0    0    0    0 -0.00000000000E+00 -0.00000000000E+00 -0.45593999997E+02  0.45594000000E+02  0.51100000000E-03 0. -1.
    9900012    2    1    2    0    0 -0.17307746703E+02  0.20371889183E+01  0.36734968032E+02  0.50528854522E+02  0.29999983806E+02 0.  0.
         12    1    1    2    0    0  0.17307746703E+02 -0.20371889183E+01 -0.36734968032E+02  0.40659145478E+02  0.00000000000E+00 0. -1.
         11    1    3    3    0    0  0.17374084477E+01  0.97615531272E+01  0.12179178789E+02  0.15704741443E+02  0.51100000000E-03 0. -1.
        -11    1    3    3    0    0 -0.17393405692E+02 -0.95786599916E+00  0.19894336338E+02  0.26443008290E+02  0.51100000000E-03 0.  1.
        -12    1    3    3    0    0 -0.16517494594E+01 -0.67664982097E+01  0.46614529060E+01  0.83811047896E+01  0.00000000000E+00 0.  1.
</event>
<event>
 7    1  0.5946946E-013  0.5052887E+02  0.7816164E-02  0.1300439E+00
        -11   -1    0    0    0    0  0.00000000000E+00  0.00000000000E+00  0.45593999997E+02  0.45594000000E+02  0.51100000000E-03 0. -1.
         11   -1    0    0    0    0 -0.00000000000E+00 -0.00000000000E+00 -0.45593999997E+02  0.45594000000E+02  0.51100000000E-03 0.  1.
    9900012    2    1    2    0    0 -0.22418521239E+02 -0.33095864064E+02 -0.74322772477E+01  0.50528867474E+02  0.30000023174E+02 0.  0.
         12    1    1    2    0    0  0.22418521239E+02  0.33095864064E+02  0.74322772477E+01  0.40659132526E+02  0.00000000000E+00 0. -1.
         11    1    3    3    0    0  0.46342831007E+00 -0.37974370064E+01  0.66820093663E+01  0.76996456443E+01  0.51100000000E-03 0. -1.
        -11    1    3    3    0    0 -0.42049656439E+01 -0.80950563055E+01 -0.11167779918E+02  0.14419812107E+02  0.51100000000E-03 0.  1.
        -12    1    3    3    0    0 -0.18676983905E+02 -0.21203370752E+02 -0.29465066961E+01  0.28409409722E+02  0.00000000000E+00 0.  1.
</event>
<event>
 7    1  0.5946946E-013  0.5052886E+02  0.7816164E-02  0.1300439E+00
        -11   -1    0    0    0    0  0.00000000000E+00  0.00000000000E+00  0.45593999997E+02  0.45594000000E+02  0.51100000000E-03 0.  1.
         11   -1    0    0    0    0 -0.00000000000E+00 -0.00000000000E+00 -0.45593999997E+02  0.45594000000E+02  0.51100000000E-03 0. -1.
    9900012    2    1    2    0    0  0.33363352346E+02  0.22239943057E+02 -0.67407337397E+01  0.50528857876E+02  0.29999993999E+02 0.  0.
         12    1    1    2    0    0 -0.33363352346E+02 -0.22239943057E+02  0.67407337397E+01  0.40659142124E+02  0.00000000000E+00 0. -1.
         11    1    3    3    0    0  0.16461041566E+02  0.20106715657E+02 -0.70778142458E+01  0.26932162162E+02  0.51100000000E-03 0. -1.
        -11    1    3    3    0    0  0.10774410113E+02  0.44986701281E+00  0.81561564713E+01  0.13520842513E+02  0.51100000000E-03 0.  1.
        -12    1    3    3    0    0  0.61279006671E+01  0.16833603871E+01 -0.78190759651E+01  0.10075853201E+02  0.00000000000E+00 0.  1.
</event>
<event>
 7    1  0.5946946E-013  0.5052885E+02  0.7816164E-02  0.1300439E+00
        -11   -1    0    0    0    0  0.00000000000E+00  0.00000000000E+00  0.45593999997E+02  0.45594000000E+02  0.51100000000E-03 0. -1.
         11   -1    0    0    0    0 -0.00000000000E+00 -0.00000000000E+00 -0.45593999997E+02  0.45594000000E+02  0.51100000000E-03 0.  1.
    9900012    2    1    2    0    0 -0.26018816776E+02 -0.19401029582E+02 -0.24490566136E+02  0.50528848448E+02  0.29999965341E+02 0.  0.
         12    1    1    2    0    0  0.26018816776E+02  0.19401029582E+02  0.24490566136E+02  0.40659151552E+02  0.00000000000E+00 0. -1.
         11    1    3    3    0    0  0.23914152194E+01  0.17456943318E+01  0.22236767683E+01  0.37028440532E+01  0.51100000000E-03 0. -1.
        -11    1    3    3    0    0 -0.21659208630E+02 -0.21362350143E+02 -0.26028332736E+02  0.40036800914E+02  0.51100000000E-03 0.  1.
         12    1    3    3    0    0 -0.67510233648E+01  0.21562622839E+00 -0.68591016825E+00  0.67892034806E+01  0.00000000000E+00 0. -1.
</event>
<event>
 7    1  0.5946946E-013  0.5052889E+02  0.7816164E-02  0.1300439E+00
        -11   -1    0    0    0    0  0.00000000000E+00  0.00000000000E+00  0.45593999997E+02  0.45594000000E+02  0.51100000000E-03 0. -1.
         11   -1    0    0    0    0 -0.00000000000E+00 -0.00000000000E+00 -0.45593999997E+02  0.45594000000E+02  0.51100000000E-03 0.  1.
    9900012    2    1    2    0    0 -0.28091137266E+02 -0.23882859282E+02 -0.17136523310E+02  0.50528887964E+02  0.30000085456E+02 0.  0.
         12    1    1    2    0    0  0.28091137266E+02  0.23882859282E+02  0.17136523310E+02  0.40659112036E+02  0.00000000000E+00 0. -1.
         11    1    3    3    0    0 -0.14319327894E+02 -0.25428432640E+02 -0.13548167624E+02  0.32174542485E+02  0.51100000000E-03 0. -1.
        -11    1    3    3    0    0 -0.11054770532E+02  0.13284409593E+01 -0.76168791391E+01  0.13490350439E+02  0.51100000000E-03 0.  1.
         12    1    3    3    0    0 -0.27170388404E+01  0.21713239917E+00  0.40285234531E+01  0.48639950402E+01  0.00000000000E+00 0. -1.
</event>
<event>
 7    1  0.5946946E-013  0.5052886E+02  0.7816164E-02  0.1300439E+00
        -11   -1    0    0    0    0  0.00000000000E+00  0.00000000000E+00  0.45593999997E+02  0.45594000000E+02  0.51100000000E-03 0.  1.
         11   -1    0    0    0    0 -0.00000000000E+00 -0.00000000000E+00 -0.45593999997E+02  0.45594000000E+02  0.51100000000E-03 0. -1.
    9900012    2    1    2    0    0  0.18528216779E+02  0.30580717991E+02  0.19356926465E+02  0.50528859183E+02  0.29999997972E+02 0.  0.
         12    1    1    2    0    0 -0.18528216779E+02 -0.30580717991E+02 -0.19356926465E+02  0.40659140817E+02  0.00000000000E+00 0. -1.
         11    1    3    3    0    0 -0.22036869356E+01  0.38306003736E+01  0.46678634782E+01  0.64279611887E+01  0.51100000000E-03 0. -1.
        -11    1    3    3    0    0  0.10506314636E+02  0.10549269497E+01 -0.33555398160E+01  0.11079493031E+02  0.51100000000E-03 0.  1.
        -12    1    3    3    0    0  0.10225589079E+02  0.25695190667E+02  0.18044602803E+02  0.33021404963E+02  0.00000000000E+00 0.  1.
</event>
<event>
 7    1  0.5946946E-013  0.5052886E+02  0.7816164E-02  0.1300439E+00
        -11   -1    0    0    0    0  0.00000000000E+00  0.00000000000E+00  0.45593999997E+02  0.45594000000E+02  0.51100000000E-03 0.  1.
         11   -1    0    0    0    0 -0.00000000000E+00 -0.00000000000E+00 -0.45593999997E+02  0.45594000000E+02  0.51100000000E-03 0. -1.
    9900012    2    1    2    0    0 -0.13699191916E+01 -0.32772513427E+02  0.24026056179E+02  0.50528859694E+02  0.29999999525E+02 0.  0.
         12    1    1    2    0    0  0.13699191916E+01  0.32772513427E+02 -0.24026056179E+02  0.40659140306E+02  0.00000000000E+00 0. -1.
         11    1    3    3    0    0 -0.23648531389E+01 -0.47043578792E+00 -0.20977068638E+01  0.31959684834E+01  0.51100000000E-03 0. -1.
        -11    1    3    3    0    0  0.68431647269E+01 -0.27695642117E+02  0.27654945667E+02  0.39732524660E+02  0.51100000000E-03 0.  1.
        -12    1    3    3    0    0 -0.58482307795E+01 -0.46064355219E+01 -0.15311826243E+01  0.76003665502E+01  0.00000000000E+00 0.  1.
</event>
<event>
 7    1  0.5946946E-013  0.5052887E+02  0.7816164E-02  0.1300439E+00
        -11   -1    0    0    0    0  0.00000000000E+00  0.00000000000E+00  0.45593999997E+02  0.45594000000E+02  0.51100000000E-03 0. -1.
         11   -1    0    0    0    0 -0.00000000000E+00 -0.00000000000E+00 -0.45593999997E+02  0.45594000000E+02  0.51100000000E-03 0.  1.
    9900012    2    1    2    0    0  0.54934911806E+01  0.23767369338E+02 -0.32528428196E+02  0.50528869027E+02  0.30000027894E+02 0.  0.
         12    1    1    2    0    0 -0.54934911806E+01 -0.23767369338E+02  0.32528428196E+02  0.40659130973E+02  0.00000000000E+00 0. -1.
         11    1    3    3    0    0 -0.41446207522E+01 -0.70126624615E+00 -0.11329303437E+01  0.43535258070E+01  0.51100000000E-03 0. -1.
        -11    1    3    3    0    0  0.78218671019E+01  0.20383026152E+02 -0.34432257200E+02  0.40770451263E+02  0.51100000000E-03 0.  1.
        -12    1    3    3    0    0  0.18162448309E+01  0.40856094328E+01  0.30367593482E+01  0.54048919566E+01  0.00000000000E+00 0.  1.
</event>
<event>
 7    1  0.5946946E-013  0.5052886E+02  0.7816164E-02  0.1300439E+00
        -11   -1    0    0    0    0  0.00000000000E+00  0.00000000000E+00  0.45593999997E+02  0.45594000000E+02  0.51100000000E-03 0. -1.
         11   -1    0    0    0    0 -0.00000000000E+00 -0.00000000000E+00 -0.45593999997E+02  0.45594000000E+02  0.51100000000E-03 0.  1.
    9900012    2    1    2    0    0 -0.38989316671E+02  0.87952642774E+01 -0.74593606381E+01  0.50528861430E+02  0.30000004802E+02 0.  0.
         12    1    1    2    0    0  0.38989316671E+02 -0.87952642774E+01  0.74593606381E+01  0.40659138570E+02  0.00000000000E+00 0. -1.
         11    1    3    3    0    0 -0.22152553781E+02 -0.56207792440E+01  0.18441000268E+01  0.22928792020E+02  0.51100000000E-03 0. -1.
        -11    1    3    3    0    0 -0.18386376000E+02  0.92394229422E+01 -0.71736309269E+01  0.21791896192E+02  0.51100000000E-03 0.  1.
        -12    1    3    3    0    0  0.15496131101E+01  0.51766205792E+01 -0.21298297379E+01  0.58081732175E+01  0.00000000000E+00 0.  1.
</event>
<event>
 7    1  0.5946946E-013  0.5052889E+02  0.7816164E-02  0.1300439E+00
        -11   -1    0    0    0    0  0.00000000000E+00  0.00000000000E+00  0.45593999997E+02  0.45594000000E+02  0.51100000000E-03 0.  1.
         11   -1    0    0    0    0 -0.00000000000E+00 -0.00000000000E+00 -0.45593999997E+02  0.45594000000E+02  0.51100000000E-03 0. -1.
    9900012    2    1    2    0    0  0.21090812408E+02  0.11399163431E+02  0.32839002518E+02  0.50528888090E+02  0.30000085839E+02 0.  0.
         12    1    1    2    0    0 -0.21090812408E+02 -0.11399163431E+02 -0.32839002518E+02  0.40659111910E+02  0.00000000000E+00 0. -1.
         11    1    3    3    0    0  0.52388703815E+01 -0.51587244439E+01 -0.21530446137E+01  0.76611880365E+01  0.51100000000E-03 0. -1.
        -11    1    3    3    0    0  0.60619637401E+01  0.62659870474E+01  0.60016222944E+01  0.10584397408E+02  0.51100000000E-03 0.  1.
         12    1    3    3    0    0  0.97899782863E+01  0.10291900827E+02  0.28990424837E+02  0.32283302646E+02  0.00000000000E+00 0. -1.
</event>
<event>
 7    1  0.5946946E-013  0.5052887E+02  0.7816164E-02  0.1300439E+00
        -11   -1    0    0    0    0  0.00000000000E+00  0.00000000000E+00  0.45593999997E+02  0.45594000000E+02  0.51100000000E-03 0.  1.
         11   -1    0    0    0    0 -0.00000000000E+00 -0.00000000000E+00 -0.45593999997E+02  0.45594000000E+02  0.51100000000E-03 0. -1.
    9900012    2    1    2    0    0 -0.34880545189E+02  0.12328844552E+02 -0.16867492422E+02  0.50528866448E+02  0.30000020054E+02 0.  0.
         12    1    1    2    0    0  0.34880545189E+02 -0.12328844552E+02  0.16867492422E+02  0.40659133552E+02  0.00000000000E+00 0. -1.
         11    1    3    3    0    0 -0.18528920405E+02  0.88663991208E-01 -0.13405908972E+02  0.22870224055E+02  0.51100000000E-03 0. -1.
        -11    1    3    3    0    0 -0.86728659098E+01  0.16303668314E+02 -0.42036823337E+01  0.18939354503E+02  0.51100000000E-03 0.  1.
         12    1    3    3    0    0 -0.76787588733E+01 -0.40634877530E+01  0.74209888396E+00  0.87192878899E+01  0.00000000000E+00 0. -1.
</event>
<event>
 7    1  0.5946946E-013  0.5052891E+02  0.7816164E-02  0.1300439E+00
        -11   -1    0    0    0    0  0.00000000000E+00  0.00000000000E+00  0.45593999997E+02  0.45594000000E+02  0.51100000000E-03 0.  1.
         11   -1    0    0    0    0 -0.00000000000E+00 -0.00000000000E+00 -0.45593999997E+02  0.45594000000E+02  0.51100000000E-03 0. -1.
    9900012    2    1    2    0    0  0.20201478353E+02  0.21949316605E+02  0.27627696252E+02  0.50528907200E+02  0.30000143926E+02 0.  0.
         12    1    1    2    0    0 -0.20201478353E+02 -0.21949316605E+02 -0.27627696252E+02  0.40659092800E+02  0.00000000000E+00 0. -1.
         11    1    3    3    0    0  0.69854703314E+01  0.20311398874E+02  0.17252883572E+02  0.27550167182E+02  0.51100000000E-03 0.  1.
        -11    1    3    3    0    0  0.23778450452E+01 -0.75346121634E+00 -0.40631909382E+01  0.47677428334E+01  0.51100000000E-03 0. -1.
        -12    1    3    3    0    0  0.10838162976E+02  0.23913789479E+01  0.14438003619E+02  0.18210997185E+02  0.00000000000E+00 0.  1.
</event>
<event>
 7    1  0.5946946E-013  0.5052885E+02  0.7816164E-02  0.1300439E+00
        -11   -1    0    0    0    0  0.00000000000E+00  0.00000000000E+00  0.45593999997E+02  0.45594000000E+02  0.51100000000E-03 0.  1.
         11   -1    0    0    0    0 -0.00000000000E+00 -0.00000000000E+00 -0.45593999997E+02  0.45594000000E+02  0.51100000000E-03 0. -1.
    9900012    2    1    2    0    0 -0.16249735697E+02  0.34759065044E+02 -0.13450635427E+02  0.50528854580E+02  0.29999983980E+02 0.  0.
         12    1    1    2    0    0  0.16249735697E+02 -0.34759065044E+02  0.13450635427E+02  0.40659145420E+02  0.00000000000E+00 0. -1.
         11    1    3    3    0    0 -0.11809347317E+02  0.28261941124E+02 -0.17373209970E+02  0.35214008932E+02  0.51100000000E-03 0. -1.
        -11    1    3    3    0    0 -0.88596206396E+01  0.47400447544E+01  0.27098151457E+01  0.10406920800E+02  0.51100000000E-03 0.  1.
         12    1    3    3    0    0  0.44192322594E+01  0.17570791655E+01  0.12127593971E+01  0.49079248478E+01  0.00000000000E+00 0. -1.
</event>
<event>
 7    1  0.5946946E-013  0.5052889E+02  0.7816164E-02  0.1300439E+00
        -11   -1    0    0    0    0  0.00000000000E+00  0.00000000000E+00  0.45593999997E+02  0.45594000000E+02  0.51100000000E-03 0.  1.
         11   -1    0    0    0    0 -0.00000000000E+00 -0.00000000000E+00 -0.45593999997E+02  0.45594000000E+02  0.51100000000E-03 0. -1.
    9900012    2    1    2    0    0 -0.15087812564E+02 -0.32806877009E+02  0.18687689288E+02  0.50528892804E+02  0.30000100166E+02 0.  0.
         12    1    1    2    0    0  0.15087812564E+02  0.32806877009E+02 -0.18687689288E+02  0.40659107196E+02  0.00000000000E+00 0. -1.
         11    1    3    3    0    0 -0.17633144081E+01 -0.73566067754E+01 -0.45115979344E+01  0.88081472020E+01  0.51100000000E-03 0. -1.
        -11    1    3    3    0    0 -0.92263919058E+01 -0.27565069181E+02  0.16026779396E+02  0.33193628976E+02  0.51100000000E-03 0.  1.
        -12    1    3    3    0    0 -0.40981062497E+01  0.21147989468E+01  0.71725078266E+01  0.85271166253E+01  0.00000000000E+00 0.  1.
</event>
<event>
 7    1  0.5946946E-013  0.5052880E+02  0.7816164E-02  0.1300439E+00
        -11   -1    0    0    0    0  0.00000000000E+00  0.00000000000E+00  0.45593999997E+02  0.45594000000E+02  0.51100000000E-03 0. -1.
         11   -1    0    0    0    0 -0.00000000000E+00 -0.00000000000E+00 -0.45593999997E+02  0.45594000000E+02  0.51100000000E-03 0.  1.
    9900012    2    1    2    0    0  0.20137172335E+00  0.16307240486E+02 -0.37245188848E+02  0.50528797657E+02  0.29999810956E+02 0.  0.
         12    1    1    2    0    0 -0.20137172335E+00 -0.16307240486E+02  0.37245188848E+02  0.40659202343E+02  0.00000000000E+00 0. -1.
         11    1    3    3    0    0  0.56627299417E+01 -0.35549524816E+01 -0.45408619528E+01  0.80823032036E+01  0.51100000000E-03 0. -1.
        -11    1    3    3    0    0 -0.99823781833E+01  0.16859961681E+02 -0.31152431938E+02  0.36801904815E+02  0.51100000000E-03 0.  1.
        -12    1    3    3    0    0  0.45210199650E+01  0.30022312868E+01 -0.15518949573E+01  0.56445896380E+01  0.00000000000E+00 0.  1.
</event>
<event>
 7    1  0.5946946E-013  0.5052886E+02  0.7816164E-02  0.1300439E+00
        -11   -1    0    0    0    0  0.00000000000E+00  0.00000000000E+00  0.45593999997E+02  0.45594000000E+02  0.51100000000E-03 0.  1.
         11   -1    0    0    0    0 -0.00000000000E+00 -0.00000000000E+00 -0.45593999997E+02  0.45594000000E+02  0.51100000000E-03 0. -1.
    9900012    2    1    2    0    0  0.30170144847E+02 -0.20840092962E+02  0.17567546934E+02  0.50528858100E+02  0.29999994682E+02 0.  0.
         12    1    1    2    0    0 -0.30170144847E+02  0.20840092962E+02 -0.17567546934E+02  0.40659141900E+02  0.00000000000E+00 0. -1.
         11    1    3    3    0    0  0.22954840154E+02 -0.74791508662E+01  0.15133795812E+02  0.28493756512E+02  0.51100000000E-03 0. -1.
        -11    1    3    3    0    0  0.74462468546E+01 -0.14676270574E+02 -0.27470964873E+01  0.16684904841E+02  0.51100000000E-03 0.  1.
        -12    1    3    3    0    0 -0.23094216254E+00  0.13153284786E+01  0.51808476090E+01  0.53501967475E+01  0.00000000000E+00 0.  1.
</event>
<event>
 7    1  0.5946946E-013  0.5052887E+02  0.7816164E-02  0.1300439E+00
        -11   -1    0    0    0    0  0.00000000000E+00  0.00000000000E+00  0.45593999997E+02  0.45594000000E+02  0.51100000000E-03 0.  1.
         11   -1    0    0    0    0 -0.00000000000E+00 -0.00000000000E+00 -0.45593999997E+02  0.45594000000E+02  0.51100000000E-03 0. -1.
    9900012    2    1    2    0    0  0.16967472792E+01 -0.39838657057E+02  0.79477872369E+01  0.50528869791E+02  0.30000030216E+02 0.  0.
         12    1    1    2    0    0 -0.16967472792E+01  0.39838657057E+02 -0.79477872369E+01  0.40659130209E+02  0.00000000000E+00 0. -1.
         11    1    3    3    0    0 -0.87385394135E+01 -0.63305266977E+01 -0.65897131606E+00  0.10810729985E+02  0.51100000000E-03 0. -1.
        -11    1    3    3    0    0  0.37367815205E+01 -0.28925892849E+02  0.11132075797E+02  0.31218486911E+02  0.51100000000E-03 0.  1.
         12    1    3    3    0    0  0.66985051723E+01 -0.45822375104E+01 -0.25253172438E+01  0.84996528945E+01  0.00000000000E+00 0. -1.
</event>
<event>
 7    1  0.5946946E-013  0.5052885E+02  0.7816164E-02  0.1300439E+00
        -11   -1    0    0    0    0  0.00000000000E+00  0.00000000000E+00  0.45593999997E+02  0.45594000000E+02  0.51100000000E-03 0.  1.
         11   -1    0    0    0    0 -0.00000000000E+00 -0.00000000000E+00 -0.45593999997E+02  0.45594000000E+02  0.51100000000E-03 0. -1.
    9900012    2    1    2    0    0 -0.10553503809E+02  0.11481130121E+01  0.39248846013E+02  0.50528849498E+02  0.29999968536E+02 0.  0.
         12    1    1    2    0    0  0.10553503809E+02 -0.11481130121E+01 -0.39248846013E+02  0.40659150502E+02  0.00000000000E+00 0. -1.
         11    1    3    3    0    0 -0.82450926673E+00 -0.72825085165E+01  0.15772897545E+01  0.74968386041E+01  0.51100000000E-03 0. -1.
        -11    1    3    3    0    0 -0.71791822747E+01  0.13358306398E+02  0.25779239183E+02  0.29909098634E+02  0.51100000000E-03 0.  1.
        -12    1    3    3    0    0 -0.25498122676E+01 -0.49276848696E+01  0.11892317076E+02  0.13122912261E+02  0.00000000000E+00 0.  1.
</event>
<event>
 7    1  0.5946946E-013  0.5052886E+02  0.7816164E-02  0.1300439E+00
        -11   -1    0    0    0    0  0.00000000000E+00  0.00000000000E+00  0.45593999997E+02  0.45594000000E+02  0.51100000000E-03 0.  1.
         11   -1    0    0    0    0 -0.00000000000E+00 -0.00000000000E+00 -0.45593999997E+02  0.45594000000E+02  0.51100000000E-03 0. -1.
    9900012    2    1    2    0    0  0.29900953392E+02  0.27524258339E+02  0.12304733099E+01  0.50528857419E+02  0.29999992610E+02 0.  0.
         12    1    1    2    0    0 -0.29900953392E+02 -0.27524258339E+02 -0.12304733099E+01  0.40659142581E+02  0.00000000000E+00 0. -1.
         11    1    3    3    0    0  0.19181153087E+02  0.27759265752E+02  0.22574248771E+01  0.33816999219E+02  0.51100000000E-03 0.  1.
        -11    1    3    3    0    0  0.21115516279E+01  0.15094309337E+01 -0.60574004918E+01  0.65900783759E+01  0.51100000000E-03 0. -1.
         12    1    3    3    0    0  0.86082486768E+01 -0.17444383462E+01  0.50304489247E+01  0.10121779824E+02  0.00000000000E+00 0. -1.
</event>
<event>
 7    1  0.5946946E-013  0.5052887E+02  0.7816164E-02  0.1300439E+00
        -11   -1    0    0    0    0  0.00000000000E+00  0.00000000000E+00  0.45593999997E+02  0.45594000000E+02  0.51100000000E-03 0. -1.
         11   -1    0    0    0    0 -0.00000000000E+00 -0.00000000000E+00 -0.45593999997E+02  0.45594000000E+02  0.51100000000E-03 0.  1.
    9900012    2    1    2    0    0  0.24214737268E+02 -0.30796250057E+02 -0.10881295708E+02  0.50528866773E+02  0.30000021043E+02 0.  0.
         12    1    1    2    0    0 -0.24214737268E+02  0.30796250057E+02  0.10881295708E+02  0.40659133227E+02  0.00000000000E+00 0. -1.
         11    1    3    3    0    0 -0.50054689264E+01 -0.11047061165E+01 -0.51838597702E+01  0.72902329973E+01  0.51100000000E-03 0. -1.
        -11    1    3    3    0    0  0.21288139547E+02 -0.18794943221E+02  0.50449277174E+00  0.28402276128E+02  0.51100000000E-03 0.  1.
        -12    1    3    3    0    0  0.79320666475E+01 -0.10896600719E+02 -0.62019287095E+01  0.14836357647E+02  0.00000000000E+00 0.  1.
</event>
<event>
 7    1  0.5946946E-013  0.5052882E+02  0.7816164E-02  0.1300439E+00
        -11   -1    0    0    0    0  0.00000000000E+00  0.00000000000E+00  0.45593999997E+02  0.45594000000E+02  0.51100000000E-03 0. -1.
         11   -1    0    0    0    0 -0.00000000000E+00 -0.00000000000E+00 -0.45593999997E+02  0.45594000000E+02  0.51100000000E-03 0.  1.
    9900012    2    1    2    0    0  0.22439144656E+02 -0.27209675442E+02 -0.20230851176E+02  0.50528819120E+02  0.29999876198E+02 0.  0.
         12    1    1    2    0    0 -0.22439144656E+02  0.27209675442E+02  0.20230851176E+02  0.40659180880E+02  0.00000000000E+00 0. -1.
         11    1    3    3    0    0  0.17052824773E+02 -0.20566799963E+02 -0.66649298385E+01  0.27535674741E+02  0.51100000000E-03 0. -1.
        -11    1    3    3    0    0 -0.58729878877E+01 -0.16956452844E+01 -0.59333893773E+01  0.85189382803E+01  0.51100000000E-03 0.  1.
         12    1    3    3    0    0  0.11259307771E+02 -0.49472301944E+01 -0.76325319599E+01  0.14474206099E+02  0.00000000000E+00 0. -1.
</event>
<event>
 7    1  0.5946946E-013  0.5052884E+02  0.7816164E-02  0.1300439E+00
        -11   -1    0    0    0    0  0.00000000000E+00  0.00000000000E+00  0.45593999997E+02  0.45594000000E+02  0.51100000000E-03 0.  1.
         11   -1    0    0    0    0 -0.00000000000E+00 -0.00000000000E+00 -0.45593999997E+02  0.45594000000E+02  0.51100000000E-03 0. -1.
    9900012    2    1    2    0    0 -0.22488531394E+02 -0.15501379850E+02  0.30118769065E+02  0.50528842710E+02  0.29999947901E+02 0.  0.
         12    1    1    2    0    0  0.22488531394E+02  0.15501379850E+02 -0.30118769065E+02  0.40659157290E+02  0.00000000000E+00 0. -1.
         11    1    3    3    0    0 -0.22435472674E+02 -0.73596707274E+01  0.73348993731E+01  0.24724804072E+02  0.51100000000E-03 0. -1.
        -11    1    3    3    0    0 -0.24097110888E+01 -0.54596421993E+01  0.53707399950E+01  0.80286517443E+01  0.51100000000E-03 0.  1.
         12    1    3    3    0    0  0.23566523682E+01 -0.26820669235E+01  0.17413129697E+02  0.17775386894E+02  0.00000000000E+00 0. -1.
</event>
<event>
 7    1  0.5946946E-013  0.5052885E+02  0.7816164E-02  0.1300439E+00
        -11   -1    0    0    0    0  0.00000000000E+00  0.00000000000E+00  0.45593999997E+02  0.45594000000E+02  0.51100000000E-03 0.  1.
         11   -1    0    0    0    0 -0.00000000000E+00 -0.00000000000E+00 -0.45593999997E+02  0.45594000000E+02  0.51100000000E-03 0. -1.
    9900012    2    1    2    0    0  0.18106250660E+02 -0.21974827930E+02  0.29024763251E+02  0.50528852723E+02  0.29999978337E+02 0.  0.
         12    1    1    2    0    0 -0.18106250660E+02  0.21974827930E+02 -0.29024763251E+02  0.40659147277E+02  0.00000000000E+00 0. -1.
         11    1    3    3    0    0  0.67283331414E+01 -0.19384561860E+02  0.27024651456E+02  0.33931747552E+02  0.51100000000E-03 0.  1.
        -11    1    3    3    0    0  0.99641160135E+01  0.32375653839E+01  0.11362827826E+01  0.10538338406E+02  0.51100000000E-03 0. -1.
        -12    1    3    3    0    0  0.14138015051E+01 -0.58278314531E+01  0.86382901303E+00  0.60587667644E+01  0.00000000000E+00 0.  1.
</event>
<event>
 7    1  0.5946946E-013  0.5052886E+02  0.7816164E-02  0.1300439E+00
        -11   -1    0    0    0    0  0.00000000000E+00  0.00000000000E+00  0.45593999997E+02  0.45594000000E+02  0.51100000000E-03 0. -1.
         11   -1    0    0    0    0 -0.00000000000E+00 -0.00000000000E+00 -0.45593999997E+02  0.45594000000E+02  0.51100000000E-03 0.  1.
    9900012    2    1    2    0    0 -0.99151153172E+01  0.20870061353E+02 -0.33455891477E+02  0.50528860226E+02  0.30000001144E+02 0.  0.
         12    1    1    2    0    0  0.99151153172E+01 -0.20870061353E+02  0.33455891477E+02  0.40659139774E+02  0.00000000000E+00 0. -1.
         11    1    3    3    0    0  0.62745125947E+01  0.64626431104E+00 -0.50001127748E+00  0.63274937692E+01  0.51100000000E-03 0. -1.
        -11    1    3    3    0    0 -0.74933429967E+01  0.16124650722E+02 -0.12922571679E+02  0.21980614396E+02  0.51100000000E-03 0.  1.
         12    1    3    3    0    0 -0.86962849152E+01  0.40991463195E+01 -0.20033308521E+02  0.22220752061E+02  0.00000000000E+00 0. -1.
</event>
<event>
 7    1  0.5946946E-013  0.5052886E+02  0.7816164E-02  0.1300439E+00
        -11   -1    0    0    0    0  0.00000000000E+00  0.00000000000E+00  0.45593999997E+02  0.45594000000E+02  0.51100000000E-03 0.  1.
         11   -1    0    0    0    0 -0.00000000000E+00 -0.00000000000E+00 -0.45593999997E+02  0.45594000000E+02  0.51100000000E-03 0. -1.
    9900012    2    1    2    0    0 -0.44293082532E+01  0.27375193725E+02  0.29734583610E+02  0.50528862460E+02  0.30000007933E+02 0.  0.
         12    1    1    2    0    0  0.44293082532E+01 -0.27375193725E+02 -0.29734583610E+02  0.40659137540E+02  0.00000000000E+00 0. -1.
         11    1    3    3    0    0 -0.87862412692E+01  0.13484319077E+02  0.31124214823E+01  0.16392439243E+02  0.51100000000E-03 0. -1.
        -11    1    3    3    0    0 -0.20592844614E+01  0.46039709522E+01  0.20863664596E+02  0.21464615106E+02  0.51100000000E-03 0.  1.
         12    1    3    3    0    0  0.64162174775E+01  0.92869036960E+01  0.57584975315E+01  0.12671808111E+02  0.00000000000E+00 0. -1.
</event>
<event>
 7    1  0.5946946E-013  0.5052886E+02  0.7816164E-02  0.1300439E+00
        -11   -1    0    0    0    0  0.00000000000E+00  0.00000000000E+00  0.45593999997E+02  0.45594000000E+02  0.51100000000E-03 0. -1.
         11   -1    0    0    0    0 -0.00000000000E+00 -0.00000000000E+00 -0.45593999997E+02  0.45594000000E+02  0.51100000000E-03 0.  1.
    9900012    2    1    2    0    0  0.28752929045E+02  0.19098861836E+02 -0.21486461141E+02  0.50528862473E+02  0.30000007973E+02 0.  0.
         12    1    1    2    0    0 -0.28752929045E+02 -0.19098861836E+02  0.21486461141E+02  0.40659137527E+02  0.00000000000E+00 0. -1.
         11    1    3    3    0    0 -0.17235517239E+01  0.83555396174E+01  0.23011480719E+01  0.88363428834E+01  0.51100000000E-03 0. -1.
        -11    1    3    3    0    0  0.29256145304E+02  0.11559401889E+02 -0.24672474516E+02  0.39978404284E+02  0.51100000000E-03 0.  1.
        -12    1    3    3    0    0  0.12203354648E+01 -0.81607967079E+00  0.88486530375E+00  0.17141153058E+01  0.00000000000E+00 0.  1.
</event>
<event>
 7    1  0.5946946E-013  0.5052887E+02  0.7816164E-02  0.1300439E+00
        -11   -1    0    0    0    0  0.00000000000E+00  0.00000000000E+00  0.45593999997E+02  0.45594000000E+02  0.51100000000E-03 0.  1.
         11   -1    0    0    0    0 -0.00000000000E+00 -0.00000000000E+00 -0.45593999997E+02  0.45594000000E+02  0.51100000000E-03 0. -1.
    9900012    2    1    2    0    0 -0.20366587201E+02 -0.14041815263E+02  0.32267544936E+02  0.50528869337E+02  0.30000028838E+02 0.  0.
         12    1    1    2    0    0  0.20366587201E+02  0.14041815263E+02 -0.32267544936E+02  0.40659130663E+02  0.00000000000E+00 0. -1.
         11    1    3    3    0    0  0.54337967364E+00 -0.35238843712E+01  0.11525748035E+01  0.37471924784E+01  0.51100000000E-03 0. -1.
        -11    1    3    3    0    0 -0.91608411366E+01  0.22242661121E+01  0.27507510673E+02  0.29078024585E+02  0.51100000000E-03 0.  1.
        -12    1    3    3    0    0 -0.11749125738E+02 -0.12742197004E+02  0.36074594587E+01  0.17703652274E+02  0.00000000000E+00 0.  1.
</event>
<event>
 7    1  0.5946946E-013  0.5052886E+02  0.7816164E-02  0.1300439E+00
        -11   -1    0    0    0    0  0.00000000000E+00  0.00000000000E+00  0.45593999997E+02  0.45594000000E+02  0.51100000000E-03 0. -1.
         11   -1    0    0    0    0 -0.00000000000E+00 -0.00000000000E+00 -0.45593999997E+02  0.45594000000E+02  0.51100000000E-03 0.  1.
    9900012    2    1    2    0    0  0.31085847438E+02 -0.88647909252E+01 -0.24662755315E+02  0.50528856762E+02  0.29999990614E+02 0.  0.
         12    1    1    2    0    0 -0.31085847438E+02  0.88647909252E+01  0.24662755315E+02  0.40659143238E+02  0.00000000000E+00 0. -1.
         11    1    3    3    0    0 -0.33885386436E+01 -0.32062381418E+01 -0.50444377828E+01  0.68708449238E+01  0.51100000000E-03 0. -1.
        -11    1    3    3    0    0  0.30478492030E+02 -0.10917006361E+02 -0.15727325757E+02  0.35992614243E+02  0.51100000000E-03 0.  1.
        -12    1    3    3    0    0  0.39958940515E+01  0.52584535777E+01 -0.38909917752E+01  0.76653975953E+01  0.00000000000E+00 0.  1.
</event>
<event>
 7    1  0.5946946E-013  0.5052886E+02  0.7816164E-02  0.1300439E+00
        -11   -1    0    0    0    0  0.00000000000E+00  0.00000000000E+00  0.45593999997E+02  0.45594000000E+02  0.51100000000E-03 0.  1.
         11   -1    0    0    0    0 -0.00000000000E+00 -0.00000000000E+00 -0.45593999997E+02  0.45594000000E+02  0.51100000000E-03 0. -1.
    9900012    2    1    2    0    0 -0.39174205314E+02 -0.92119492366E+01  0.58041079174E+01  0.50528855402E+02  0.29999986481E+02 0.  0.
         12    1    1    2    0    0  0.39174205314E+02  0.92119492366E+01 -0.58041079174E+01  0.40659144598E+02  0.00000000000E+00 0. -1.
         11    1    3    3    0    0 -0.35004896141E+01  0.62382070900E+01 -0.49952694721E+01  0.87247563058E+01  0.51100000000E-03 0. -1.
        -11    1    3    3    0    0 -0.34959715084E+02 -0.15017791410E+02  0.79971598370E+01  0.38880204517E+02  0.51100000000E-03 0.  1.
        -12    1    3    3    0    0 -0.71400061612E+00 -0.43236491664E+00  0.28022175525E+01  0.29238945795E+01  0.00000000000E+00 0.  1.
</event>
<event>
 7    1  0.5946946E-013  0.5052886E+02  0.7816164E-02  0.1300439E+00
        -11   -1    0    0    0    0  0.00000000000E+00  0.00000000000E+00  0.45593999997E+02  0.45594000000E+02  0.51100000000E-03 0.  1.
         11   -1    0    0    0    0 -0.00000000000E+00 -0.00000000000E+00 -0.45593999997E+02  0.45594000000E+02  0.51100000000E-03 0. -1.
    9900012    2    1    2    0    0 -0.36995915456E+02 -0.15895181273E+02  0.56401220289E+01  0.50528861733E+02  0.30000005724E+02 0.  0.
         12    1    1    2    0    0  0.36995915456E+02  0.15895181273E+02 -0.56401220289E+01  0.40659138267E+02  0.00000000000E+00 0. -1.
         11    1    3    3    0    0 -0.74772876956E+01 -0.91545979427E+01  0.85017921308E+01  0.14560115538E+02  0.51100000000E-03 0. -1.
        -11    1    3    3    0    0 -0.97318967547E+01  0.49029110115E+01 -0.65526964329E+01  0.12715588136E+02  0.51100000000E-03 0.  1.
        -12    1    3    3    0    0 -0.19786731005E+02 -0.11643494342E+02  0.36910263310E+01  0.23253158060E+02  0.00000000000E+00 0.  1.
</event>
<event>
 7    1  0.5946946E-013  0.5052884E+02  0.7816164E-02  0.1300439E+00
        -11   -1    0    0    0    0  0.00000000000E+00  0.00000000000E+00  0.45593999997E+02  0.45594000000E+02  0.51100000000E-03 0.  1.
         11   -1    0    0    0    0 -0.00000000000E+00 -0.00000000000E+00 -0.45593999997E+02  0.45594000000E+02  0.51100000000E-03 0. -1.
    9900012    2    1    2    0    0 -0.24403435512E+02 -0.32334666028E+02 -0.34798105885E+01  0.50528838995E+02  0.29999936608E+02 0.  0.
         12    1    1    2    0    0  0.24403435512E+02  0.32334666028E+02  0.34798105885E+01  0.40659161005E+02  0.00000000000E+00 0. -1.
         11    1    3    3    0    0 -0.11303200539E+02 -0.18792573837E+02 -0.15763909137E+02  0.27007850810E+02  0.51100000000E-03 0. -1.
        -11    1    3    3    0    0 -0.87591746727E+01 -0.88276903874E+01  0.40330957886E+01  0.13073527467E+02  0.51100000000E-03 0.  1.
         12    1    3    3    0    0 -0.43410603003E+01 -0.47144018037E+01  0.82510027600E+01  0.10447460717E+02  0.00000000000E+00 0. -1.
</event>
<event>
 7    1  0.5946946E-013  0.5052890E+02  0.7816164E-02  0.1300439E+00
        -11   -1    0    0    0    0  0.00000000000E+00  0.00000000000E+00  0.45593999997E+02  0.45594000000E+02  0.51100000000E-03 0.  1.
         11   -1    0    0    0    0 -0.00000000000E+00 -0.00000000000E+00 -0.45593999997E+02  0.45594000000E+02  0.51100000000E-03 0. -1.
    9900012    2    1    2    0    0 -0.54500108687E+01 -0.14428848259E+02  0.37620054638E+02  0.50528895343E+02  0.30000107883E+02 0.  0.
         12    1    1    2    0    0  0.54500108687E+01  0.14428848259E+02 -0.37620054638E+02  0.40659104657E+02  0.00000000000E+00 0. -1.
         11    1    3    3    0    0  0.60894879157E+01 -0.37972228488E+01 -0.11203062739E+01  0.72633223010E+01  0.51100000000E-03 0. -1.
        -11    1    3    3    0    0 -0.13332819188E+02 -0.11161702727E+02  0.35279511824E+02  0.39331814477E+02  0.51100000000E-03 0.  1.
         12    1    3    3    0    0  0.17933204034E+01  0.53007731698E+00  0.34608490882E+01  0.39337585644E+01  0.00000000000E+00 0. -1.
</event>
<event>
 7    1  0.5946946E-013  0.5052886E+02  0.7816164E-02  0.1300439E+00
        -11   -1    0    0    0    0  0.00000000000E+00  0.00000000000E+00  0.45593999997E+02  0.45594000000E+02  0.51100000000E-03 0.  1.
         11   -1    0    0    0    0 -0.00000000000E+00 -0.00000000000E+00 -0.45593999997E+02  0.45594000000E+02  0.51100000000E-03 0. -1.
    9900012    2    1    2    0    0 -0.26206718115E+01  0.29649984948E+02  0.27697938151E+02  0.50528864422E+02  0.30000013897E+02 0.  0.
         12    1    1    2    0    0  0.26206718115E+01 -0.29649984948E+02 -0.27697938151E+02  0.40659135578E+02  0.00000000000E+00 0. -1.
         11    1    3    3    0    0 -0.17294081494E+01  0.23287019413E+02  0.20625921079E+01  0.23442065015E+02  0.51100000000E-03 0. -1.
        -11    1    3    3    0    0 -0.32793452066E+01  0.47272387746E+01  0.15029978124E+02  0.16093512173E+02  0.51100000000E-03 0.  1.
         12    1    3    3    0    0  0.23880815445E+01  0.16357267600E+01  0.10605367919E+02  0.10993287234E+02  0.00000000000E+00 0. -1.
</event>
<event>
 7    1  0.5946946E-013  0.5052886E+02  0.7816164E-02  0.1300439E+00
        -11   -1    0    0    0    0  0.00000000000E+00  0.00000000000E+00  0.45593999997E+02  0.45594000000E+02  0.51100000000E-03 0. -1.
         11   -1    0    0    0    0 -0.00000000000E+00 -0.00000000000E+00 -0.45593999997E+02  0.45594000000E+02  0.51100000000E-03 0.  1.
    9900012    2    1    2    0    0  0.17735310212E+02  0.37417139412E+01 -0.36395384055E+02  0.50528860412E+02  0.30000001709E+02 0.  0.
         12    1    1    2    0    0 -0.17735310212E+02 -0.37417139412E+01  0.36395384055E+02  0.40659139588E+02  0.00000000000E+00 0. -1.
         11    1    3    3    0    0  0.83325287277E+01  0.14101069338E+02 -0.24223247513E+02  0.29241014206E+02  0.51100000000E-03 0. -1.
        -11    1    3    3    0    0  0.20293519458E+01 -0.75553371850E+01 -0.10713122983E+02  0.13265458666E+02  0.51100000000E-03 0.  1.
         12    1    3    3    0    0  0.73734295383E+01 -0.28040182117E+01 -0.14590135589E+01  0.80223875407E+01  0.00000000000E+00 0. -1.
</event>
<event>
 7    1  0.5946946E-013  0.5052886E+02  0.7816164E-02  0.1300439E+00
        -11   -1    0    0    0    0  0.00000000000E+00  0.00000000000E+00  0.45593999997E+02  0.45594000000E+02  0.51100000000E-03 0. -1.
         11   -1    0    0    0    0 -0.00000000000E+00 -0.00000000000E+00 -0.45593999997E+02  0.45594000000E+02  0.51100000000E-03 0.  1.
    9900012    2    1    2    0    0  0.12168286024E+02  0.35953746620E+02 -0.14574871097E+02  0.50528856523E+02  0.29999989887E+02 0.  0.
         12    1    1    2    0    0 -0.12168286024E+02 -0.35953746620E+02  0.14574871097E+02  0.40659143477E+02  0.00000000000E+00 0. -1.
         11    1    3    3    0    0 -0.78377572305E+00  0.21323307464E+01 -0.10609643374E+02  0.10850146154E+02  0.51100000000E-03 0. -1.
        -11    1    3    3    0    0  0.12246688403E+02  0.35376064075E+02 -0.48620101074E+01  0.37750316937E+02  0.51100000000E-03 0.  1.
        -12    1    3    3    0    0  0.70537334365E+00 -0.15546482012E+01  0.89678238406E+00  0.19283934318E+01  0.00000000000E+00 0.  1.
</event>
<event>
 7    1  0.5946946E-013  0.5052887E+02  0.7816164E-02  0.1300439E+00
        -11   -1    0    0    0    0  0.00000000000E+00  0.00000000000E+00  0.45593999997E+02  0.45594000000E+02  0.51100000000E-03 0.  1.
         11   -1    0    0    0    0 -0.00000000000E+00 -0.00000000000E+00 -0.45593999997E+02  0.45594000000E+02  0.51100000000E-03 0. -1.
    9900012    2    1    2    0    0  0.10963106932E+02 -0.11282945016E+02  0.37492274576E+02  0.50528865544E+02  0.30000017307E+02 0.  0.
         12    1    1    2    0    0 -0.10963106932E+02  0.11282945016E+02 -0.37492274576E+02  0.40659134456E+02  0.00000000000E+00 0. -1.
         11    1    3    3    0    0 -0.75005523894E+01 -0.18048890327E+01  0.36158837397E+01  0.85200073971E+01  0.51100000000E-03 0. -1.
        -11    1    3    3    0    0  0.19879978844E+02 -0.55428619331E+01  0.28805237353E+02  0.35435555259E+02  0.51100000000E-03 0.  1.
        -12    1    3    3    0    0 -0.14163195231E+01 -0.39351940504E+01  0.50711534833E+01  0.65733028880E+01  0.00000000000E+00 0.  1.
</event>
<event>
 7    1  0.5946946E-013  0.5052886E+02  0.7816164E-02  0.1300439E+00
        -11   -1    0    0    0    0  0.00000000000E+00  0.00000000000E+00  0.45593999997E+02  0.45594000000E+02  0.51100000000E-03 0. -1.
         11   -1    0    0    0    0 -0.00000000000E+00 -0.00000000000E+00 -0.45593999997E+02  0.45594000000E+02  0.51100000000E-03 0.  1.
    9900012    2    1    2    0    0  0.32405778900E+02  0.24556489450E+02  0.10078988433E+00  0.50528857869E+02  0.29999993978E+02 0.  0.
         12    1    1    2    0    0 -0.32405778900E+02 -0.24556489450E+02 -0.10078988433E+00  0.40659142131E+02  0.00000000000E+00 0. -1.
         11    1    3    3    0    0  0.17562139985E+02  0.10046590158E+02  0.47883573808E+00  0.20238379841E+02  0.51100000000E-03 0. -1.
        -11    1    3    3    0    0  0.35240640526E+01  0.10185782362E+02 -0.10087958552E+02  0.14762658899E+02  0.51100000000E-03 0.  1.
        -12    1    3    3    0    0  0.11319574862E+02  0.43241169298E+01  0.97099126979E+01  0.15527819128E+02  0.00000000000E+00 0.  1.
</event>
<event>
 7    1  0.5946946E-013  0.5052886E+02  0.7816164E-02  0.1300439E+00
        -11   -1    0    0    0    0  0.00000000000E+00  0.00000000000E+00  0.45593999997E+02  0.45594000000E+02  0.51100000000E-03 0. -1.
         11   -1    0    0    0    0 -0.00000000000E+00 -0.00000000000E+00 -0.45593999997E+02  0.45594000000E+02  0.51100000000E-03 0.  1.
    9900012    2    1    2    0    0  0.34056410072E+02 -0.93329448612E+01 -0.20154974192E+02  0.50528856976E+02  0.29999991264E+02 0.  0.
         12    1    1    2    0    0 -0.34056410072E+02  0.93329448612E+01  0.20154974192E+02  0.40659143024E+02  0.00000000000E+00 0. -1.
         11    1    3    3    0    0  0.27582693978E+02  0.44080313651E+00 -0.10736569924E+01  0.27607101516E+02  0.51100000000E-03 0. -1.
        -11    1    3    3    0    0  0.25718124280E+01 -0.75272391183E+01 -0.99327838265E+01  0.12725318963E+02  0.51100000000E-03 0.  1.
         12    1    3    3    0    0  0.39019036658E+01 -0.22465088794E+01 -0.91485333732E+01  0.10196436497E+02  0.00000000000E+00 0. -1.
</event>
<event>
 7    1  0.5946946E-013  0.5052886E+02  0.7816164E-02  0.1300439E+00
        -11   -1    0    0    0    0  0.00000000000E+00  0.00000000000E+00  0.45593999997E+02  0.45594000000E+02  0.51100000000E-03 0.  1.
         11   -1    0    0    0    0 -0.00000000000E+00 -0.00000000000E+00 -0.45593999997E+02  0.45594000000E+02  0.51100000000E-03 0. -1.
    9900012    2    1    2    0    0  0.37487434578E+00  0.19429056096E+01  0.40610966312E+02  0.50528855914E+02  0.29999988037E+02 0.  0.
         12    1    1    2    0    0 -0.37487434578E+00 -0.19429056096E+01 -0.40610966312E+02  0.40659144086E+02  0.00000000000E+00 0. -1.
         11    1    3    3    0    0  0.58140954587E+01  0.61127399212E+01  0.20110486678E+01  0.86725781837E+01  0.51100000000E-03 0. -1.
        -11    1    3    3    0    0 -0.86227652169E+01  0.12256294992E+01  0.29851823652E+02  0.31096392448E+02  0.51100000000E-03 0.  1.
         12    1    3    3    0    0  0.31835441040E+01 -0.53954638109E+01  0.87480939920E+01  0.10759885282E+02  0.00000000000E+00 0. -1.
</event>
<event>
 7    1  0.5946946E-013  0.5052886E+02  0.7816164E-02  0.1300439E+00
        -11   -1    0    0    0    0  0.00000000000E+00  0.00000000000E+00  0.45593999997E+02  0.45594000000E+02  0.51100000000E-03 0.  1.
         11   -1    0    0    0    0 -0.00000000000E+00 -0.00000000000E+00 -0.45593999997E+02  0.45594000000E+02  0.51100000000E-03 0. -1.
    9900012    2    1    2    0    0  0.37247652149E+02  0.54893469816E+01 -0.15350747315E+02  0.50528856330E+02  0.29999989300E+02 0.  0.
         12    1    1    2    0    0 -0.37247652149E+02 -0.54893469816E+01  0.15350747315E+02  0.40659143670E+02  0.00000000000E+00 0. -1.
         11    1    3    3    0    0  0.39296405264E+01 -0.94382369019E+01 -0.83236717880E+00  0.10257447337E+02  0.51100000000E-03 0. -1.
        -11    1    3    3    0    0  0.21112570128E+02  0.71258486427E+01 -0.47036452824E+01  0.22773726430E+02  0.51100000000E-03 0.  1.
         12    1    3    3    0    0  0.12205441494E+02  0.78017352408E+01 -0.98147348540E+01  0.17497682563E+02  0.00000000000E+00 0. -1.
</event>
<event>
 7    1  0.5946946E-013  0.5052888E+02  0.7816164E-02  0.1300439E+00
        -11   -1    0    0    0    0  0.00000000000E+00  0.00000000000E+00  0.45593999997E+02  0.45594000000E+02  0.51100000000E-03 0.  1.
         11   -1    0    0    0    0 -0.00000000000E+00 -0.00000000000E+00 -0.45593999997E+02  0.45594000000E+02  0.51100000000E-03 0. -1.
    9900012    2    1    2    0    0  0.38871577034E+01  0.55134539111E+01  0.40095584520E+02  0.50528879658E+02  0.30000060207E+02 0.  0.
         12    1    1    2    0    0 -0.38871577034E+01 -0.55134539111E+01 -0.40095584520E+02  0.40659120342E+02  0.00000000000E+00 0. -1.
         11    1    3    3    0    0  0.51761221864E+01  0.20982479272E+01 -0.22723290641E+01  0.60297897881E+01  0.51100000000E-03 0. -1.
        -11    1    3    3    0    0  0.13911421729E+00  0.77428406170E+01  0.34913476733E+02  0.35762016043E+02  0.51100000000E-03 0.  1.
        -12    1    3    3    0    0 -0.14280787003E+01 -0.43276346330E+01  0.74544368505E+01  0.87370738264E+01  0.00000000000E+00 0.  1.
</event>
<event>
 7    1  0.5946946E-013  0.5052890E+02  0.7816164E-02  0.1300439E+00
        -11   -1    0    0    0    0  0.00000000000E+00  0.00000000000E+00  0.45593999997E+02  0.45594000000E+02  0.51100000000E-03 0.  1.
         11   -1    0    0    0    0 -0.00000000000E+00 -0.00000000000E+00 -0.45593999997E+02  0.45594000000E+02  0.51100000000E-03 0. -1.
    9900012    2    1    2    0    0  0.55849863724E+01 -0.38676091964E+02  0.11230755780E+02  0.50528904612E+02  0.30000136057E+02 0.  0.
         12    1    1    2    0    0 -0.55849863724E+01  0.38676091964E+02 -0.11230755780E+02  0.40659095388E+02  0.00000000000E+00 0. -1.
         11    1    3    3    0    0  0.12653544713E+01 -0.22334453761E+02  0.84914506551E+01  0.23927676051E+02  0.51100000000E-03 0.  1.
        -11    1    3    3    0    0 -0.47328372650E+01 -0.28427032639E+01 -0.59948946791E+01  0.81498142861E+01  0.51100000000E-03 0. -1.
         12    1    3    3    0    0  0.90524691661E+01 -0.13498934940E+02  0.87341998036E+01  0.18451414274E+02  0.00000000000E+00 0. -1.
</event>
<event>
 7    1  0.5946946E-013  0.5052886E+02  0.7816164E-02  0.1300439E+00
        -11   -1    0    0    0    0  0.00000000000E+00  0.00000000000E+00  0.45593999997E+02  0.45594000000E+02  0.51100000000E-03 0. -1.
         11   -1    0    0    0    0 -0.00000000000E+00 -0.00000000000E+00 -0.45593999997E+02  0.45594000000E+02  0.51100000000E-03 0.  1.
    9900012    2    1    2    0    0 -0.18854396535E+02 -0.23079824082E+02 -0.27658611663E+02  0.50528863911E+02  0.30000012343E+02 0.  0.
         12    1    1    2    0    0  0.18854396535E+02  0.23079824082E+02  0.27658611663E+02  0.40659136089E+02  0.00000000000E+00 0. -1.
         11    1    3    3    0    0 -0.83013606647E+01 -0.55218078537E+01 -0.78816961794E-01  0.99704143962E+01  0.51100000000E-03 0. -1.
        -11    1    3    3    0    0 -0.30821293183E+01 -0.56148949208E+01 -0.25531870743E+02  0.26323050545E+02  0.51100000000E-03 0.  1.
        -12    1    3    3    0    0 -0.74709065523E+01 -0.11943121308E+02 -0.20479239591E+01  0.14235398970E+02  0.00000000000E+00 0.  1.
</event>
<event>
 7    1  0.5946946E-013  0.5052886E+02  0.7816164E-02  0.1300439E+00
        -11   -1    0    0    0    0  0.00000000000E+00  0.00000000000E+00  0.45593999997E+02  0.45594000000E+02  0.51100000000E-03 0. -1.
         11   -1    0    0    0    0 -0.00000000000E+00 -0.00000000000E+00 -0.45593999997E+02  0.45594000000E+02  0.51100000000E-03 0.  1.
    9900012    2    1    2    0    0  0.73894571743E+01  0.29352678477E+02 -0.27147413314E+02  0.50528857600E+02  0.29999993160E+02 0.  0.
         12    1    1    2    0    0 -0.73894571743E+01 -0.29352678477E+02  0.27147413314E+02  0.40659142400E+02  0.00000000000E+00 0. -1.
         11    1    3    3    0    0 -0.78344130334E+00  0.12569164433E+02 -0.23450371125E+02  0.26617993557E+02  0.51100000000E-03 0. -1.
        -11    1    3    3    0    0  0.12024846098E+02  0.13108463156E+02 -0.70183699704E+00  0.17802283714E+02  0.51100000000E-03 0.  1.
         12    1    3    3    0    0 -0.38519476205E+01  0.36750508874E+01 -0.29952051919E+01  0.61085803291E+01  0.00000000000E+00 0. -1.
</event>
<event>
 7    1  0.5946946E-013  0.5052885E+02  0.7816164E-02  0.1300439E+00
        -11   -1    0    0    0    0  0.00000000000E+00  0.00000000000E+00  0.45593999997E+02  0.45594000000E+02  0.51100000000E-03 0.  1.
         11   -1    0    0    0    0 -0.00000000000E+00 -0.00000000000E+00 -0.45593999997E+02  0.45594000000E+02  0.51100000000E-03 0. -1.
    9900012    2    1    2    0    0  0.37707357212E+02  0.14989858474E+02  0.25740086335E+01  0.50528853853E+02  0.29999981772E+02 0.  0.
         12    1    1    2    0    0 -0.37707357212E+02 -0.14989858474E+02 -0.25740086335E+01  0.40659146147E+02  0.00000000000E+00 0. -1.
         11    1    3    3    0    0  0.98693358496E+01 -0.46757011988E+01  0.36926813515E+00  0.10927137367E+02  0.51100000000E-03 0. -1.
        -11    1    3    3    0    0  0.28807127174E+02  0.21366211319E+02 -0.96203027046E+00  0.35878838675E+02  0.51100000000E-03 0.  1.
        -12    1    3    3    0    0 -0.96910581220E+00 -0.17006516460E+01  0.31667707688E+01  0.37228778114E+01  0.00000000000E+00 0.  1.
</event>
<event>
 7    1  0.5946946E-013  0.5052885E+02  0.7816164E-02  0.1300439E+00
        -11   -1    0    0    0    0  0.00000000000E+00  0.00000000000E+00  0.45593999997E+02  0.45594000000E+02  0.51100000000E-03 0. -1.
         11   -1    0    0    0    0 -0.00000000000E+00 -0.00000000000E+00 -0.45593999997E+02  0.45594000000E+02  0.51100000000E-03 0.  1.
    9900012    2    1    2    0    0  0.27360000474E+02 -0.11409066966E+02  0.27828579015E+02  0.50528852874E+02  0.29999978797E+02 0.  0.
         12    1    1    2    0    0 -0.27360000474E+02  0.11409066966E+02 -0.27828579015E+02  0.40659147126E+02  0.00000000000E+00 0. -1.
         11    1    3    3    0    0 -0.43795770184E+01 -0.24637843946E+01  0.79493266944E+01  0.94043991599E+01  0.51100000000E-03 0. -1.
        -11    1    3    3    0    0  0.32325974236E+02 -0.10654258407E+02  0.17943945253E+02  0.38476837240E+02  0.51100000000E-03 0.  1.
        -12    1    3    3    0    0 -0.58639674355E+00  0.17089758356E+01  0.19353070676E+01  0.26476164740E+01  0.00000000000E+00 0.  1.
</event>
<event>
 7    1  0.5946946E-013  0.5052885E+02  0.7816164E-02  0.1300439E+00
        -11   -1    0    0    0    0  0.00000000000E+00  0.00000000000E+00  0.45593999997E+02  0.45594000000E+02  0.51100000000E-03 0.  1.
         11   -1    0    0    0    0 -0.00000000000E+00 -0.00000000000E+00 -0.45593999997E+02  0.45594000000E+02  0.51100000000E-03 0. -1.
    9900012    2    1    2    0    0  0.24022012756E+02  0.32327328016E+02  0.55725120480E+01  0.50528854361E+02  0.29999983317E+02 0.  0.
         12    1    1    2    0    0 -0.24022012756E+02 -0.32327328016E+02 -0.55725120480E+01  0.40659145639E+02  0.00000000000E+00 0. -1.
         11    1    3    3    0    0  0.26174061739E+01  0.22695988075E+02  0.89701741224E+01  0.24544301046E+02  0.51100000000E-03 0. -1.
        -11    1    3    3    0    0  0.18731709735E+02  0.47573244023E+01  0.26387330517E+00  0.19328184458E+02  0.51100000000E-03 0.  1.
         12    1    3    3    0    0  0.26728968473E+01  0.48740155391E+01 -0.36615353796E+01  0.66563688575E+01  0.00000000000E+00 0. -1.
</event>
<event>
 7    1  0.5946946E-013  0.5052885E+02  0.7816164E-02  0.1300439E+00
        -11   -1    0    0    0    0  0.00000000000E+00  0.00000000000E+00  0.45593999997E+02  0.45594000000E+02  0.51100000000E-03 0.  1.
         11   -1    0    0    0    0 -0.00000000000E+00 -0.00000000000E+00 -0.45593999997E+02  0.45594000000E+02  0.51100000000E-03 0. -1.
    9900012    2    1    2    0    0 -0.28570526749E+02 -0.10091041244E+02  0.27112029720E+02  0.50528852596E+02  0.29999977950E+02 0.  0.
         12    1    1    2    0    0  0.28570526749E+02  0.10091041244E+02 -0.27112029720E+02  0.40659147404E+02  0.00000000000E+00 0. -1.
         11    1    3    3    0    0 -0.61821225244E+00  0.47190617597E+01 -0.24871741408E+01  0.53700806091E+01  0.51100000000E-03 0. -1.
        -11    1    3    3    0    0 -0.17661736786E+02 -0.55670321246E+01  0.96460907590E+01  0.20880034966E+02  0.51100000000E-03 0.  1.
         12    1    3    3    0    0 -0.10290577711E+02 -0.92430708788E+01  0.19953113101E+02  0.24278737021E+02  0.00000000000E+00 0. -1.
</event>
<event>
 7    1  0.5946946E-013  0.5052886E+02  0.7816164E-02  0.1300439E+00
        -11   -1    0    0    0    0  0.00000000000E+00  0.00000000000E+00  0.45593999997E+02  0.45594000000E+02  0.51100000000E-03 0.  1.
         11   -1    0    0    0    0 -0.00000000000E+00 -0.00000000000E+00 -0.45593999997E+02  0.45594000000E+02  0.51100000000E-03 0. -1.
    9900012    2    1    2    0    0 -0.14808527593E+02 -0.63374611360E+00  0.37861218063E+02  0.50528856418E+02  0.29999989567E+02 0.  0.
         12    1    1    2    0    0  0.14808527593E+02  0.63374611360E+00 -0.37861218063E+02  0.40659143582E+02  0.00000000000E+00 0. -1.
         11    1    3    3    0    0 -0.14020967697E+02 -0.87503653412E+01  0.60356471830E+01  0.17595040948E+02  0.51100000000E-03 0. -1.
        -11    1    3    3    0    0  0.55503003670E+00  0.32788447566E+01  0.10008426784E+02  0.10546444341E+02  0.51100000000E-03 0.  1.
         12    1    3    3    0    0 -0.13425899328E+01  0.48377744710E+01  0.21817144096E+02  0.22387371129E+02  0.00000000000E+00 0. -1.
</event>
<event>
 7    1  0.5946946E-013  0.5052886E+02  0.7816164E-02  0.1300439E+00
        -11   -1    0    0    0    0  0.00000000000E+00  0.00000000000E+00  0.45593999997E+02  0.45594000000E+02  0.51100000000E-03 0. -1.
         11   -1    0    0    0    0 -0.00000000000E+00 -0.00000000000E+00 -0.45593999997E+02  0.45594000000E+02  0.51100000000E-03 0.  1.
    9900012    2    1    2    0    0 -0.51504652666E+00 -0.56504026189E+01 -0.40261312774E+02  0.50528860449E+02  0.30000001822E+02 0.  0.
         12    1    1    2    0    0  0.51504652666E+00  0.56504026189E+01  0.40261312774E+02  0.40659139551E+02  0.00000000000E+00 0. -1.
         11    1    3    3    0    0  0.39296986583E+01  0.52351328245E+01  0.24781205153E+00  0.65506151092E+01  0.51100000000E-03 0. -1.
        -11    1    3    3    0    0 -0.76183984778E+01 -0.30832914945E+01 -0.14858120450E+02  0.16979706280E+02  0.51100000000E-03 0.  1.
         12    1    3    3    0    0  0.31736532929E+01 -0.78022439488E+01 -0.25651004376E+02  0.26998539060E+02  0.00000000000E+00 0. -1.
</event>
<event>
 7    1  0.5946946E-013  0.5052886E+02  0.7816164E-02  0.1300439E+00
        -11   -1    0    0    0    0  0.00000000000E+00  0.00000000000E+00  0.45593999997E+02  0.45594000000E+02  0.51100000000E-03 0. -1.
         11   -1    0    0    0    0 -0.00000000000E+00 -0.00000000000E+00 -0.45593999997E+02  0.45594000000E+02  0.51100000000E-03 0.  1.
    9900012    2    1    2    0    0 -0.23384396632E+02  0.32487962090E+02 -0.71321535803E+01  0.50528864480E+02  0.30000014072E+02 0.  0.
         12    1    1    2    0    0  0.23384396632E+02 -0.32487962090E+02  0.71321535803E+01  0.40659135520E+02  0.00000000000E+00 0. -1.
         11    1    3    3    0    0  0.45392684631E+01  0.13169907037E+02  0.37110259537E+01  0.14416071706E+02  0.51100000000E-03 0. -1.
        -11    1    3    3    0    0 -0.85802055088E+01  0.75705359870E+01 -0.61847075593E+01  0.13007057683E+02  0.51100000000E-03 0.  1.
         12    1    3    3    0    0 -0.19343459586E+02  0.11747519066E+02 -0.46584719746E+01  0.23105735091E+02  0.00000000000E+00 0. -1.
</event>
<event>
 7    1  0.5946946E-013  0.5052885E+02  0.7816164E-02  0.1300439E+00
        -11   -1    0    0    0    0  0.00000000000E+00  0.00000000000E+00  0.45593999997E+02  0.45594000000E+02  0.51100000000E-03 0. -1.
         11   -1    0    0    0    0 -0.00000000000E+00 -0.00000000000E+00 -0.45593999997E+02  0.45594000000E+02  0.51100000000E-03 0.  1.
    9900012    2    1    2    0    0  0.15205172647E+02  0.19023585620E+01 -0.37660986672E+02  0.50528853914E+02  0.29999981957E+02 0.  0.
         12    1    1    2    0    0 -0.15205172647E+02 -0.19023585620E+01  0.37660986672E+02  0.40659146086E+02  0.00000000000E+00 0. -1.
         11    1    3    3    0    0 -0.31968246497E+01  0.56573113090E+00  0.29846210738E+01  0.44099549622E+01  0.51100000000E-03 0. -1.
        -11    1    3    3    0    0  0.13589292407E+02  0.85054304760E+00 -0.38482136695E+02  0.40819935528E+02  0.51100000000E-03 0.  1.
        -12    1    3    3    0    0  0.48127048895E+01  0.48608438355E+00 -0.21634710508E+01  0.52989634241E+01  0.00000000000E+00 0.  1.
</event>
<event>
 7    1  0.5946946E-013  0.5052885E+02  0.7816164E-02  0.1300439E+00
        -11   -1    0    0    0    0  0.00000000000E+00  0.00000000000E+00  0.45593999997E+02  0.45594000000E+02  0.51100000000E-03 0.  1.
         11   -1    0    0    0    0 -0.00000000000E+00 -0.00000000000E+00 -0.45593999997E+02  0.45594000000E+02  0.51100000000E-03 0. -1.
    9900012    2    1    2    0    0  0.16730845173E+01 -0.20064860914E+02  0.35323764097E+02  0.50528853855E+02  0.29999981777E+02 0.  0.
         12    1    1    2    0    0 -0.16730845173E+01  0.20064860914E+02 -0.35323764097E+02  0.40659146145E+02  0.00000000000E+00 0. -1.
         11    1    3    3    0    0  0.65308081891E+01 -0.61996492072E+01  0.67919799590E+01  0.11279100049E+02  0.51100000000E-03 0. -1.
        -11    1    3    3    0    0 -0.98115063014E+01 -0.84533102979E+01  0.38654294855E+01  0.13515385909E+02  0.51100000000E-03 0.  1.
        -12    1    3    3    0    0  0.49537826295E+01 -0.54119014085E+01  0.24666354653E+02  0.25734367897E+02  0.00000000000E+00 0.  1.
</event>
<event>
 7    1  0.5946946E-013  0.5052886E+02  0.7816164E-02  0.1300439E+00
        -11   -1    0    0    0    0  0.00000000000E+00  0.00000000000E+00  0.45593999997E+02  0.45594000000E+02  0.51100000000E-03 0. -1.
         11   -1    0    0    0    0 -0.00000000000E+00 -0.00000000000E+00 -0.45593999997E+02  0.45594000000E+02  0.51100000000E-03 0.  1.
    9900012    2    1    2    0    0  0.15843430303E+02 -0.12253155151E+02 -0.35383775501E+02  0.50528860024E+02  0.30000000528E+02 0.  0.
         12    1    1    2    0    0 -0.15843430303E+02  0.12253155151E+02  0.35383775501E+02  0.40659139976E+02  0.00000000000E+00 0. -1.
         11    1    3    3    0    0 -0.28031806966E+01 -0.81988002668E+01  0.14721128615E+00  0.86660151890E+01  0.51100000000E-03 0. -1.
        -11    1    3    3    0    0  0.13464687778E+01  0.32823243985E+00 -0.13218818570E+02  0.13291270796E+02  0.51100000000E-03 0.  1.
         12    1    3    3    0    0  0.17300142222E+02 -0.43825873240E+01 -0.22312168216E+02  0.28571574039E+02  0.00000000000E+00 0. -1.
</event>
<event>
 7    1  0.5946946E-013  0.5052885E+02  0.7816164E-02  0.1300439E+00
        -11   -1    0    0    0    0  0.00000000000E+00  0.00000000000E+00  0.45593999997E+02  0.45594000000E+02  0.51100000000E-03 0. -1.
         11   -1    0    0    0    0 -0.00000000000E+00 -0.00000000000E+00 -0.45593999997E+02  0.45594000000E+02  0.51100000000E-03 0.  1.
    9900012    2    1    2    0    0  0.10474729963E+02 -0.19538066855E+02 -0.34083872241E+02  0.50528851322E+02  0.29999974079E+02 0.  0.
         12    1    1    2    0    0 -0.10474729963E+02  0.19538066855E+02  0.34083872241E+02  0.40659148678E+02  0.00000000000E+00 0. -1.
         11    1    3    3    0    0 -0.40785827588E+01  0.34986215751E+00 -0.11850846703E+02  0.12537934785E+02  0.51100000000E-03 0. -1.
        -11    1    3    3    0    0  0.15194253219E+02 -0.61041684226E+01 -0.82104080298E+01  0.18317669156E+02  0.51100000000E-03 0.  1.
        -12    1    3    3    0    0 -0.64094049772E+00 -0.13783760590E+02 -0.14022617509E+02  0.19673247381E+02  0.00000000000E+00 0.  1.
</event>
<event>
 7    1  0.5946946E-013  0.5052886E+02  0.7816164E-02  0.1300439E+00
        -11   -1    0    0    0    0  0.00000000000E+00  0.00000000000E+00  0.45593999997E+02  0.45594000000E+02  0.51100000000E-03 0.  1.
         11   -1    0    0    0    0 -0.00000000000E+00 -0.00000000000E+00 -0.45593999997E+02  0.45594000000E+02  0.51100000000E-03 0. -1.
    9900012    2    1    2    0    0 -0.17708609748E+02  0.12614389540E+02  0.34357643240E+02  0.50528864105E+02  0.30000012935E+02 0.  0.
         12    1    1    2    0    0  0.17708609748E+02 -0.12614389540E+02 -0.34357643240E+02  0.40659135895E+02  0.00000000000E+00 0. -1.
         11    1    3    3    0    0 -0.59328942366E+01 -0.57027564021E+01  0.99494818906E+01  0.12911733220E+02  0.51100000000E-03 0. -1.
        -11    1    3    3    0    0 -0.34021335092E+01  0.14217358648E+02  0.24222400661E+02  0.28291915689E+02  0.51100000000E-03 0.  1.
        -12    1    3    3    0    0 -0.83735820023E+01  0.40997872945E+01  0.18576068842E+00  0.93252151955E+01  0.00000000000E+00 0.  1.
</event>
<event>
 7    1  0.5946946E-013  0.5052886E+02  0.7816164E-02  0.1300439E+00
        -11   -1    0    0    0    0  0.00000000000E+00  0.00000000000E+00  0.45593999997E+02  0.45594000000E+02  0.51100000000E-03 0.  1.
         11   -1    0    0    0    0 -0.00000000000E+00 -0.00000000000E+00 -0.45593999997E+02  0.45594000000E+02  0.51100000000E-03 0. -1.
    9900012    2    1    2    0    0  0.22564559404E+02  0.26025603970E+02  0.21602652638E+02  0.50528855837E+02  0.29999987802E+02 0.  0.
         12    1    1    2    0    0 -0.22564559404E+02 -0.26025603970E+02 -0.21602652638E+02  0.40659144163E+02  0.00000000000E+00 0. -1.
         11    1    3    3    0    0 -0.11286112749E+01  0.16109693517E+02  0.64146547195E+01  0.17376529690E+02  0.51100000000E-03 0. -1.
        -11    1    3    3    0    0  0.12255180151E+02 -0.15382582064E+00  0.12810231907E+02  0.17728935238E+02  0.51100000000E-03 0.  1.
        -12    1    3    3    0    0  0.11437990528E+02  0.10069736273E+02  0.23777660114E+01  0.15423390909E+02  0.00000000000E+00 0.  1.
</event>
<event>
 7    1  0.5946946E-013  0.5052886E+02  0.7816164E-02  0.1300439E+00
        -11   -1    0    0    0    0  0.00000000000E+00  0.00000000000E+00  0.45593999997E+02  0.45594000000E+02  0.51100000000E-03 0. -1.
         11   -1    0    0    0    0 -0.00000000000E+00 -0.00000000000E+00 -0.45593999997E+02  0.45594000000E+02  0.51100000000E-03 0.  1.
    9900012    2    1    2    0    0 -0.14625339799E+02  0.12218468627E+01 -0.37917969631E+02  0.50528857179E+02  0.29999991882E+02 0.  0.
         12    1    1    2    0    0  0.14625339799E+02 -0.12218468627E+01  0.37917969631E+02  0.40659142821E+02  0.00000000000E+00 0. -1.
         11    1    3    3    0    0  0.48179915415E+01 -0.56211909522E+00 -0.89909540009E+01  0.10215981327E+02  0.51100000000E-03 0. -1.
        -11    1    3    3    0    0 -0.17921071521E+02  0.94509298552E+01 -0.20993811991E+02  0.29175760860E+02  0.51100000000E-03 0.  1.
         12    1    3    3    0    0 -0.15222598194E+01 -0.76669638974E+01 -0.79332036388E+01  0.11137114992E+02  0.00000000000E+00 0. -1.
</event>
<event>
 7    1  0.5946946E-013  0.5052886E+02  0.7816164E-02  0.1300439E+00
        -11   -1    0    0    0    0  0.00000000000E+00  0.00000000000E+00  0.45593999997E+02  0.45594000000E+02  0.51100000000E-03 0.  1.
         11   -1    0    0    0    0 -0.00000000000E+00 -0.00000000000E+00 -0.45593999997E+02  0.45594000000E+02  0.51100000000E-03 0. -1.
    9900012    2    1    2    0    0 -0.10564657594E+02  0.90680143639E+00  0.39252150730E+02  0.50528860611E+02  0.30000002314E+02 0.  0.
         12    1    1    2    0    0  0.10564657594E+02 -0.90680143639E+00 -0.39252150730E+02  0.40659139389E+02  0.00000000000E+00 0. -1.
         11    1    3    3    0    0 -0.12252640521E+02  0.10295216325E+02  0.31794044641E+02  0.35594661873E+02  0.51100000000E-03 0.  1.
        -11    1    3    3    0    0  0.34408682658E+01 -0.69496649530E+01  0.87262335190E+01  0.11674098212E+02  0.51100000000E-03 0. -1.
        -12    1    3    3    0    0 -0.17528853395E+01 -0.24387499354E+01 -0.12681274308E+01  0.32601005263E+01  0.00000000000E+00 0.  1.
</event>
<event>
 7    1  0.5946946E-013  0.5052887E+02  0.7816164E-02  0.1300439E+00
        -11   -1    0    0    0    0  0.00000000000E+00  0.00000000000E+00  0.45593999997E+02  0.45594000000E+02  0.51100000000E-03 0.  1.
         11   -1    0    0    0    0 -0.00000000000E+00 -0.00000000000E+00 -0.45593999997E+02  0.45594000000E+02  0.51100000000E-03 0. -1.
    9900012    2    1    2    0    0 -0.24318675726E+02 -0.82568635241E+01  0.31521284701E+02  0.50528866050E+02  0.30000018847E+02 0.  0.
         12    1    1    2    0    0  0.24318675726E+02  0.82568635241E+01 -0.31521284701E+02  0.40659133950E+02  0.00000000000E+00 0. -1.
         11    1    3    3    0    0 -0.24944311512E+02 -0.61143066206E+01  0.10723241377E+02  0.27831480884E+02  0.51100000000E-03 0. -1.
        -11    1    3    3    0    0 -0.22375037749E+01 -0.39597957112E+01  0.60755430277E+01  0.75893760323E+01  0.51100000000E-03 0.  1.
         12    1    3    3    0    0  0.28631395614E+01  0.18172388077E+01  0.14722500296E+02  0.15108009135E+02  0.00000000000E+00 0. -1.
</event>
<event>
 7    1  0.5946946E-013  0.5052885E+02  0.7816164E-02  0.1300439E+00
        -11   -1    0    0    0    0  0.00000000000E+00  0.00000000000E+00  0.45593999997E+02  0.45594000000E+02  0.51100000000E-03 0.  1.
         11   -1    0    0    0    0 -0.00000000000E+00 -0.00000000000E+00 -0.45593999997E+02  0.45594000000E+02  0.51100000000E-03 0. -1.
    9900012    2    1    2    0    0 -0.20319742501E+02 -0.26714986749E+02  0.22947412583E+02  0.50528853470E+02  0.29999980607E+02 0.  0.
         12    1    1    2    0    0  0.20319742501E+02  0.26714986749E+02 -0.22947412583E+02  0.40659146530E+02  0.00000000000E+00 0. -1.
         11    1    3    3    0    0 -0.33147532286E+01 -0.36988882482E+01 -0.61992444810E+01  0.79435505686E+01  0.51100000000E-03 0. -1.
        -11    1    3    3    0    0 -0.11221120217E+02 -0.18758094835E+02  0.27654357611E+02  0.35249725615E+02  0.51100000000E-03 0.  1.
         12    1    3    3    0    0 -0.57838690557E+01 -0.42580036661E+01  0.14922994524E+01  0.73355772867E+01  0.00000000000E+00 0. -1.
</event>
<event>
 7    1  0.5946946E-013  0.5052887E+02  0.7816164E-02  0.1300439E+00
        -11   -1    0    0    0    0  0.00000000000E+00  0.00000000000E+00  0.45593999997E+02  0.45594000000E+02  0.51100000000E-03 0.  1.
         11   -1    0    0    0    0 -0.00000000000E+00 -0.00000000000E+00 -0.45593999997E+02  0.45594000000E+02  0.51100000000E-03 0. -1.
    9900012    2    1    2    0    0  0.13031213305E+02 -0.26042705641E+02  0.28374814667E+02  0.50528866405E+02  0.30000019924E+02 0.  0.
         12    1    1    2    0    0 -0.13031213305E+02  0.26042705641E+02 -0.28374814667E+02  0.40659133595E+02  0.00000000000E+00 0. -1.
         11    1    3    3    0    0  0.51107771131E+01  0.48716448372E+01  0.36073801923E+01  0.79288182116E+01  0.51100000000E-03 0. -1.
        -11    1    3    3    0    0  0.10700373861E+02 -0.15955699632E+02  0.11347456316E+02  0.22312487907E+02  0.51100000000E-03 0.  1.
         12    1    3    3    0    0 -0.27799376685E+01 -0.14958650846E+02  0.13419978159E+02  0.20287560286E+02  0.00000000000E+00 0. -1.
</event>
<event>
 7    1  0.5946946E-013  0.5052887E+02  0.7816164E-02  0.1300439E+00
        -11   -1    0    0    0    0  0.00000000000E+00  0.00000000000E+00  0.45593999997E+02  0.45594000000E+02  0.51100000000E-03 0. -1.
         11   -1    0    0    0    0 -0.00000000000E+00 -0.00000000000E+00 -0.45593999997E+02  0.45594000000E+02  0.51100000000E-03 0.  1.
    9900012    2    1    2    0    0  0.28331772068E+02  0.28621700985E+02  0.55922690687E+01  0.50528873729E+02  0.30000042186E+02 0.  0.
         12    1    1    2    0    0 -0.28331772068E+02 -0.28621700985E+02 -0.55922690687E+01  0.40659126271E+02  0.00000000000E+00 0. -1.
         11    1    3    3    0    0  0.18185537428E+02  0.16983662125E+02 -0.76156397184E+00  0.24894548212E+02  0.51100000000E-03 0.  1.
        -11    1    3    3    0    0 -0.25961091366E+00 -0.41035732124E+01  0.53365077283E+01  0.67368409460E+01  0.51100000000E-03 0. -1.
        -12    1    3    3    0    0  0.10405845554E+02  0.15741612072E+02  0.10173253122E+01  0.18897484571E+02  0.00000000000E+00 0.  1.
</event>
<event>
 7    1  0.5946946E-013  0.5052885E+02  0.7816164E-02  0.1300439E+00
        -11   -1    0    0    0    0  0.00000000000E+00  0.00000000000E+00  0.45593999997E+02  0.45594000000E+02  0.51100000000E-03 0.  1.
         11   -1    0    0    0    0 -0.00000000000E+00 -0.00000000000E+00 -0.45593999997E+02  0.45594000000E+02  0.51100000000E-03 0. -1.
    9900012    2    1    2    0    0 -0.38369199196E+02 -0.13347365507E+02 -0.16789010639E+01  0.50528851931E+02  0.29999975930E+02 0.  0.
         12    1    1    2    0    0  0.38369199196E+02  0.13347365507E+02  0.16789010639E+01  0.40659148069E+02  0.00000000000E+00 0. -1.
         11    1    3    3    0    0 -0.77179173829E+01  0.38107580985E+01 -0.82869263508E+01  0.11948274964E+02  0.51100000000E-03 0. -1.
        -11    1    3    3    0    0 -0.30147696507E+02 -0.16191593528E+02  0.24791793757E+01  0.34310313847E+02  0.51100000000E-03 0.  1.
        -12    1    3    3    0    0 -0.50358530563E+00 -0.96653007760E+00  0.41288459112E+01  0.42702631195E+01  0.00000000000E+00 0.  1.
</event>
<event>
 7    1  0.5946946E-013  0.5052886E+02  0.7816164E-02  0.1300439E+00
        -11   -1    0    0    0    0  0.00000000000E+00  0.00000000000E+00  0.45593999997E+02  0.45594000000E+02  0.51100000000E-03 0.  1.
         11   -1    0    0    0    0 -0.00000000000E+00 -0.00000000000E+00 -0.45593999997E+02  0.45594000000E+02  0.51100000000E-03 0. -1.
    9900012    2    1    2    0    0  0.24740701904E+02 -0.32075602487E+02  0.34955470322E+01  0.50528862593E+02  0.30000008337E+02 0.  0.
         12    1    1    2    0    0 -0.24740701904E+02  0.32075602487E+02 -0.34955470322E+01  0.40659137407E+02  0.00000000000E+00 0. -1.
         11    1    3    3    0    0 -0.15375520161E+01 -0.13535466982E+02 -0.56609453061E+01  0.14751923083E+02  0.51100000000E-03 0. -1.
        -11    1    3    3    0    0  0.17461420987E+02 -0.17219621719E+02  0.10651877458E+02  0.26737222905E+02  0.51100000000E-03 0.  1.
         12    1    3    3    0    0  0.88168329337E+01 -0.13205137859E+01 -0.14953851197E+01  0.90397166049E+01  0.00000000000E+00 0. -1.
</event>
<event>
 7    1  0.5946946E-013  0.5052886E+02  0.7816164E-02  0.1300439E+00
        -11   -1    0    0    0    0  0.00000000000E+00  0.00000000000E+00  0.45593999997E+02  0.45594000000E+02  0.51100000000E-03 0. -1.
         11   -1    0    0    0    0 -0.00000000000E+00 -0.00000000000E+00 -0.45593999997E+02  0.45594000000E+02  0.51100000000E-03 0.  1.
    9900012    2    1    2    0    0 -0.39294365674E+02  0.63981567315E+01 -0.82572294530E+01  0.50528863001E+02  0.30000009576E+02 0.  0.
         12    1    1    2    0    0  0.39294365674E+02 -0.63981567315E+01  0.82572294530E+01  0.40659136999E+02  0.00000000000E+00 0. -1.
         11    1    3    3    0    0 -0.97140524174E+01  0.10854921525E+02 -0.51158067822E+01  0.15439028952E+02  0.51100000000E-03 0. -1.
        -11    1    3    3    0    0 -0.31233452992E+02 -0.15853803949E+01 -0.13032104702E+01  0.31300804695E+02  0.51100000000E-03 0.  1.
        -12    1    3    3    0    0  0.16531397347E+01 -0.28713843987E+01 -0.18382122006E+01  0.37890293535E+01  0.00000000000E+00 0.  1.
</event>
<event>
 7    1  0.5946946E-013  0.5052885E+02  0.7816164E-02  0.1300439E+00
        -11   -1    0    0    0    0  0.00000000000E+00  0.00000000000E+00  0.45593999997E+02  0.45594000000E+02  0.51100000000E-03 0.  1.
         11   -1    0    0    0    0 -0.00000000000E+00 -0.00000000000E+00 -0.45593999997E+02  0.45594000000E+02  0.51100000000E-03 0. -1.
    9900012    2    1    2    0    0 -0.11656559995E+02  0.32426775838E+02  0.21582283585E+02  0.50528854081E+02  0.29999982464E+02 0.  0.
         12    1    1    2    0    0  0.11656559995E+02 -0.32426775838E+02 -0.21582283585E+02  0.40659145919E+02  0.00000000000E+00 0. -1.
         11    1    3    3    0    0 -0.58257561827E+01  0.16788924649E+01  0.13734138797E+02  0.15012817316E+02  0.51100000000E-03 0. -1.
        -11    1    3    3    0    0 -0.12778306562E+01  0.18625593723E+02  0.11667558455E+02  0.22015392645E+02  0.51100000000E-03 0.  1.
         12    1    3    3    0    0 -0.45529731561E+01  0.12122289649E+02 -0.38194136669E+01  0.13500644120E+02  0.00000000000E+00 0. -1.
</event>
<event>
 7    1  0.5946946E-013  0.5052888E+02  0.7816164E-02  0.1300439E+00
        -11   -1    0    0    0    0  0.00000000000E+00  0.00000000000E+00  0.45593999997E+02  0.45594000000E+02  0.51100000000E-03 0.  1.
         11   -1    0    0    0    0 -0.00000000000E+00 -0.00000000000E+00 -0.45593999997E+02  0.45594000000E+02  0.51100000000E-03 0. -1.
    9900012    2    1    2    0    0  0.88607573911E+01  0.33362212590E+02 -0.21485205602E+02  0.50528876667E+02  0.30000051117E+02 0.  0.
         12    1    1    2    0    0 -0.88607573911E+01 -0.33362212590E+02  0.21485205602E+02  0.40659123333E+02  0.00000000000E+00 0. -1.
         11    1    3    3    0    0 -0.54439934643E+01 -0.77281435203E+00  0.23325819594E+01  0.59728758333E+01  0.51100000000E-03 0. -1.
        -11    1    3    3    0    0  0.39631720073E+01  0.34711036089E+01 -0.39271093771E+01  0.65709573841E+01  0.51100000000E-03 0.  1.
         12    1    3    3    0    0  0.10341578848E+02  0.30663923333E+02 -0.19890678184E+02  0.37985043450E+02  0.00000000000E+00 0. -1.
</event>
<event>
 7    1  0.5946946E-013  0.5052886E+02  0.7816164E-02  0.1300439E+00
        -11   -1    0    0    0    0  0.00000000000E+00  0.00000000000E+00  0.45593999997E+02  0.45594000000E+02  0.51100000000E-03 0.  1.
         11   -1    0    0    0    0 -0.00000000000E+00 -0.00000000000E+00 -0.45593999997E+02  0.45594000000E+02  0.51100000000E-03 0. -1.
    9900012    2    1    2    0    0  0.37647322687E+02  0.51225981269E+01 -0.14477686399E+02  0.50528864243E+02  0.30000013352E+02 0.  0.
         12    1    1    2    0    0 -0.37647322687E+02 -0.51225981269E+01  0.14477686399E+02  0.40659135757E+02  0.00000000000E+00 0. -1.
         11    1    3    3    0    0  0.18698889432E+02  0.15404745698E+02 -0.12765604113E+02  0.27384581513E+02  0.51100000000E-03 0. -1.
        -11    1    3    3    0    0  0.12759174246E+02 -0.94149089424E+01  0.18276610088E+01  0.15961747488E+02  0.51100000000E-03 0.  1.
         12    1    3    3    0    0  0.61892590090E+01 -0.86723862839E+00 -0.35397432940E+01  0.71825352423E+01  0.00000000000E+00 0. -1.
</event>
<event>
 7    1  0.5946946E-013  0.5052885E+02  0.7816164E-02  0.1300439E+00
        -11   -1    0    0    0    0  0.00000000000E+00  0.00000000000E+00  0.45593999997E+02  0.45594000000E+02  0.51100000000E-03 0.  1.
         11   -1    0    0    0    0 -0.00000000000E+00 -0.00000000000E+00 -0.45593999997E+02  0.45594000000E+02  0.51100000000E-03 0. -1.
    9900012    2    1    2    0    0 -0.36592044327E+02 -0.83251698590E+01  0.15648652079E+02  0.50528850070E+02  0.29999970272E+02 0.  0.
         12    1    1    2    0    0  0.36592044327E+02  0.83251698590E+01 -0.15648652079E+02  0.40659149930E+02  0.00000000000E+00 0. -1.
         11    1    3    3    0    0  0.15396987383E+01  0.46113890835E+01  0.29990582763E+01  0.57122615740E+01  0.51100000000E-03 0. -1.
        -11    1    3    3    0    0 -0.21305604166E+02 -0.11108621634E+02  0.14049305322E+02  0.27833670685E+02  0.51100000000E-03 0.  1.
         12    1    3    3    0    0 -0.16826138899E+02 -0.18279373086E+01 -0.13997115195E+01  0.16982917811E+02  0.00000000000E+00 0. -1.
</event>
<event>
 7    1  0.5946946E-013  0.5052879E+02  0.7816164E-02  0.1300439E+00
        -11   -1    0    0    0    0  0.00000000000E+00  0.00000000000E+00  0.45593999997E+02  0.45594000000E+02  0.51100000000E-03 0.  1.
         11   -1    0    0    0    0 -0.00000000000E+00 -0.00000000000E+00 -0.45593999997E+02  0.45594000000E+02  0.51100000000E-03 0. -1.
    9900012    2    1    2    0    0 -0.66772036447E+01 -0.33186748080E+02  0.22521673160E+02  0.50528793680E+02  0.29999798870E+02 0.  0.
         12    1    1    2    0    0  0.66772036447E+01  0.33186748080E+02 -0.22521673160E+02  0.40659206320E+02  0.00000000000E+00 0. -1.
         11    1    3    3    0    0  0.90607198628E+00 -0.35474703511E+01 -0.38488574421E+01  0.53121762214E+01  0.51100000000E-03 0. -1.
        -11    1    3    3    0    0 -0.14027386800E+02 -0.25396765534E+02  0.21030652225E+02  0.35833665921E+02  0.51100000000E-03 0.  1.
        -12    1    3    3    0    0  0.64441111694E+01 -0.42425121940E+01  0.53398783769E+01  0.93829515378E+01  0.00000000000E+00 0.  1.
</event>
<event>
 7    1  0.5946946E-013  0.5052886E+02  0.7816164E-02  0.1300439E+00
        -11   -1    0    0    0    0  0.00000000000E+00  0.00000000000E+00  0.45593999997E+02  0.45594000000E+02  0.51100000000E-03 0.  1.
         11   -1    0    0    0    0 -0.00000000000E+00 -0.00000000000E+00 -0.45593999997E+02  0.45594000000E+02  0.51100000000E-03 0. -1.
    9900012    2    1    2    0    0  0.22994447496E+02  0.19181179787E+02  0.27504603733E+02  0.50528862034E+02  0.30000006637E+02 0.  0.
         12    1    1    2    0    0 -0.22994447496E+02 -0.19181179787E+02 -0.27504603733E+02  0.40659137966E+02  0.00000000000E+00 0. -1.
         11    1    3    3    0    0  0.22804614377E+01  0.19460564834E+01 -0.32981733814E+01  0.44570829160E+01  0.51100000000E-03 0. -1.
        -11    1    3    3    0    0  0.21162266361E+02  0.86895722466E+01  0.29631095326E+02  0.37434636285E+02  0.51100000000E-03 0.  1.
        -12    1    3    3    0    0 -0.44828030299E+00  0.85455510565E+01  0.11716817893E+01  0.86371428322E+01  0.00000000000E+00 0.  1.
</event>
<event>
 7    1  0.5946946E-013  0.5052885E+02  0.7816164E-02  0.1300439E+00
        -11   -1    0    0    0    0  0.00000000000E+00  0.00000000000E+00  0.45593999997E+02  0.45594000000E+02  0.51100000000E-03 0.  1.
         11   -1    0    0    0    0 -0.00000000000E+00 -0.00000000000E+00 -0.45593999997E+02  0.45594000000E+02  0.51100000000E-03 0. -1.
    9900012    2    1    2    0    0 -0.13042384098E+02  0.20780651101E+01  0.38454440715E+02  0.50528854064E+02  0.29999982413E+02 0.  0.
         12    1    1    2    0    0  0.13042384098E+02 -0.20780651101E+01 -0.38454440715E+02  0.40659145936E+02  0.00000000000E+00 0. -1.
         11    1    3    3    0    0 -0.32337356743E+01 -0.87611002809E+01  0.35952701480E+01  0.10006992168E+02  0.51100000000E-03 0. -1.
        -11    1    3    3    0    0  0.14003712125E+01  0.84579256878E+01  0.19979038771E+02  0.21740734508E+02  0.51100000000E-03 0.  1.
        -12    1    3    3    0    0 -0.11209019636E+02  0.23812397032E+01  0.14880131796E+02  0.18781127389E+02  0.00000000000E+00 0.  1.
</event>
<event>
 7    1  0.5946946E-013  0.5052885E+02  0.7816164E-02  0.1300439E+00
        -11   -1    0    0    0    0  0.00000000000E+00  0.00000000000E+00  0.45593999997E+02  0.45594000000E+02  0.51100000000E-03 0.  1.
         11   -1    0    0    0    0 -0.00000000000E+00 -0.00000000000E+00 -0.45593999997E+02  0.45594000000E+02  0.51100000000E-03 0. -1.
    9900012    2    1    2    0    0  0.28719571340E+00 -0.25496556133E+02  0.31670328165E+02  0.50528849220E+02  0.29999967690E+02 0.  0.
         12    1    1    2    0    0 -0.28719571340E+00  0.25496556133E+02 -0.31670328165E+02  0.40659150780E+02  0.00000000000E+00 0. -1.
         11    1    3    3    0    0  0.13741298540E+01 -0.59021804115E+01 -0.65932779656E+00  0.60957919805E+01  0.51100000000E-03 0. -1.
        -11    1    3    3    0    0  0.86398216960E+01 -0.81166393418E+01  0.25063245342E+02  0.27725306500E+02  0.51100000000E-03 0.  1.
        -12    1    3    3    0    0 -0.97267558366E+01 -0.11477736380E+02  0.72664106196E+01  0.16707750740E+02  0.00000000000E+00 0.  1.
</event>
<event>
 7    1  0.5946946E-013  0.5052886E+02  0.7816164E-02  0.1300439E+00
        -11   -1    0    0    0    0  0.00000000000E+00  0.00000000000E+00  0.45593999997E+02  0.45594000000E+02  0.51100000000E-03 0.  1.
         11   -1    0    0    0    0 -0.00000000000E+00 -0.00000000000E+00 -0.45593999997E+02  0.45594000000E+02  0.51100000000E-03 0. -1.
    9900012    2    1    2    0    0  0.34656631262E+02 -0.62980269801E+01  0.20308090465E+02  0.50528858684E+02  0.29999996455E+02 0.  0.
         12    1    1    2    0    0 -0.34656631262E+02  0.62980269801E+01 -0.20308090465E+02  0.40659141316E+02  0.00000000000E+00 0. -1.
         11    1    3    3    0    0  0.24913901436E+01 -0.72481795256E+01  0.66927104894E+01  0.10175239812E+02  0.51100000000E-03 0. -1.
        -11    1    3    3    0    0  0.18866351594E+02  0.40551096202E+01  0.17610238817E+02  0.26124770773E+02  0.51100000000E-03 0.  1.
        -12    1    3    3    0    0  0.13298889525E+02 -0.31049570747E+01 -0.39948588422E+01  0.14228848098E+02  0.00000000000E+00 0.  1.
</event>
<event>
 7    1  0.5946946E-013  0.5052888E+02  0.7816164E-02  0.1300439E+00
        -11   -1    0    0    0    0  0.00000000000E+00  0.00000000000E+00  0.45593999997E+02  0.45594000000E+02  0.51100000000E-03 0.  1.
         11   -1    0    0    0    0 -0.00000000000E+00 -0.00000000000E+00 -0.45593999997E+02  0.45594000000E+02  0.51100000000E-03 0. -1.
    9900012    2    1    2    0    0  0.11487404772E+02 -0.21449139909E+02  0.32575113240E+02  0.50528879573E+02  0.30000059951E+02 0.  0.
         12    1    1    2    0    0 -0.11487404772E+02  0.21449139909E+02 -0.32575113240E+02  0.40659120427E+02  0.00000000000E+00 0. -1.
         11    1    3    3    0    0  0.66665874332E+01 -0.60350722267E+01  0.33044441157E+01  0.95804402801E+01  0.51100000000E-03 0. -1.
        -11    1    3    3    0    0 -0.94608367932E+01 -0.54405498903E+01  0.14236587304E+02  0.17938434555E+02  0.51100000000E-03 0.  1.
        -12    1    3    3    0    0  0.14281654132E+02 -0.99735177922E+01  0.15034081821E+02  0.23010004739E+02  0.00000000000E+00 0.  1.
</event>
<event>
 7    1  0.5946946E-013  0.5052888E+02  0.7816164E-02  0.1300439E+00
        -11   -1    0    0    0    0  0.00000000000E+00  0.00000000000E+00  0.45593999997E+02  0.45594000000E+02  0.51100000000E-03 0. -1.
         11   -1    0    0    0    0 -0.00000000000E+00 -0.00000000000E+00 -0.45593999997E+02  0.45594000000E+02  0.51100000000E-03 0.  1.
    9900012    2    1    2    0    0 -0.12275879704E+02 -0.23585741382E+02 -0.30760036816E+02  0.50528876990E+02  0.30000052098E+02 0.  0.
         12    1    1    2    0    0  0.12275879704E+02  0.23585741382E+02  0.30760036816E+02  0.40659123010E+02  0.00000000000E+00 0. -1.
         11    1    3    3    0    0 -0.46311175547E+01 -0.71372777205E+01 -0.45637953107E+01  0.96548542695E+01  0.51100000000E-03 0. -1.
        -11    1    3    3    0    0  0.57833703016E+01 -0.57421651896E+01 -0.21613947970E+02  0.23099406490E+02  0.51100000000E-03 0.  1.
        -12    1    3    3    0    0 -0.13428132451E+02 -0.10706298471E+02 -0.45822935357E+01  0.17774616230E+02  0.00000000000E+00 0.  1.
</event>
<event>
 7    1  0.5946946E-013  0.5052886E+02  0.7816164E-02  0.1300439E+00
        -11   -1    0    0    0    0  0.00000000000E+00  0.00000000000E+00  0.45593999997E+02  0.45594000000E+02  0.51100000000E-03 0.  1.
         11   -1    0    0    0    0 -0.00000000000E+00 -0.00000000000E+00 -0.45593999997E+02  0.45594000000E+02  0.51100000000E-03 0. -1.
    9900012    2    1    2    0    0  0.37614735414E+02  0.11369940340E+02  0.10441364832E+02  0.50528856340E+02  0.29999989332E+02 0.  0.
         12    1    1    2    0    0 -0.37614735414E+02 -0.11369940340E+02 -0.10441364832E+02  0.40659143660E+02  0.00000000000E+00 0. -1.
         11    1    3    3    0    0  0.28726465970E+02 -0.13331068018E+01 -0.35502579555E+01  0.28975702798E+02  0.51100000000E-03 0. -1.
        -11    1    3    3    0    0  0.23921293981E+01  0.65007032385E+01  0.87285608448E+01  0.11143123455E+02  0.51100000000E-03 0.  1.
         12    1    3    3    0    0  0.64961400461E+01  0.62023439036E+01  0.52630619428E+01  0.10410030087E+02  0.00000000000E+00 0. -1.
</event>
<event>
 7    1  0.5946946E-013  0.5052886E+02  0.7816164E-02  0.1300439E+00
        -11   -1    0    0    0    0  0.00000000000E+00  0.00000000000E+00  0.45593999997E+02  0.45594000000E+02  0.51100000000E-03 0. -1.
         11   -1    0    0    0    0 -0.00000000000E+00 -0.00000000000E+00 -0.45593999997E+02  0.45594000000E+02  0.51100000000E-03 0.  1.
    9900012    2    1    2    0    0  0.34080359368E+02 -0.19345726276E+02 -0.10836877534E+02  0.50528856693E+02  0.29999990403E+02 0.  0.
         12    1    1    2    0    0 -0.34080359368E+02  0.19345726276E+02  0.10836877534E+02  0.40659143307E+02  0.00000000000E+00 0. -1.
         11    1    3    3    0    0  0.11392624900E+02 -0.37324194902E+01 -0.14876522830E+02  0.19105857456E+02  0.51100000000E-03 0.  1.
        -11    1    3    3    0    0  0.10856901734E+02 -0.10571306655E+02  0.90167111179E+01  0.17633091598E+02  0.51100000000E-03 0. -1.
         12    1    3    3    0    0  0.11830832733E+02 -0.50420001307E+01 -0.49770658221E+01  0.13789907638E+02  0.00000000000E+00 0. -1.
</event>
<event>
 7    1  0.5946946E-013  0.5052886E+02  0.7816164E-02  0.1300439E+00
        -11   -1    0    0    0    0  0.00000000000E+00  0.00000000000E+00  0.45593999997E+02  0.45594000000E+02  0.51100000000E-03 0. -1.
         11   -1    0    0    0    0 -0.00000000000E+00 -0.00000000000E+00 -0.45593999997E+02  0.45594000000E+02  0.51100000000E-03 0.  1.
    9900012    2    1    2    0    0  0.19995700577E+02  0.11266466297E+02 -0.33561950198E+02  0.50528858279E+02  0.29999995225E+02 0.  0.
         12    1    1    2    0    0 -0.19995700577E+02 -0.11266466297E+02  0.33561950198E+02  0.40659141721E+02  0.00000000000E+00 0. -1.
         11    1    3    3    0    0  0.18679935627E+02 -0.37878641719E+00 -0.29794315877E+02  0.35167950367E+02  0.51100000000E-03 0. -1.
        -11    1    3    3    0    0  0.10811080175E+01  0.85249320313E+01 -0.68343202297E+01  0.10979580773E+02  0.51100000000E-03 0.  1.
         12    1    3    3    0    0  0.23465693202E+00  0.31203206828E+01  0.30666859084E+01  0.43813271391E+01  0.00000000000E+00 0. -1.
</event>
<event>
 7    1  0.5946946E-013  0.5052885E+02  0.7816164E-02  0.1300439E+00
        -11   -1    0    0    0    0  0.00000000000E+00  0.00000000000E+00  0.45593999997E+02  0.45594000000E+02  0.51100000000E-03 0.  1.
         11   -1    0    0    0    0 -0.00000000000E+00 -0.00000000000E+00 -0.45593999997E+02  0.45594000000E+02  0.51100000000E-03 0. -1.
    9900012    2    1    2    0    0 -0.37257092680E+02  0.12810950442E+02  0.10047638361E+02  0.50528850441E+02  0.29999971402E+02 0.  0.
         12    1    1    2    0    0  0.37257092680E+02 -0.12810950442E+02 -0.10047638361E+02  0.40659149559E+02  0.00000000000E+00 0. -1.
         11    1    3    3    0    0 -0.51587736167E+01 -0.42282948056E+01 -0.17176728431E+01  0.68878024397E+01  0.51100000000E-03 0. -1.
        -11    1    3    3    0    0 -0.21103003803E+02  0.21518974378E+02  0.79572591339E+01  0.31172439767E+02  0.51100000000E-03 0.  1.
         12    1    3    3    0    0 -0.10995315260E+02 -0.44797291309E+01  0.38080520699E+01  0.12468608235E+02  0.00000000000E+00 0. -1.
</event>
<event>
 7    1  0.5946946E-013  0.5052886E+02  0.7816164E-02  0.1300439E+00
        -11   -1    0    0    0    0  0.00000000000E+00  0.00000000000E+00  0.45593999997E+02  0.45594000000E+02  0.51100000000E-03 0.  1.
         11   -1    0    0    0    0 -0.00000000000E+00 -0.00000000000E+00 -0.45593999997E+02  0.45594000000E+02  0.51100000000E-03 0. -1.
    9900012    2    1    2    0    0  0.25124915999E+02  0.30925480187E+02  0.80943707058E+01  0.50528861226E+02  0.30000004183E+02 0.  0.
         12    1    1    2    0    0 -0.25124915999E+02 -0.30925480187E+02 -0.80943707058E+01  0.40659138774E+02  0.00000000000E+00 0. -1.
         11    1    3    3    0    0 -0.35529853282E+01  0.99197435706E+01  0.98493723491E+00  0.10582774630E+02  0.51100000000E-03 0. -1.
        -11    1    3    3    0    0  0.18642805381E+02  0.12102570745E+02 -0.39313741240E+01  0.22571710478E+02  0.51100000000E-03 0.  1.
         12    1    3    3    0    0  0.10035095946E+02  0.89031658710E+01  0.11040807595E+02  0.17374376119E+02  0.00000000000E+00 0. -1.
</event>
<event>
 7    1  0.5946946E-013  0.5052887E+02  0.7816164E-02  0.1300439E+00
        -11   -1    0    0    0    0  0.00000000000E+00  0.00000000000E+00  0.45593999997E+02  0.45594000000E+02  0.51100000000E-03 0.  1.
         11   -1    0    0    0    0 -0.00000000000E+00 -0.00000000000E+00 -0.45593999997E+02  0.45594000000E+02  0.51100000000E-03 0. -1.
    9900012    2    1    2    0    0 -0.28974921190E+02 -0.22346096018E+02  0.17727675544E+02  0.50528873774E+02  0.30000042325E+02 0.  0.
         12    1    1    2    0    0  0.28974921190E+02  0.22346096018E+02 -0.17727675544E+02  0.40659126226E+02  0.00000000000E+00 0. -1.
         11    1    3    3    0    0  0.10104401454E+01 -0.40450761328E+01  0.12234142687E+02  0.12925087147E+02  0.51100000000E-03 0. -1.
        -11    1    3    3    0    0 -0.20829947610E+02 -0.11163437108E+02  0.92851139356E+01  0.25391384101E+02  0.51100000000E-03 0.  1.
         12    1    3    3    0    0 -0.91554137260E+01 -0.71375827772E+01 -0.37915810791E+01  0.12212402527E+02  0.00000000000E+00 0. -1.
</event>
<event>
 7    1  0.5946946E-013  0.5052886E+02  0.7816164E-02  0.1300439E+00
        -11   -1    0    0    0    0  0.00000000000E+00  0.00000000000E+00  0.45593999997E+02  0.45594000000E+02  0.51100000000E-03 0.  1.
         11   -1    0    0    0    0 -0.00000000000E+00 -0.00000000000E+00 -0.45593999997E+02  0.45594000000E+02  0.51100000000E-03 0. -1.
    9900012    2    1    2    0    0 -0.11596700537E+02  0.38966318922E+02  0.55519183996E+00  0.50528859433E+02  0.29999998732E+02 0.  0.
         12    1    1    2    0    0  0.11596700537E+02 -0.38966318922E+02 -0.55519183996E+00  0.40659140567E+02  0.00000000000E+00 0. -1.
         11    1    3    3    0    0  0.82953697842E+01  0.18341104426E+02  0.66717712115E+00  0.20140863859E+02  0.51100000000E-03 0. -1.
        -11    1    3    3    0    0 -0.16283234338E+02  0.21096099376E+02  0.70213840842E+00  0.26658622020E+02  0.51100000000E-03 0.  1.
         12    1    3    3    0    0 -0.36088359836E+01 -0.47088487981E+00 -0.81412368961E+00  0.37293735544E+01  0.00000000000E+00 0. -1.
</event>
<event>
 7    1  0.5946946E-013  0.5052886E+02  0.7816164E-02  0.1300439E+00
        -11   -1    0    0    0    0  0.00000000000E+00  0.00000000000E+00  0.45593999997E+02  0.45594000000E+02  0.51100000000E-03 0. -1.
         11   -1    0    0    0    0 -0.00000000000E+00 -0.00000000000E+00 -0.45593999997E+02  0.45594000000E+02  0.51100000000E-03 0.  1.
    9900012    2    1    2    0    0 -0.24910510186E+02 -0.97924858254E+01 -0.30606195009E+02  0.50528862413E+02  0.30000007791E+02 0.  0.
         12    1    1    2    0    0  0.24910510186E+02  0.97924858254E+01  0.30606195009E+02  0.40659137587E+02  0.00000000000E+00 0. -1.
         11    1    3    3    0    0 -0.78391190936E+01  0.10725196817E+02 -0.10027310675E+02  0.16644175995E+02  0.51100000000E-03 0. -1.
        -11    1    3    3    0    0 -0.12689770313E+02 -0.17322973348E+02 -0.16989587003E+02  0.27381777572E+02  0.51100000000E-03 0.  1.
        -12    1    3    3    0    0 -0.43816207795E+01 -0.31947092941E+01 -0.35892973307E+01  0.65029088459E+01  0.00000000000E+00 0.  1.
</event>
<event>
 7    1  0.5946946E-013  0.5052886E+02  0.7816164E-02  0.1300439E+00
        -11   -1    0    0    0    0  0.00000000000E+00  0.00000000000E+00  0.45593999997E+02  0.45594000000E+02  0.51100000000E-03 0. -1.
         11   -1    0    0    0    0 -0.00000000000E+00 -0.00000000000E+00 -0.45593999997E+02  0.45594000000E+02  0.51100000000E-03 0.  1.
    9900012    2    1    2    0    0 -0.13452942848E+02 -0.30174513767E+02  0.23699846980E+02  0.50528859586E+02  0.29999999197E+02 0.  0.
         12    1    1    2    0    0  0.13452942848E+02  0.30174513767E+02 -0.23699846980E+02  0.40659140414E+02  0.00000000000E+00 0. -1.
         11    1    3    3    0    0  0.90819634677E+00 -0.17791526165E+02  0.16536093776E+02  0.24306493402E+02  0.51100000000E-03 0. -1.
        -11    1    3    3    0    0 -0.12124210250E+02 -0.28829138914E+01 -0.22484137334E+01  0.12663452581E+02  0.51100000000E-03 0.  1.
        -12    1    3    3    0    0 -0.22369289442E+01 -0.95000737109E+01  0.94121669377E+01  0.13558913602E+02  0.00000000000E+00 0.  1.
</event>
<event>
 7    1  0.5946946E-013  0.5052886E+02  0.7816164E-02  0.1300439E+00
        -11   -1    0    0    0    0  0.00000000000E+00  0.00000000000E+00  0.45593999997E+02  0.45594000000E+02  0.51100000000E-03 0.  1.
         11   -1    0    0    0    0 -0.00000000000E+00 -0.00000000000E+00 -0.45593999997E+02  0.45594000000E+02  0.51100000000E-03 0. -1.
    9900012    2    1    2    0    0 -0.20162038519E+02  0.77043346846E-01  0.35307963062E+02  0.50528856028E+02  0.29999988382E+02 0.  0.
         12    1    1    2    0    0  0.20162038519E+02 -0.77043346846E-01 -0.35307963062E+02  0.40659143972E+02  0.00000000000E+00 0. -1.
         11    1    3    3    0    0  0.28962453437E+01  0.65893176281E+01  0.61989415602E+01  0.94991694702E+01  0.51100000000E-03 0. -1.
        -11    1    3    3    0    0 -0.25140934674E+02 -0.37230176867E+01  0.26075805637E+02  0.36412567842E+02  0.51100000000E-03 0.  1.
        -12    1    3    3    0    0  0.20826508108E+01 -0.27892565946E+01  0.30332158652E+01  0.46171187157E+01  0.00000000000E+00 0.  1.
</event>
<event>
 7    1  0.5946946E-013  0.5052882E+02  0.7816164E-02  0.1300439E+00
        -11   -1    0    0    0    0  0.00000000000E+00  0.00000000000E+00  0.45593999997E+02  0.45594000000E+02  0.51100000000E-03 0.  1.
         11   -1    0    0    0    0 -0.00000000000E+00 -0.00000000000E+00 -0.45593999997E+02  0.45594000000E+02  0.51100000000E-03 0. -1.
    9900012    2    1    2    0    0 -0.16118595284E+02  0.25422370563E+02  0.27332448618E+02  0.50528821622E+02  0.29999883800E+02 0.  0.
         12    1    1    2    0    0  0.16118595284E+02 -0.25422370563E+02 -0.27332448618E+02  0.40659178378E+02  0.00000000000E+00 0. -1.
         11    1    3    3    0    0  0.18465400536E+01 -0.41290601269E+01  0.13670807278E+01  0.47252256749E+01  0.51100000000E-03 0. -1.
        -11    1    3    3    0    0 -0.11415839813E+02  0.26122318925E+02  0.14052156236E+02  0.31783014958E+02  0.51100000000E-03 0.  1.
        -12    1    3    3    0    0 -0.65492955244E+01  0.34291117652E+01  0.11913211654E+02  0.14020580989E+02  0.00000000000E+00 0.  1.
</event>
<event>
 7    1  0.5946946E-013  0.5052886E+02  0.7816164E-02  0.1300439E+00
        -11   -1    0    0    0    0  0.00000000000E+00  0.00000000000E+00  0.45593999997E+02  0.45594000000E+02  0.51100000000E-03 0. -1.
         11   -1    0    0    0    0 -0.00000000000E+00 -0.00000000000E+00 -0.45593999997E+02  0.45594000000E+02  0.51100000000E-03 0.  1.
    9900012    2    1    2    0    0 -0.53916707258E+00  0.32472695215E+02  0.24462198940E+02  0.50528858191E+02  0.29999994958E+02 0.  0.
         12    1    1    2    0    0  0.53916707258E+00 -0.32472695215E+02 -0.24462198940E+02  0.40659141809E+02  0.00000000000E+00 0. -1.
         11    1    3    3    0    0 -0.91639376436E+01  0.15698206815E+02  0.12719957447E+02  0.22185778510E+02  0.51100000000E-03 0. -1.
        -11    1    3    3    0    0  0.94879031099E+01  0.19341778806E+02  0.13201323836E+02  0.25266572068E+02  0.51100000000E-03 0.  1.
         12    1    3    3    0    0 -0.86313253883E+00 -0.25672904061E+01 -0.14590823437E+01  0.30765076132E+01  0.00000000000E+00 0. -1.
</event>
<event>
 7    1  0.5946946E-013  0.5052887E+02  0.7816164E-02  0.1300439E+00
        -11   -1    0    0    0    0  0.00000000000E+00  0.00000000000E+00  0.45593999997E+02  0.45594000000E+02  0.51100000000E-03 0.  1.
         11   -1    0    0    0    0 -0.00000000000E+00 -0.00000000000E+00 -0.45593999997E+02  0.45594000000E+02  0.51100000000E-03 0. -1.
    9900012    2    1    2    0    0  0.78398703304E+01  0.39829998288E+02  0.22962239423E+01  0.50528868494E+02  0.30000026274E+02 0.  0.
         12    1    1    2    0    0 -0.78398703304E+01 -0.39829998288E+02 -0.22962239423E+01  0.40659131506E+02  0.00000000000E+00 0. -1.
         11    1    3    3    0    0 -0.21774266562E+01  0.79953323446E+01 -0.52041367870E+01  0.97851707242E+01  0.51100000000E-03 0. -1.
        -11    1    3    3    0    0  0.78603093261E+01  0.16357265013E+02  0.14873980350E+02  0.23464438479E+02  0.51100000000E-03 0.  1.
        -12    1    3    3    0    0  0.21569876606E+01  0.15477400931E+02 -0.73736196208E+01  0.17279259291E+02  0.00000000000E+00 0.  1.
</event>
<event>
 7    1  0.5946946E-013  0.5052886E+02  0.7816164E-02  0.1300439E+00
        -11   -1    0    0    0    0  0.00000000000E+00  0.00000000000E+00  0.45593999997E+02  0.45594000000E+02  0.51100000000E-03 0. -1.
         11   -1    0    0    0    0 -0.00000000000E+00 -0.00000000000E+00 -0.45593999997E+02  0.45594000000E+02  0.51100000000E-03 0.  1.
    9900012    2    1    2    0    0  0.30530420859E+02  0.20708892518E+01 -0.26772573912E+02  0.50528857191E+02  0.29999991917E+02 0.  0.
         12    1    1    2    0    0 -0.30530420859E+02 -0.20708892518E+01  0.26772573912E+02  0.40659142809E+02  0.00000000000E+00 0. -1.
         11    1    3    3    0    0  0.13267892362E+01  0.50106817178E+00  0.59859845853E+01  0.61517030737E+01  0.51100000000E-03 0. -1.
        -11    1    3    3    0    0  0.11257366026E+02 -0.23389432949E+01 -0.14126460320E+02  0.18214165559E+02  0.51100000000E-03 0.  1.
         12    1    3    3    0    0  0.17946265597E+02  0.39087643749E+01 -0.18632098177E+02  0.26162988558E+02  0.00000000000E+00 0. -1.
</event>
<event>
 7    1  0.5946946E-013  0.5052886E+02  0.7816164E-02  0.1300439E+00
        -11   -1    0    0    0    0  0.00000000000E+00  0.00000000000E+00  0.45593999997E+02  0.45594000000E+02  0.51100000000E-03 0.  1.
         11   -1    0    0    0    0 -0.00000000000E+00 -0.00000000000E+00 -0.45593999997E+02  0.45594000000E+02  0.51100000000E-03 0. -1.
    9900012    2    1    2    0    0  0.24305899488E+02  0.24514445550E+02  0.21480939191E+02  0.50528861555E+02  0.30000005183E+02 0.  0.
         12    1    1    2    0    0 -0.24305899488E+02 -0.24514445550E+02 -0.21480939191E+02  0.40659138445E+02  0.00000000000E+00 0. -1.
         11    1    3    3    0    0 -0.33643294570E+01  0.13122523470E+02  0.14091962254E+02  0.19547448308E+02  0.51100000000E-03 0. -1.
        -11    1    3    3    0    0  0.25415604993E+02  0.11117045822E+02  0.73977631521E+01  0.28710078106E+02  0.51100000000E-03 0.  1.
        -12    1    3    3    0    0  0.22546239527E+01  0.27487625732E+00 -0.87862151491E-02  0.22713351410E+01  0.00000000000E+00 0.  1.
</event>
<event>
 7    1  0.5946946E-013  0.5052885E+02  0.7816164E-02  0.1300439E+00
        -11   -1    0    0    0    0  0.00000000000E+00  0.00000000000E+00  0.45593999997E+02  0.45594000000E+02  0.51100000000E-03 0. -1.
         11   -1    0    0    0    0 -0.00000000000E+00 -0.00000000000E+00 -0.45593999997E+02  0.45594000000E+02  0.51100000000E-03 0.  1.
    9900012    2    1    2    0    0  0.17761402777E+02 -0.20073335672E+02 -0.30573851750E+02  0.50528847962E+02  0.29999963865E+02 0.  0.
         12    1    1    2    0    0 -0.17761402777E+02  0.20073335672E+02  0.30573851750E+02  0.40659152038E+02  0.00000000000E+00 0. -1.
         11    1    3    3    0    0  0.11188989061E+02 -0.20630486422E+02 -0.11417663466E+02  0.26099300479E+02  0.51100000000E-03 0. -1.
        -11    1    3    3    0    0  0.10358928888E+02  0.28303979048E+01 -0.13273254561E+02  0.17073308025E+02  0.51100000000E-03 0.  1.
        -12    1    3    3    0    0 -0.37865151713E+01 -0.22732471545E+01 -0.58829337232E+01  0.73562394578E+01  0.00000000000E+00 0.  1.
</event>
<event>
 7    1  0.5946946E-013  0.5052886E+02  0.7816164E-02  0.1300439E+00
        -11   -1    0    0    0    0  0.00000000000E+00  0.00000000000E+00  0.45593999997E+02  0.45594000000E+02  0.51100000000E-03 0.  1.
         11   -1    0    0    0    0 -0.00000000000E+00 -0.00000000000E+00 -0.45593999997E+02  0.45594000000E+02  0.51100000000E-03 0. -1.
    9900012    2    1    2    0    0 -0.25073076983E+02  0.22399780294E+02  0.22863861425E+02  0.50528861964E+02  0.30000006425E+02 0.  0.
         12    1    1    2    0    0  0.25073076983E+02 -0.22399780294E+02 -0.22863861425E+02  0.40659138036E+02  0.00000000000E+00 0. -1.
         11    1    3    3    0    0 -0.10679653777E+02  0.23456871109E+02  0.17338219124E+02  0.31062737318E+02  0.51100000000E-03 0.  1.
        -11    1    3    3    0    0 -0.76004103876E+01 -0.43191080752E+01  0.76717475765E+01  0.11630848798E+02  0.51100000000E-03 0. -1.
        -12    1    3    3    0    0 -0.67930128181E+01  0.32620172611E+01 -0.21461052759E+01  0.78352758479E+01  0.00000000000E+00 0.  1.
</event>
<event>
 7    1  0.5946946E-013  0.5052886E+02  0.7816164E-02  0.1300439E+00
        -11   -1    0    0    0    0  0.00000000000E+00  0.00000000000E+00  0.45593999997E+02  0.45594000000E+02  0.51100000000E-03 0.  1.
         11   -1    0    0    0    0 -0.00000000000E+00 -0.00000000000E+00 -0.45593999997E+02  0.45594000000E+02  0.51100000000E-03 0. -1.
    9900012    2    1    2    0    0  0.12809922834E+02  0.16097341492E+02  0.35070603907E+02  0.50528858536E+02  0.29999996007E+02 0.  0.
         12    1    1    2    0    0 -0.12809922834E+02 -0.16097341492E+02 -0.35070603907E+02  0.40659141464E+02  0.00000000000E+00 0. -1.
         11    1    3    3    0    0 -0.50913412055E+01  0.24629144661E+00  0.12485239108E+02  0.13485681688E+02  0.51100000000E-03 0. -1.
        -11    1    3    3    0    0  0.15074575364E+02  0.66844787663E+01  0.21916575960E+02  0.27427383777E+02  0.51100000000E-03 0.  1.
         12    1    3    3    0    0  0.28266886757E+01  0.91665712789E+01  0.66878883956E+00  0.96157930714E+01  0.00000000000E+00 0. -1.
</event>
<event>
 7    1  0.5946946E-013  0.5052886E+02  0.7816164E-02  0.1300439E+00
        -11   -1    0    0    0    0  0.00000000000E+00  0.00000000000E+00  0.45593999997E+02  0.45594000000E+02  0.51100000000E-03 0.  1.
         11   -1    0    0    0    0 -0.00000000000E+00 -0.00000000000E+00 -0.45593999997E+02  0.45594000000E+02  0.51100000000E-03 0. -1.
    9900012    2    1    2    0    0 -0.12986172486E+02  0.36826672001E+02  0.11327899244E+02  0.50528858989E+02  0.29999997382E+02 0.  0.
         12    1    1    2    0    0  0.12986172486E+02 -0.36826672001E+02 -0.11327899244E+02  0.40659141011E+02  0.00000000000E+00 0. -1.
         11    1    3    3    0    0  0.67854203013E+01  0.14148674721E+02  0.32940570947E+00  0.15695076725E+02  0.51100000000E-03 0. -1.
        -11    1    3    3    0    0 -0.16433312101E+02  0.24203076633E+02  0.87743250143E+01  0.30542289450E+02  0.51100000000E-03 0.  1.
         12    1    3    3    0    0 -0.33382806857E+01 -0.15250793525E+01  0.22241685199E+01  0.42914928140E+01  0.00000000000E+00 0. -1.
</event>
<event>
 7    1  0.5946946E-013  0.5052886E+02  0.7816164E-02  0.1300439E+00
        -11   -1    0    0    0    0  0.00000000000E+00  0.00000000000E+00  0.45593999997E+02  0.45594000000E+02  0.51100000000E-03 0.  1.
         11   -1    0    0    0    0 -0.00000000000E+00 -0.00000000000E+00 -0.45593999997E+02  0.45594000000E+02  0.51100000000E-03 0. -1.
    9900012    2    1    2    0    0  0.16964701429E+02  0.35730799768E+02 -0.94167337868E+01  0.50528855618E+02  0.29999987138E+02 0.  0.
         12    1    1    2    0    0 -0.16964701429E+02 -0.35730799768E+02  0.94167337868E+01  0.40659144382E+02  0.00000000000E+00 0. -1.
         11    1    3    3    0    0  0.45523471490E+01  0.19571462899E+02 -0.14531469182E+02  0.24797774525E+02  0.51100000000E-03 0. -1.
        -11    1    3    3    0    0  0.10591409205E+02  0.18184890100E+01  0.17391681369E+01  0.10886209500E+02  0.51100000000E-03 0.  1.
        -12    1    3    3    0    0  0.18209450755E+01  0.14340847859E+02  0.33755672582E+01  0.14844871593E+02  0.00000000000E+00 0.  1.
</event>
<event>
 7    1  0.5946946E-013  0.5052887E+02  0.7816164E-02  0.1300439E+00
        -11   -1    0    0    0    0  0.00000000000E+00  0.00000000000E+00  0.45593999997E+02  0.45594000000E+02  0.51100000000E-03 0. -1.
         11   -1    0    0    0    0 -0.00000000000E+00 -0.00000000000E+00 -0.45593999997E+02  0.45594000000E+02  0.51100000000E-03 0.  1.
    9900012    2    1    2    0    0  0.25676805458E+02  0.60923900459E+01 -0.30931366146E+02  0.50528868594E+02  0.30000026579E+02 0.  0.
         12    1    1    2    0    0 -0.25676805458E+02 -0.60923900459E+01  0.30931366146E+02  0.40659131406E+02  0.00000000000E+00 0. -1.
         11    1    3    3    0    0  0.91203470876E+00  0.58061904630E+01 -0.32618013624E+00  0.58864292016E+01  0.51100000000E-03 0. -1.
        -11    1    3    3    0    0  0.13530075034E+02 -0.10051233588E+02 -0.12649664442E+02  0.21073780815E+02  0.51100000000E-03 0.  1.
         12    1    3    3    0    0  0.11234695715E+02  0.10337433171E+02 -0.17955521568E+02  0.23568658578E+02  0.00000000000E+00 0. -1.
</event>
<event>
 7    1  0.5946946E-013  0.5052885E+02  0.7816164E-02  0.1300439E+00
        -11   -1    0    0    0    0  0.00000000000E+00  0.00000000000E+00  0.45593999997E+02  0.45594000000E+02  0.51100000000E-03 0.  1.
         11   -1    0    0    0    0 -0.00000000000E+00 -0.00000000000E+00 -0.45593999997E+02  0.45594000000E+02  0.51100000000E-03 0. -1.
    9900012    2    1    2    0    0 -0.16813834352E+02  0.25108659155E+02  0.27203240927E+02  0.50528854570E+02  0.29999983951E+02 0.  0.
         12    1    1    2    0    0  0.16813834352E+02 -0.25108659155E+02 -0.27203240927E+02  0.40659145430E+02  0.00000000000E+00 0. -1.
         11    1    3    3    0    0 -0.21366536115E+01  0.42395593578E+00 -0.48884156915E+01  0.53517880680E+01  0.51100000000E-03 0. -1.
        -11    1    3    3    0    0 -0.16219376062E+02  0.22376636978E+02  0.32156099655E+02  0.42400433813E+02  0.51100000000E-03 0.  1.
        -12    1    3    3    0    0  0.15421953212E+01  0.23080662412E+01 -0.64443036456E-01  0.27766326886E+01  0.00000000000E+00 0.  1.
</event>
<event>
 7    1  0.5946946E-013  0.5052886E+02  0.7816164E-02  0.1300439E+00
        -11   -1    0    0    0    0  0.00000000000E+00  0.00000000000E+00  0.45593999997E+02  0.45594000000E+02  0.51100000000E-03 0.  1.
         11   -1    0    0    0    0 -0.00000000000E+00 -0.00000000000E+00 -0.45593999997E+02  0.45594000000E+02  0.51100000000E-03 0. -1.
    9900012    2    1    2    0    0  0.38120542575E+02 -0.35687082565E+01  0.13684091904E+02  0.50528858149E+02  0.29999994828E+02 0.  0.
         12    1    1    2    0    0 -0.38120542575E+02  0.35687082565E+01 -0.13684091904E+02  0.40659141851E+02  0.00000000000E+00 0. -1.
         11    1    3    3    0    0  0.67631256447E+01  0.83725903410E+01  0.85069277921E+01  0.13718890561E+02  0.51100000000E-03 0. -1.
        -11    1    3    3    0    0  0.27270427949E+02 -0.11982775942E+02  0.90988090901E+01  0.31145649566E+02  0.51100000000E-03 0.  1.
        -12    1    3    3    0    0  0.40869889818E+01  0.41477344615E-01 -0.39216449785E+01  0.56643180211E+01  0.00000000000E+00 0.  1.
</event>
<event>
 7    1  0.5946946E-013  0.5052886E+02  0.7816164E-02  0.1300439E+00
        -11   -1    0    0    0    0  0.00000000000E+00  0.00000000000E+00  0.45593999997E+02  0.45594000000E+02  0.51100000000E-03 0. -1.
         11   -1    0    0    0    0 -0.00000000000E+00 -0.00000000000E+00 -0.45593999997E+02  0.45594000000E+02  0.51100000000E-03 0.  1.
    9900012    2    1    2    0    0  0.10239536309E+02  0.29164916182E+02 -0.26414483015E+02  0.50528863847E+02  0.30000012150E+02 0.  0.
         12    1    1    2    0    0 -0.10239536309E+02 -0.29164916182E+02  0.26414483015E+02  0.40659136153E+02  0.00000000000E+00 0. -1.
         11    1    3    3    0    0  0.56116477438E+01  0.95340294879E+01  0.17280090669E+01  0.11197067664E+02  0.51100000000E-03 0. -1.
        -11    1    3    3    0    0  0.21563082804E+01  0.17844561220E+02 -0.30550682462E+02  0.35446046743E+02  0.51100000000E-03 0.  1.
        -12    1    3    3    0    0  0.24715802853E+01  0.17863254737E+01  0.24081903801E+01  0.38857494402E+01  0.00000000000E+00 0.  1.
</event>
<event>
 7    1  0.5946946E-013  0.5052882E+02  0.7816164E-02  0.1300439E+00
        -11   -1    0    0    0    0  0.00000000000E+00  0.00000000000E+00  0.45593999997E+02  0.45594000000E+02  0.51100000000E-03 0. -1.
         11   -1    0    0    0    0 -0.00000000000E+00 -0.00000000000E+00 -0.45593999997E+02  0.45594000000E+02  0.51100000000E-03 0.  1.
    9900012    2    1    2    0    0  0.32492739267E+02 -0.61264033895E+01 -0.23661325010E+02  0.50528816231E+02  0.29999867416E+02 0.  0.
         12    1    1    2    0    0 -0.32492739267E+02  0.61264033895E+01  0.23661325010E+02  0.40659183769E+02  0.00000000000E+00 0. -1.
         11    1    3    3    0    0  0.36905950756E+00  0.13558662572E+01  0.36531885372E+01  0.39141237815E+01  0.51100000000E-03 0. -1.
        -11    1    3    3    0    0  0.10202577195E+02 -0.62467832797E+01 -0.20304897308E+02  0.23567005276E+02  0.51100000000E-03 0.  1.
        -12    1    3    3    0    0  0.21921102564E+02 -0.12354863669E+01 -0.70096162391E+01  0.23047687173E+02  0.00000000000E+00 0.  1.
</event>
<event>
 7    1  0.5946946E-013  0.5052885E+02  0.7816164E-02  0.1300439E+00
        -11   -1    0    0    0    0  0.00000000000E+00  0.00000000000E+00  0.45593999997E+02  0.45594000000E+02  0.51100000000E-03 0. -1.
         11   -1    0    0    0    0 -0.00000000000E+00 -0.00000000000E+00 -0.45593999997E+02  0.45594000000E+02  0.51100000000E-03 0.  1.
    9900012    2    1    2    0    0  0.80856790314E+01  0.12940526144E+02 -0.37687276780E+02  0.50528852771E+02  0.29999978483E+02 0.  0.
         12    1    1    2    0    0 -0.80856790314E+01 -0.12940526144E+02  0.37687276780E+02  0.40659147229E+02  0.00000000000E+00 0. -1.
         11    1    3    3    0    0 -0.21401702417E+01  0.70268018388E+01 -0.36282421337E+01  0.81927049249E+01  0.51100000000E-03 0. -1.
        -11    1    3    3    0    0  0.33772915867E+01 -0.79341367229E+01 -0.18495944381E+02  0.20407267892E+02  0.51100000000E-03 0.  1.
        -12    1    3    3    0    0  0.68485576864E+01  0.13847861028E+02 -0.15563090265E+02  0.21928879954E+02  0.00000000000E+00 0.  1.
</event>
<event>
 7    1  0.5946946E-013  0.5052889E+02  0.7816164E-02  0.1300439E+00
        -11   -1    0    0    0    0  0.00000000000E+00  0.00000000000E+00  0.45593999997E+02  0.45594000000E+02  0.51100000000E-03 0.  1.
         11   -1    0    0    0    0 -0.00000000000E+00 -0.00000000000E+00 -0.45593999997E+02  0.45594000000E+02  0.51100000000E-03 0. -1.
    9900012    2    1    2    0    0 -0.35538710156E+02  0.10324866355E+02  0.16839250544E+02  0.50528891012E+02  0.30000094719E+02 0.  0.
         12    1    1    2    0    0  0.35538710156E+02 -0.10324866355E+02 -0.16839250544E+02  0.40659108988E+02  0.00000000000E+00 0. -1.
         11    1    3    3    0    0  0.25672279870E+01  0.25044780974E+00 -0.10741916606E+01  0.27941495357E+01  0.51100000000E-03 0. -1.
        -11    1    3    3    0    0 -0.31912745841E+02  0.13594544942E+02  0.81215907299E+01  0.35625766456E+02  0.51100000000E-03 0.  1.
        -12    1    3    3    0    0 -0.61931923021E+01 -0.35201263968E+01  0.97918514748E+01  0.12108975020E+02  0.00000000000E+00 0.  1.
</event>
<event>
 7    1  0.5946946E-013  0.5052886E+02  0.7816164E-02  0.1300439E+00
        -11   -1    0    0    0    0  0.00000000000E+00  0.00000000000E+00  0.45593999997E+02  0.45594000000E+02  0.51100000000E-03 0. -1.
         11   -1    0    0    0    0 -0.00000000000E+00 -0.00000000000E+00 -0.45593999997E+02  0.45594000000E+02  0.51100000000E-03 0.  1.
    9900012    2    1    2    0    0 -0.23809124931E+02  0.17676445666E+02  0.27817880190E+02  0.50528860564E+02  0.30000002170E+02 0.  0.
         12    1    1    2    0    0  0.23809124931E+02 -0.17676445666E+02 -0.27817880190E+02  0.40659139436E+02  0.00000000000E+00 0. -1.
         11    1    3    3    0    0 -0.17605906673E+02  0.55788685655E+01  0.48261496442E+00  0.18474973389E+02  0.51100000000E-03 0. -1.
        -11    1    3    3    0    0 -0.81920063424E+01  0.76028977814E+01  0.14483907111E+02  0.18294714757E+02  0.51100000000E-03 0.  1.
         12    1    3    3    0    0  0.19887880842E+01  0.44946793193E+01  0.12851358115E+02  0.13759172418E+02  0.00000000000E+00 0. -1.
</event>
<event>
 7    1  0.5946946E-013  0.5052887E+02  0.7816164E-02  0.1300439E+00
        -11   -1    0    0    0    0  0.00000000000E+00  0.00000000000E+00  0.45593999997E+02  0.45594000000E+02  0.51100000000E-03 0. -1.
         11   -1    0    0    0    0 -0.00000000000E+00 -0.00000000000E+00 -0.45593999997E+02  0.45594000000E+02  0.51100000000E-03 0.  1.
    9900012    2    1    2    0    0  0.14483395142E+02  0.35937969550E+01 -0.37821698146E+02  0.50528868651E+02  0.30000026752E+02 0.  0.
         12    1    1    2    0    0 -0.14483395142E+02 -0.35937969550E+01  0.37821698146E+02  0.40659131349E+02  0.00000000000E+00 0. -1.
         11    1    3    3    0    0  0.20590839540E+01 -0.19822543337E+01  0.49795516522E+00  0.29012270819E+01  0.51100000000E-03 0. -1.
        -11    1    3    3    0    0  0.39536970201E+01  0.13212288342E+02 -0.31382092823E+02  0.34278740257E+02  0.51100000000E-03 0.  1.
        -12    1    3    3    0    0  0.84706141681E+01 -0.76362370534E+01 -0.69375604878E+01  0.13348901312E+02  0.00000000000E+00 0.  1.
</event>
<event>
 7    1  0.5946946E-013  0.5052887E+02  0.7816164E-02  0.1300439E+00
        -11   -1    0    0    0    0  0.00000000000E+00  0.00000000000E+00  0.45593999997E+02  0.45594000000E+02  0.51100000000E-03 0.  1.
         11   -1    0    0    0    0 -0.00000000000E+00 -0.00000000000E+00 -0.45593999997E+02  0.45594000000E+02  0.51100000000E-03 0. -1.
    9900012    2    1    2    0    0 -0.46281183699E+01 -0.20517554427E+02  0.34796197519E+02  0.50528869647E+02  0.30000029778E+02 0.  0.
         12    1    1    2    0    0  0.46281183699E+01  0.20517554427E+02 -0.34796197519E+02  0.40659130353E+02  0.00000000000E+00 0. -1.
         11    1    3    3    0    0 -0.17550936907E+01 -0.97921520291E+01 -0.25967582069E+01  0.10281524628E+02  0.51100000000E-03 0. -1.
        -11    1    3    3    0    0  0.28164591821E+01 -0.80785776345E+01  0.19822119100E+02  0.21589633271E+02  0.51100000000E-03 0.  1.
         12    1    3    3    0    0 -0.56894838613E+01 -0.26468247638E+01  0.17570836626E+02  0.18657711748E+02  0.00000000000E+00 0. -1.
</event>
<event>
 7    1  0.5946946E-013  0.5052888E+02  0.7816164E-02  0.1300439E+00
        -11   -1    0    0    0    0  0.00000000000E+00  0.00000000000E+00  0.45593999997E+02  0.45594000000E+02  0.51100000000E-03 0.  1.
         11   -1    0    0    0    0 -0.00000000000E+00 -0.00000000000E+00 -0.45593999997E+02  0.45594000000E+02  0.51100000000E-03 0. -1.
    9900012    2    1    2    0    0 -0.25506917480E+02  0.15728132876E+02  0.27480668257E+02  0.50528878871E+02  0.30000057817E+02 0.  0.
         12    1    1    2    0    0  0.25506917480E+02 -0.15728132876E+02 -0.27480668257E+02  0.40659121129E+02  0.00000000000E+00 0. -1.
         11    1    3    3    0    0 -0.15035885849E+01 -0.34816204238E+01  0.22944389948E+01  0.44324834992E+01  0.51100000000E-03 0.  1.
        -11    1    3    3    0    0 -0.25434642858E+02  0.14939641032E+02  0.11452180614E+02  0.31642793374E+02  0.51100000000E-03 0. -1.
        -12    1    3    3    0    0  0.14313139622E+01  0.42701122679E+01  0.13734048648E+02  0.14453601998E+02  0.00000000000E+00 0.  1.
</event>
<event>
 7    1  0.5946946E-013  0.5052886E+02  0.7816164E-02  0.1300439E+00
        -11   -1    0    0    0    0  0.00000000000E+00  0.00000000000E+00  0.45593999997E+02  0.45594000000E+02  0.51100000000E-03 0. -1.
         11   -1    0    0    0    0 -0.00000000000E+00 -0.00000000000E+00 -0.45593999997E+02  0.45594000000E+02  0.51100000000E-03 0.  1.
    9900012    2    1    2    0    0 -0.13211433046E+02 -0.36711169032E+02 -0.11441765086E+02  0.50528857324E+02  0.29999992323E+02 0.  0.
         12    1    1    2    0    0  0.13211433046E+02  0.36711169032E+02  0.11441765086E+02  0.40659142676E+02  0.00000000000E+00 0. -1.
         11    1    3    3    0    0 -0.16402579081E+02 -0.17707228445E+02  0.28865262741E+00  0.24138638328E+02  0.51100000000E-03 0. -1.
        -11    1    3    3    0    0  0.80370884279E+01 -0.13052453827E+02 -0.10590541238E+02  0.18631180995E+02  0.51100000000E-03 0.  1.
        -12    1    3    3    0    0 -0.48459423922E+01 -0.59514867600E+01 -0.11398764757E+01  0.77590380011E+01  0.00000000000E+00 0.  1.
</event>
<event>
 7    1  0.5946946E-013  0.5052886E+02  0.7816164E-02  0.1300439E+00
        -11   -1    0    0    0    0  0.00000000000E+00  0.00000000000E+00  0.45593999997E+02  0.45594000000E+02  0.51100000000E-03 0.  1.
         11   -1    0    0    0    0 -0.00000000000E+00 -0.00000000000E+00 -0.45593999997E+02  0.45594000000E+02  0.51100000000E-03 0. -1.
    9900012    2    1    2    0    0 -0.68917507727E+01  0.36768697465E+02  0.15928973514E+02  0.50528861554E+02  0.30000005178E+02 0.  0.
         12    1    1    2    0    0  0.68917507727E+01 -0.36768697465E+02 -0.15928973514E+02  0.40659138446E+02  0.00000000000E+00 0. -1.
         11    1    3    3    0    0 -0.13774701959E+02  0.79880764519E+01  0.20784101626E+01  0.16058380009E+02  0.51100000000E-03 0. -1.
        -11    1    3    3    0    0 -0.20979097798E+01  0.84640827659E+01  0.71271694493E+01  0.11262258527E+02  0.51100000000E-03 0.  1.
         12    1    3    3    0    0  0.89808609662E+01  0.20316538247E+02  0.67233939024E+01  0.23208223017E+02  0.00000000000E+00 0. -1.
</event>
<event>
 7    1  0.5946946E-013  0.5052887E+02  0.7816164E-02  0.1300439E+00
        -11   -1    0    0    0    0  0.00000000000E+00  0.00000000000E+00  0.45593999997E+02  0.45594000000E+02  0.51100000000E-03 0.  1.
         11   -1    0    0    0    0 -0.00000000000E+00 -0.00000000000E+00 -0.45593999997E+02  0.45594000000E+02  0.51100000000E-03 0. -1.
    9900012    2    1    2    0    0 -0.14877533021E+02  0.10347863007E+02  0.36397059810E+02  0.50528865474E+02  0.30000017093E+02 0.  0.
         12    1    1    2    0    0  0.14877533021E+02 -0.10347863007E+02 -0.36397059810E+02  0.40659134526E+02  0.00000000000E+00 0. -1.
         11    1    3    3    0    0  0.28530757578E+01 -0.20845693016E+01 -0.12868134632E+01  0.37604999140E+01  0.51100000000E-03 0. -1.
        -11    1    3    3    0    0 -0.14744909504E+02  0.12744985184E+02  0.38915806978E+02  0.43523407916E+02  0.51100000000E-03 0.  1.
        -12    1    3    3    0    0 -0.29856992747E+01 -0.31255287509E+00 -0.12319337040E+01  0.32449576438E+01  0.00000000000E+00 0.  1.
</event>
<event>
 7    1  0.5946946E-013  0.5052885E+02  0.7816164E-02  0.1300439E+00
        -11   -1    0    0    0    0  0.00000000000E+00  0.00000000000E+00  0.45593999997E+02  0.45594000000E+02  0.51100000000E-03 0. -1.
         11   -1    0    0    0    0 -0.00000000000E+00 -0.00000000000E+00 -0.45593999997E+02  0.45594000000E+02  0.51100000000E-03 0.  1.
    9900012    2    1    2    0    0  0.14750923928E+02 -0.36736198678E+02 -0.92751395259E+01  0.50528852650E+02  0.29999978114E+02 0.  0.
         12    1    1    2    0    0 -0.14750923928E+02  0.36736198678E+02  0.92751395259E+01  0.40659147350E+02  0.00000000000E+00 0. -1.
         11    1    3    3    0    0  0.32388670737E+01  0.10173241895E+01 -0.69664981662E+00  0.34656211067E+01  0.51100000000E-03 0. -1.
        -11    1    3    3    0    0 -0.53412216141E+01 -0.13542532219E+02 -0.97827649147E+01  0.17539421794E+02  0.51100000000E-03 0.  1.
        -12    1    3    3    0    0  0.16853278468E+02 -0.24210990648E+02  0.12042752054E+01  0.29523809748E+02  0.00000000000E+00 0.  1.
</event>
<event>
 7    1  0.5946946E-013  0.5052886E+02  0.7816164E-02  0.1300439E+00
        -11   -1    0    0    0    0  0.00000000000E+00  0.00000000000E+00  0.45593999997E+02  0.45594000000E+02  0.51100000000E-03 0.  1.
         11   -1    0    0    0    0 -0.00000000000E+00 -0.00000000000E+00 -0.45593999997E+02  0.45594000000E+02  0.51100000000E-03 0. -1.
    9900012    2    1    2    0    0  0.11819400297E+02 -0.31858340574E+01  0.38772647254E+02  0.50528856660E+02  0.29999990305E+02 0.  0.
         12    1    1    2    0    0 -0.11819400297E+02  0.31858340574E+01 -0.38772647254E+02  0.40659143340E+02  0.00000000000E+00 0. -1.
         11    1    3    3    0    0  0.57093244299E+01 -0.88461270427E+01  0.29447387078E-01  0.10528590433E+02  0.51100000000E-03 0. -1.
        -11    1    3    3    0    0  0.22633264938E+01  0.55875657209E+01  0.25949267064E+02  0.26640345323E+02  0.51100000000E-03 0.  1.
         12    1    3    3    0    0  0.38467493728E+01  0.72727264360E-01  0.12793932803E+02  0.13359920904E+02  0.00000000000E+00 0. -1.
</event>
<event>
 7    1  0.5946946E-013  0.5052886E+02  0.7816164E-02  0.1300439E+00
        -11   -1    0    0    0    0  0.00000000000E+00  0.00000000000E+00  0.45593999997E+02  0.45594000000E+02  0.51100000000E-03 0.  1.
         11   -1    0    0    0    0 -0.00000000000E+00 -0.00000000000E+00 -0.45593999997E+02  0.45594000000E+02  0.51100000000E-03 0. -1.
    9900012    2    1    2    0    0 -0.35807738826E+02 -0.53921694391E+01  0.18490429781E+02  0.50528860258E+02  0.30000001239E+02 0.  0.
         12    1    1    2    0    0  0.35807738826E+02  0.53921694391E+01 -0.18490429781E+02  0.40659139742E+02  0.00000000000E+00 0. -1.
         11    1    3    3    0    0 -0.13946881821E+02 -0.91081794965E+01 -0.26004746573E+01  0.16859327240E+02  0.51100000000E-03 0. -1.
        -11    1    3    3    0    0 -0.23605381070E+02  0.39517959169E+01  0.17432126052E+02  0.29609284445E+02  0.51100000000E-03 0.  1.
         12    1    3    3    0    0  0.17445240651E+01 -0.23578585951E+00  0.36587783871E+01  0.40602485726E+01  0.00000000000E+00 0. -1.
</event>
<event>
 7    1  0.5946946E-013  0.5052886E+02  0.7816164E-02  0.1300439E+00
        -11   -1    0    0    0    0  0.00000000000E+00  0.00000000000E+00  0.45593999997E+02  0.45594000000E+02  0.51100000000E-03 0. -1.
         11   -1    0    0    0    0 -0.00000000000E+00 -0.00000000000E+00 -0.45593999997E+02  0.45594000000E+02  0.51100000000E-03 0.  1.
    9900012    2    1    2    0    0  0.25600931999E+02  0.26593098075E+02 -0.17045971813E+02  0.50528859090E+02  0.29999997691E+02 0.  0.
         12    1    1    2    0    0 -0.25600931999E+02 -0.26593098075E+02  0.17045971813E+02  0.40659140910E+02  0.00000000000E+00 0. -1.
         11    1    3    3    0    0  0.17046940069E+02 -0.29260951079E+00 -0.89622026767E+01  0.19261486525E+02  0.51100000000E-03 0. -1.
        -11    1    3    3    0    0  0.38604702252E+01  0.21539757214E+02 -0.21219994330E+01  0.21985614685E+02  0.51100000000E-03 0.  1.
         12    1    3    3    0    0  0.46935217045E+01  0.53459503718E+01 -0.59617697031E+01  0.92817578810E+01  0.00000000000E+00 0. -1.
</event>
<event>
 7    1  0.5946946E-013  0.5052885E+02  0.7816164E-02  0.1300439E+00
        -11   -1    0    0    0    0  0.00000000000E+00  0.00000000000E+00  0.45593999997E+02  0.45594000000E+02  0.51100000000E-03 0.  1.
         11   -1    0    0    0    0 -0.00000000000E+00 -0.00000000000E+00 -0.45593999997E+02  0.45594000000E+02  0.51100000000E-03 0. -1.
    9900012    2    1    2    0    0 -0.64520992725E+01 -0.38211515327E+02  0.12305152145E+02  0.50528852715E+02  0.29999978312E+02 0.  0.
         12    1    1    2    0    0  0.64520992725E+01  0.38211515327E+02 -0.12305152145E+02  0.40659147285E+02  0.00000000000E+00 0. -1.
         11    1    3    3    0    0 -0.10630113051E+02 -0.27669043150E+02  0.62561959828E+01  0.30293815223E+02  0.51100000000E-03 0. -1.
        -11    1    3    3    0    0  0.13826190589E+01 -0.70618439901E+01  0.11266424415E+02  0.13368380432E+02  0.51100000000E-03 0.  1.
         12    1    3    3    0    0  0.27953947196E+01 -0.34806281869E+01 -0.52174682528E+01  0.68666570603E+01  0.00000000000E+00 0. -1.
</event>
<event>
 7    1  0.5946946E-013  0.5052887E+02  0.7816164E-02  0.1300439E+00
        -11   -1    0    0    0    0  0.00000000000E+00  0.00000000000E+00  0.45593999997E+02  0.45594000000E+02  0.51100000000E-03 0.  1.
         11   -1    0    0    0    0 -0.00000000000E+00 -0.00000000000E+00 -0.45593999997E+02  0.45594000000E+02  0.51100000000E-03 0. -1.
    9900012    2    1    2    0    0  0.26221840673E+02  0.21810514864E+02  0.22133268923E+02  0.50528867199E+02  0.30000022339E+02 0.  0.
         12    1    1    2    0    0 -0.26221840673E+02 -0.21810514864E+02 -0.22133268923E+02  0.40659132801E+02  0.00000000000E+00 0. -1.
         11    1    3    3    0    0  0.32140262558E+01  0.12800905499E+02 -0.64725157466E+00  0.13214086470E+02  0.51100000000E-03 0. -1.
        -11    1    3    3    0    0  0.15422596488E+02 -0.18189476696E+01  0.79477805888E+01  0.17445121657E+02  0.51100000000E-03 0.  1.
         12    1    3    3    0    0  0.75852179291E+01  0.10828557034E+02  0.14832739908E+02  0.19869659073E+02  0.00000000000E+00 0. -1.
</event>
<event>
 7    1  0.5946946E-013  0.5052886E+02  0.7816164E-02  0.1300439E+00
        -11   -1    0    0    0    0  0.00000000000E+00  0.00000000000E+00  0.45593999997E+02  0.45594000000E+02  0.51100000000E-03 0.  1.
         11   -1    0    0    0    0 -0.00000000000E+00 -0.00000000000E+00 -0.45593999997E+02  0.45594000000E+02  0.51100000000E-03 0. -1.
    9900012    2    1    2    0    0 -0.17998462612E+02 -0.18095542595E+02  0.31650782701E+02  0.50528863711E+02  0.30000011737E+02 0.  0.
         12    1    1    2    0    0  0.17998462612E+02  0.18095542595E+02 -0.31650782701E+02  0.40659136289E+02  0.00000000000E+00 0. -1.
         11    1    3    3    0    0 -0.80292575026E+01 -0.12374745453E+01  0.39650151813E+01  0.90400035920E+01  0.51100000000E-03 0.  1.
        -11    1    3    3    0    0  0.42560700043E+01  0.32630500394E+01  0.93310121489E+01  0.10762407511E+02  0.51100000000E-03 0. -1.
        -12    1    3    3    0    0 -0.14225275114E+02 -0.20121118089E+02  0.18354755370E+02  0.30726452609E+02  0.00000000000E+00 0.  1.
</event>
<event>
 7    1  0.5946946E-013  0.5052888E+02  0.7816164E-02  0.1300439E+00
        -11   -1    0    0    0    0  0.00000000000E+00  0.00000000000E+00  0.45593999997E+02  0.45594000000E+02  0.51100000000E-03 0.  1.
         11   -1    0    0    0    0 -0.00000000000E+00 -0.00000000000E+00 -0.45593999997E+02  0.45594000000E+02  0.51100000000E-03 0. -1.
    9900012    2    1    2    0    0  0.16772358486E+02 -0.61711753255E+01  0.36520799678E+02  0.50528877737E+02  0.30000054370E+02 0.  0.
         12    1    1    2    0    0 -0.16772358486E+02  0.61711753255E+01 -0.36520799678E+02  0.40659122263E+02  0.00000000000E+00 0. -1.
         11    1    3    3    0    0  0.12021440650E+02 -0.99349101625E+01  0.10428443200E+02  0.18760860936E+02  0.51100000000E-03 0.  1.
        -11    1    3    3    0    0 -0.39606283251E+01 -0.24341803162E+01  0.17336003819E+02  0.17948505209E+02  0.51100000000E-03 0. -1.
         12    1    3    3    0    0  0.87115461610E+01  0.61979151532E+01  0.87563526588E+01  0.13819511592E+02  0.00000000000E+00 0. -1.
</event>
<event>
 7    1  0.5946946E-013  0.5052884E+02  0.7816164E-02  0.1300439E+00
        -11   -1    0    0    0    0  0.00000000000E+00  0.00000000000E+00  0.45593999997E+02  0.45594000000E+02  0.51100000000E-03 0. -1.
         11   -1    0    0    0    0 -0.00000000000E+00 -0.00000000000E+00 -0.45593999997E+02  0.45594000000E+02  0.51100000000E-03 0.  1.
    9900012    2    1    2    0    0  0.21152961359E+02  0.33411912786E+02 -0.94532456248E+01  0.50528836911E+02  0.29999930274E+02 0.  0.
         12    1    1    2    0    0 -0.21152961359E+02 -0.33411912786E+02  0.94532456248E+01  0.40659163089E+02  0.00000000000E+00 0. -1.
         11    1    3    3    0    0  0.10935587613E+02  0.21072592603E+02 -0.10670043676E+02  0.26028658585E+02  0.51100000000E-03 0. -1.
        -11    1    3    3    0    0  0.15085330394E+02  0.66239168375E+01  0.30892804718E+01  0.16762670475E+02  0.51100000000E-03 0.  1.
         12    1    3    3    0    0 -0.48679566474E+01  0.57154033454E+01 -0.18724824208E+01  0.77375078506E+01  0.00000000000E+00 0. -1.
</event>
<event>
 7    1  0.5946946E-013  0.5052886E+02  0.7816164E-02  0.1300439E+00
        -11   -1    0    0    0    0  0.00000000000E+00  0.00000000000E+00  0.45593999997E+02  0.45594000000E+02  0.51100000000E-03 0. -1.
         11   -1    0    0    0    0 -0.00000000000E+00 -0.00000000000E+00 -0.45593999997E+02  0.45594000000E+02  0.51100000000E-03 0.  1.
    9900012    2    1    2    0    0 -0.11526870169E+02 -0.31959565925E+02 -0.22335697383E+02  0.50528856286E+02  0.29999989167E+02 0.  0.
         12    1    1    2    0    0  0.11526870169E+02  0.31959565925E+02  0.22335697383E+02  0.40659143714E+02  0.00000000000E+00 0. -1.
         11    1    3    3    0    0 -0.67173004450E+01 -0.45388927396E+01  0.36540969528E+01  0.88924741985E+01  0.51100000000E-03 0. -1.
        -11    1    3    3    0    0  0.49782216210E+01 -0.12044883895E+02 -0.53171384548E+01  0.14076003700E+02  0.51100000000E-03 0.  1.
        -12    1    3    3    0    0 -0.97877913447E+01 -0.15375789290E+02 -0.20672655881E+02  0.27560378388E+02  0.00000000000E+00 0.  1.
</event>
<event>
 7    1  0.5946946E-013  0.5052886E+02  0.7816164E-02  0.1300439E+00
        -11   -1    0    0    0    0  0.00000000000E+00  0.00000000000E+00  0.45593999997E+02  0.45594000000E+02  0.51100000000E-03 0.  1.
         11   -1    0    0    0    0 -0.00000000000E+00 -0.00000000000E+00 -0.45593999997E+02  0.45594000000E+02  0.51100000000E-03 0. -1.
    9900012    2    1    2    0    0  0.31597838662E+02  0.23929144395E+01  0.25475799234E+02  0.50528858418E+02  0.29999995647E+02 0.  0.
         12    1    1    2    0    0 -0.31597838662E+02 -0.23929144395E+01 -0.25475799234E+02  0.40659141582E+02  0.00000000000E+00 0. -1.
         11    1    3    3    0    0  0.19830882998E+02  0.11232914838E+02  0.73200750244E+01  0.23937957199E+02  0.51100000000E-03 0.  1.
        -11    1    3    3    0    0 -0.12385728920E+00  0.19119864265E+01  0.64835115363E+01  0.67606918895E+01  0.51100000000E-03 0. -1.
         12    1    3    3    0    0  0.11890812952E+02 -0.10751986825E+02  0.11672212673E+02  0.19830209329E+02  0.00000000000E+00 0. -1.
</event>
<event>
 7    1  0.5946946E-013  0.5052886E+02  0.7816164E-02  0.1300439E+00
        -11   -1    0    0    0    0  0.00000000000E+00  0.00000000000E+00  0.45593999997E+02  0.45594000000E+02  0.51100000000E-03 0. -1.
         11   -1    0    0    0    0 -0.00000000000E+00 -0.00000000000E+00 -0.45593999997E+02  0.45594000000E+02  0.51100000000E-03 0.  1.
    9900012    2    1    2    0    0 -0.90953498367E+01  0.19606914079E-01 -0.39628774829E+02  0.50528861205E+02  0.30000004120E+02 0.  0.
         12    1    1    2    0    0  0.90953498367E+01 -0.19606914079E-01  0.39628774829E+02  0.40659138795E+02  0.00000000000E+00 0. -1.
         11    1    3    3    0    0  0.39159421776E+01 -0.13973504101E+00  0.14353246888E+00  0.39210624646E+01  0.51100000000E-03 0. -1.
        -11    1    3    3    0    0 -0.10030397012E+02 -0.95285278881E+01 -0.26645435903E+02  0.30023007222E+02  0.51100000000E-03 0.  1.
        -12    1    3    3    0    0 -0.29808950020E+01  0.96878698431E+01 -0.13126871395E+02  0.16584791519E+02  0.00000000000E+00 0.  1.
</event>
<event>
 7    1  0.5946946E-013  0.5052885E+02  0.7816164E-02  0.1300439E+00
        -11   -1    0    0    0    0  0.00000000000E+00  0.00000000000E+00  0.45593999997E+02  0.45594000000E+02  0.51100000000E-03 0.  1.
         11   -1    0    0    0    0 -0.00000000000E+00 -0.00000000000E+00 -0.45593999997E+02  0.45594000000E+02  0.51100000000E-03 0. -1.
    9900012    2    1    2    0    0  0.45703935544E+01  0.33372080906E+02  0.22772391343E+02  0.50528854796E+02  0.29999984637E+02 0.  0.
         12    1    1    2    0    0 -0.45703935544E+01 -0.33372080906E+02 -0.22772391343E+02  0.40659145204E+02  0.00000000000E+00 0. -1.
         11    1    3    3    0    0  0.59192117880E+01  0.74971804827E+01  0.15258168651E+01  0.96733086764E+01  0.51100000000E-03 0. -1.
        -11    1    3    3    0    0 -0.86056312656E+01  0.26196800751E+02  0.17756308903E+02  0.32796581608E+02  0.51100000000E-03 0.  1.
        -12    1    3    3    0    0  0.72568130321E+01 -0.32190032786E+00  0.34902655752E+01  0.80589645110E+01  0.00000000000E+00 0.  1.
</event>
<event>
 7    1  0.5946946E-013  0.5052886E+02  0.7816164E-02  0.1300439E+00
        -11   -1    0    0    0    0  0.00000000000E+00  0.00000000000E+00  0.45593999997E+02  0.45594000000E+02  0.51100000000E-03 0.  1.
         11   -1    0    0    0    0 -0.00000000000E+00 -0.00000000000E+00 -0.45593999997E+02  0.45594000000E+02  0.51100000000E-03 0. -1.
    9900012    2    1    2    0    0 -0.35740319082E+02 -0.16605857973E+02  0.10002033823E+02  0.50528860711E+02  0.30000002617E+02 0.  0.
         12    1    1    2    0    0  0.35740319082E+02  0.16605857973E+02 -0.10002033823E+02  0.40659139289E+02  0.00000000000E+00 0. -1.
         11    1    3    3    0    0  0.47309860873E+00 -0.10349767241E+02 -0.24403791203E+01  0.10644104224E+02  0.51100000000E-03 0. -1.
        -11    1    3    3    0    0 -0.10258446247E+02 -0.26065872890E+01  0.80752204984E+01  0.13313121462E+02  0.51100000000E-03 0.  1.
         12    1    3    3    0    0 -0.25954971444E+02 -0.36495034434E+01  0.43671924454E+01  0.26571635025E+02  0.00000000000E+00 0. -1.
</event>
<event>
 7    1  0.5946946E-013  0.5052886E+02  0.7816164E-02  0.1300439E+00
        -11   -1    0    0    0    0  0.00000000000E+00  0.00000000000E+00  0.45593999997E+02  0.45594000000E+02  0.51100000000E-03 0.  1.
         11   -1    0    0    0    0 -0.00000000000E+00 -0.00000000000E+00 -0.45593999997E+02  0.45594000000E+02  0.51100000000E-03 0. -1.
    9900012    2    1    2    0    0  0.64907919437E+01  0.35884247224E+02  0.17982099778E+02  0.50528862143E+02  0.30000006969E+02 0.  0.
         12    1    1    2    0    0 -0.64907919437E+01 -0.35884247224E+02 -0.17982099778E+02  0.40659137857E+02  0.00000000000E+00 0. -1.
         11    1    3    3    0    0 -0.90951385352E+00 -0.42756207300E+01  0.16422069315E+01  0.46695815598E+01  0.51100000000E-03 0. -1.
        -11    1    3    3    0    0  0.46895023537E+01  0.29394340826E+02  0.17768598065E+02  0.34666147498E+02  0.51100000000E-03 0.  1.
        -12    1    3    3    0    0  0.27108034435E+01  0.10765527128E+02 -0.14287052180E+01  0.11193133084E+02  0.00000000000E+00 0.  1.
</event>
<event>
 7    1  0.5946946E-013  0.5052886E+02  0.7816164E-02  0.1300439E+00
        -11   -1    0    0    0    0  0.00000000000E+00  0.00000000000E+00  0.45593999997E+02  0.45594000000E+02  0.51100000000E-03 0.  1.
         11   -1    0    0    0    0 -0.00000000000E+00 -0.00000000000E+00 -0.45593999997E+02  0.45594000000E+02  0.51100000000E-03 0. -1.
    9900012    2    1    2    0    0 -0.12901132129E+02 -0.28432352226E+02  0.26044725191E+02  0.50528861131E+02  0.30000003893E+02 0.  0.
         12    1    1    2    0    0  0.12901132129E+02  0.28432352226E+02 -0.26044725191E+02  0.40659138869E+02  0.00000000000E+00 0. -1.
         11    1    3    3    0    0  0.26895550806E+01 -0.81817680475E+01 -0.38644887330E+01  0.94397726849E+01  0.51100000000E-03 0. -1.
        -11    1    3    3    0    0 -0.17417186536E+02 -0.19630752999E+02  0.27957474856E+02  0.38345081180E+02  0.51100000000E-03 0.  1.
        -12    1    3    3    0    0  0.18264993270E+01 -0.61983117953E+00  0.19517390684E+01  0.27440072656E+01  0.00000000000E+00 0.  1.
</event>
<event>
 7    1  0.5946946E-013  0.5052886E+02  0.7816164E-02  0.1300439E+00
        -11   -1    0    0    0    0  0.00000000000E+00  0.00000000000E+00  0.45593999997E+02  0.45594000000E+02  0.51100000000E-03 0.  1.
         11   -1    0    0    0    0 -0.00000000000E+00 -0.00000000000E+00 -0.45593999997E+02  0.45594000000E+02  0.51100000000E-03 0. -1.
    9900012    2    1    2    0    0  0.33670868005E+02 -0.22472089110E+02  0.38004968876E+01  0.50528856898E+02  0.29999991028E+02 0.  0.
         12    1    1    2    0    0 -0.33670868005E+02  0.22472089110E+02 -0.38004968876E+01  0.40659143102E+02  0.00000000000E+00 0. -1.
         11    1    3    3    0    0  0.98249106473E+01 -0.16778599976E+02 -0.31197748200E+01  0.19692213729E+02  0.51100000000E-03 0. -1.
        -11    1    3    3    0    0  0.15111066829E+02  0.25973658133E+01  0.10125445559E+02  0.18374310815E+02  0.51100000000E-03 0.  1.
        -12    1    3    3    0    0  0.87348905280E+01 -0.82908549480E+01 -0.32051738510E+01  0.12462332355E+02  0.00000000000E+00 0.  1.
</event>
<event>
 7    1  0.5946946E-013  0.5052887E+02  0.7816164E-02  0.1300439E+00
        -11   -1    0    0    0    0  0.00000000000E+00  0.00000000000E+00  0.45593999997E+02  0.45594000000E+02  0.51100000000E-03 0.  1.
         11   -1    0    0    0    0 -0.00000000000E+00 -0.00000000000E+00 -0.45593999997E+02  0.45594000000E+02  0.51100000000E-03 0. -1.
    9900012    2    1    2    0    0 -0.32696388558E+02  0.12441166046E+02  0.20720246152E+02  0.50528867718E+02  0.30000023915E+02 0.  0.
         12    1    1    2    0    0  0.32696388558E+02 -0.12441166046E+02 -0.20720246152E+02  0.40659132282E+02  0.00000000000E+00 0. -1.
         11    1    3    3    0    0  0.19902214766E+01 -0.10320317530E+01  0.10633859564E+02  0.10867614299E+02  0.51100000000E-03 0. -1.
        -11    1    3    3    0    0 -0.30635978896E+02  0.14859909962E+02  0.94163322471E+01  0.35327714903E+02  0.51100000000E-03 0.  1.
        -12    1    3    3    0    0 -0.40506311392E+01 -0.13867121628E+01  0.67005434027E+00  0.43335385158E+01  0.00000000000E+00 0.  1.
</event>
<event>
 7    1  0.5946946E-013  0.5052885E+02  0.7816164E-02  0.1300439E+00
        -11   -1    0    0    0    0  0.00000000000E+00  0.00000000000E+00  0.45593999997E+02  0.45594000000E+02  0.51100000000E-03 0.  1.
         11   -1    0    0    0    0 -0.00000000000E+00 -0.00000000000E+00 -0.45593999997E+02  0.45594000000E+02  0.51100000000E-03 0. -1.
    9900012    2    1    2    0    0  0.44053250353E+01  0.39478455079E+02  0.86724292627E+01  0.50528851787E+02  0.29999975491E+02 0.  0.
         12    1    1    2    0    0 -0.44053250353E+01 -0.39478455079E+02 -0.86724292627E+01  0.40659148213E+02  0.00000000000E+00 0. -1.
         11    1    3    3    0    0 -0.40075453404E+01  0.25781919250E+02  0.12257976835E+02  0.28827517691E+02  0.51100000000E-03 0. -1.
        -11    1    3    3    0    0  0.74195965676E+01 -0.10252210587E+00 -0.24745308783E+01  0.78220347312E+01  0.51100000000E-03 0.  1.
        -12    1    3    3    0    0  0.99327380813E+00  0.13799057935E+02 -0.11110166939E+01  0.13879299364E+02  0.00000000000E+00 0.  1.
</event>
<event>
 7    1  0.5946946E-013  0.5052886E+02  0.7816164E-02  0.1300439E+00
        -11   -1    0    0    0    0  0.00000000000E+00  0.00000000000E+00  0.45593999997E+02  0.45594000000E+02  0.51100000000E-03 0.  1.
         11   -1    0    0    0    0 -0.00000000000E+00 -0.00000000000E+00 -0.45593999997E+02  0.45594000000E+02  0.51100000000E-03 0. -1.
    9900012    2    1    2    0    0  0.24815049900E+02 -0.25531293743E+02  0.19634965771E+02  0.50528861512E+02  0.30000005052E+02 0.  0.
         12    1    1    2    0    0 -0.24815049900E+02  0.25531293743E+02 -0.19634965771E+02  0.40659138488E+02  0.00000000000E+00 0. -1.
         11    1    3    3    0    0  0.14304303951E+02 -0.12800476346E+02  0.35966143651E-01  0.19195483844E+02  0.51100000000E-03 0. -1.
        -11    1    3    3    0    0  0.81200042031E+01 -0.11415385064E+02  0.23026066399E+02  0.26952647708E+02  0.51100000000E-03 0.  1.
         12    1    3    3    0    0  0.23907417462E+01 -0.13154323332E+01 -0.34270667712E+01  0.43807299591E+01  0.00000000000E+00 0. -1.
</event>
<event>
 7    1  0.5946946E-013  0.5052885E+02  0.7816164E-02  0.1300439E+00
        -11   -1    0    0    0    0  0.00000000000E+00  0.00000000000E+00  0.45593999997E+02  0.45594000000E+02  0.51100000000E-03 0.  1.
         11   -1    0    0    0    0 -0.00000000000E+00 -0.00000000000E+00 -0.45593999997E+02  0.45594000000E+02  0.51100000000E-03 0. -1.
    9900012    2    1    2    0    0  0.14023360329E+02  0.10701078948E+02  0.36633295991E+02  0.50528854648E+02  0.29999984187E+02 0.  0.
         12    1    1    2    0    0 -0.14023360329E+02 -0.10701078948E+02 -0.36633295991E+02  0.40659145352E+02  0.00000000000E+00 0. -1.
         11    1    3    3    0    0  0.18569911392E+01 -0.93453546900E+01  0.99937212667E+01  0.13807915679E+02  0.51100000000E-03 0. -1.
        -11    1    3    3    0    0 -0.11137232809E+00  0.82385481504E+01  0.86475536500E+01  0.11944298381E+02  0.51100000000E-03 0.  1.
         12    1    3    3    0    0  0.12277741518E+02  0.11807885488E+02  0.17992021075E+02  0.24776640588E+02  0.00000000000E+00 0. -1.
</event>
<event>
 7    1  0.5946946E-013  0.5052884E+02  0.7816164E-02  0.1300439E+00
        -11   -1    0    0    0    0  0.00000000000E+00  0.00000000000E+00  0.45593999997E+02  0.45594000000E+02  0.51100000000E-03 0.  1.
         11   -1    0    0    0    0 -0.00000000000E+00 -0.00000000000E+00 -0.45593999997E+02  0.45594000000E+02  0.51100000000E-03 0. -1.
    9900012    2    1    2    0    0 -0.36955341799E+02 -0.78497619050E+01  0.15028341915E+02  0.50528842235E+02  0.29999946456E+02 0.  0.
         12    1    1    2    0    0  0.36955341799E+02  0.78497619050E+01 -0.15028341915E+02  0.40659157765E+02  0.00000000000E+00 0. -1.
         11    1    3    3    0    0 -0.10716857307E+02  0.95657308267E+01  0.48342398211E+01  0.15156652391E+02  0.51100000000E-03 0. -1.
        -11    1    3    3    0    0 -0.17234076698E+02 -0.14560903483E+02  0.16279134263E+01  0.22620420249E+02  0.51100000000E-03 0.  1.
         12    1    3    3    0    0 -0.90044077944E+01 -0.28545892492E+01  0.85661886674E+01  0.12751769595E+02  0.00000000000E+00 0. -1.
</event>
<event>
 7    1  0.5946946E-013  0.5052886E+02  0.7816164E-02  0.1300439E+00
        -11   -1    0    0    0    0  0.00000000000E+00  0.00000000000E+00  0.45593999997E+02  0.45594000000E+02  0.51100000000E-03 0. -1.
         11   -1    0    0    0    0 -0.00000000000E+00 -0.00000000000E+00 -0.45593999997E+02  0.45594000000E+02  0.51100000000E-03 0.  1.
    9900012    2    1    2    0    0  0.35885641841E+02  0.12976363271E+02 -0.14035678733E+02  0.50528861155E+02  0.30000003967E+02 0.  0.
         12    1    1    2    0    0 -0.35885641841E+02 -0.12976363271E+02  0.14035678733E+02  0.40659138845E+02  0.00000000000E+00 0. -1.
         11    1    3    3    0    0  0.54670851408E+01 -0.39429115006E+01  0.51565766101E+01  0.84868046776E+01  0.51100000000E-03 0. -1.
        -11    1    3    3    0    0  0.28550983851E+02  0.11178333642E+02 -0.12730895075E+02  0.33199239623E+02  0.51100000000E-03 0.  1.
         12    1    3    3    0    0  0.18675728494E+01  0.57409411298E+01 -0.64613602680E+01  0.88428168542E+01  0.00000000000E+00 0. -1.
</event>
<event>
 7    1  0.5946946E-013  0.5052886E+02  0.7816164E-02  0.1300439E+00
        -11   -1    0    0    0    0  0.00000000000E+00  0.00000000000E+00  0.45593999997E+02  0.45594000000E+02  0.51100000000E-03 0. -1.
         11   -1    0    0    0    0 -0.00000000000E+00 -0.00000000000E+00 -0.45593999997E+02  0.45594000000E+02  0.51100000000E-03 0.  1.
    9900012    2    1    2    0    0 -0.28691593747E+02  0.12147632539E+02 -0.26122657383E+02  0.50528858878E+02  0.29999997047E+02 0.  0.
         12    1    1    2    0    0  0.28691593747E+02 -0.12147632539E+02  0.26122657383E+02  0.40659141122E+02  0.00000000000E+00 0. -1.
         11    1    3    3    0    0 -0.22718044162E+01 -0.30896191566E+01 -0.13292518921E+02  0.13834663038E+02  0.51100000000E-03 0. -1.
        -11    1    3    3    0    0 -0.27454656909E+02  0.10858285850E+02 -0.12838679444E+02  0.32194599667E+02  0.51100000000E-03 0.  1.
         12    1    3    3    0    0  0.10348675785E+01  0.43789658450E+01  0.85409825525E-02  0.44995961736E+01  0.00000000000E+00 0. -1.
</event>
<event>
 7    1  0.5946946E-013  0.5052889E+02  0.7816164E-02  0.1300439E+00
        -11   -1    0    0    0    0  0.00000000000E+00  0.00000000000E+00  0.45593999997E+02  0.45594000000E+02  0.51100000000E-03 0.  1.
         11   -1    0    0    0    0 -0.00000000000E+00 -0.00000000000E+00 -0.45593999997E+02  0.45594000000E+02  0.51100000000E-03 0. -1.
    9900012    2    1    2    0    0  0.25690338677E+02 -0.58153074207E+01  0.30973408417E+02  0.50528888712E+02  0.30000087730E+02 0.  0.
         12    1    1    2    0    0 -0.25690338677E+02  0.58153074207E+01 -0.30973408417E+02  0.40659111288E+02  0.00000000000E+00 0. -1.
         11    1    3    3    0    0  0.20310892929E+01 -0.13388310554E+02  0.16020932276E+02  0.20977188907E+02  0.51100000000E-03 0. -1.
        -11    1    3    3    0    0  0.12719679126E+02  0.59610610557E+01  0.10879986130E+02  0.17767908837E+02  0.51100000000E-03 0.  1.
         12    1    3    3    0    0  0.10939570258E+02  0.16119420777E+01  0.40724900110E+01  0.11783790968E+02  0.00000000000E+00 0. -1.
</event>
<event>
 7    1  0.5946946E-013  0.5052886E+02  0.7816164E-02  0.1300439E+00
        -11   -1    0    0    0    0  0.00000000000E+00  0.00000000000E+00  0.45593999997E+02  0.45594000000E+02  0.51100000000E-03 0.  1.
         11   -1    0    0    0    0 -0.00000000000E+00 -0.00000000000E+00 -0.45593999997E+02  0.45594000000E+02  0.51100000000E-03 0. -1.
    9900012    2    1    2    0    0 -0.26674036811E+02  0.19574922206E+02  0.23632255415E+02  0.50528864309E+02  0.30000013553E+02 0.  0.
         12    1    1    2    0    0  0.26674036811E+02 -0.19574922206E+02 -0.23632255415E+02  0.40659135691E+02  0.00000000000E+00 0. -1.
         11    1    3    3    0    0  0.37269254353E+00 -0.28957237205E+01 -0.10531037715E+01  0.31037305637E+01  0.51100000000E-03 0. -1.
        -11    1    3    3    0    0 -0.23408649408E+02  0.10447866640E+02  0.86474988420E+01  0.27053687751E+02  0.51100000000E-03 0.  1.
        -12    1    3    3    0    0 -0.36380799467E+01  0.12022779286E+02  0.16037860344E+02  0.20371445994E+02  0.00000000000E+00 0.  1.
</event>
<event>
 7    1  0.5946946E-013  0.5052887E+02  0.7816164E-02  0.1300439E+00
        -11   -1    0    0    0    0  0.00000000000E+00  0.00000000000E+00  0.45593999997E+02  0.45594000000E+02  0.51100000000E-03 0.  1.
         11   -1    0    0    0    0 -0.00000000000E+00 -0.00000000000E+00 -0.45593999997E+02  0.45594000000E+02  0.51100000000E-03 0. -1.
    9900012    2    1    2    0    0 -0.38613403963E+02  0.30851222362E+01  0.12355232296E+02  0.50528871751E+02  0.30000036176E+02 0.  0.
         12    1    1    2    0    0  0.38613403963E+02 -0.30851222362E+01 -0.12355232296E+02  0.40659128249E+02  0.00000000000E+00 0. -1.
         11    1    3    3    0    0 -0.20696133222E+02 -0.48522606506E+01 -0.42974651267E+01  0.21687382750E+02  0.51100000000E-03 0. -1.
        -11    1    3    3    0    0 -0.14595914605E+02  0.35888841444E+01  0.17751747581E+02  0.23260381661E+02  0.51100000000E-03 0.  1.
         12    1    3    3    0    0 -0.33213561354E+01  0.43484987424E+01 -0.10990501582E+01  0.55811073400E+01  0.00000000000E+00 0. -1.
</event>
<event>
 7    1  0.5946946E-013  0.5052886E+02  0.7816164E-02  0.1300439E+00
        -11   -1    0    0    0    0  0.00000000000E+00  0.00000000000E+00  0.45593999997E+02  0.45594000000E+02  0.51100000000E-03 0.  1.
         11   -1    0    0    0    0 -0.00000000000E+00 -0.00000000000E+00 -0.45593999997E+02  0.45594000000E+02  0.51100000000E-03 0. -1.
    9900012    2    1    2    0    0  0.24006970920E+01 -0.11735753359E+02  0.38854525122E+02  0.50528863562E+02  0.30000011282E+02 0.  0.
         12    1    1    2    0    0 -0.24006970920E+01  0.11735753359E+02 -0.38854525122E+02  0.40659136438E+02  0.00000000000E+00 0. -1.
         11    1    3    3    0    0 -0.28268951721E+01  0.89778982534E+01  0.74460666320E+01  0.12001579142E+02  0.51100000000E-03 0. -1.
        -11    1    3    3    0    0  0.58724707432E+01 -0.10605989064E+02  0.15682899152E+02  0.19822367234E+02  0.51100000000E-03 0.  1.
         12    1    3    3    0    0 -0.64487847903E+00 -0.10107662548E+02  0.15725559338E+02  0.18704917186E+02  0.00000000000E+00 0. -1.
</event>
<event>
 7    1  0.5946946E-013  0.5052887E+02  0.7816164E-02  0.1300439E+00
        -11   -1    0    0    0    0  0.00000000000E+00  0.00000000000E+00  0.45593999997E+02  0.45594000000E+02  0.51100000000E-03 0. -1.
         11   -1    0    0    0    0 -0.00000000000E+00 -0.00000000000E+00 -0.45593999997E+02  0.45594000000E+02  0.51100000000E-03 0.  1.
    9900012    2    1    2    0    0  0.16965224491E+02 -0.14247850146E+02 -0.34093180545E+02  0.50528867748E+02  0.30000024008E+02 0.  0.
         12    1    1    2    0    0 -0.16965224491E+02  0.14247850146E+02  0.34093180545E+02  0.40659132252E+02  0.00000000000E+00 0. -1.
         11    1    3    3    0    0  0.18884401460E+01 -0.15461335164E+02 -0.39808216121E+01  0.16076878808E+02  0.51100000000E-03 0. -1.
        -11    1    3    3    0    0  0.52851323930E+01  0.26203257606E+01 -0.61193187503E+01  0.84996937434E+01  0.51100000000E-03 0.  1.
         12    1    3    3    0    0  0.97916519522E+01 -0.14068407428E+01 -0.23993040182E+02  0.25952295197E+02  0.00000000000E+00 0. -1.
</event>
<event>
 7    1  0.5946946E-013  0.5052885E+02  0.7816164E-02  0.1300439E+00
        -11   -1    0    0    0    0  0.00000000000E+00  0.00000000000E+00  0.45593999997E+02  0.45594000000E+02  0.51100000000E-03 0.  1.
         11   -1    0    0    0    0 -0.00000000000E+00 -0.00000000000E+00 -0.45593999997E+02  0.45594000000E+02  0.51100000000E-03 0. -1.
    9900012    2    1    2    0    0 -0.95478511176E+00  0.17049613569E+02  0.36899396902E+02  0.50528850609E+02  0.29999971913E+02 0.  0.
         12    1    1    2    0    0  0.95478511176E+00 -0.17049613569E+02 -0.36899396902E+02  0.40659149391E+02  0.00000000000E+00 0. -1.
         11    1    3    3    0    0 -0.76677846698E+00  0.22743697843E+00 -0.39146054346E+01  0.39954740353E+01  0.51100000000E-03 0. -1.
        -11    1    3    3    0    0  0.23780001953E+01  0.14374830963E+01  0.21635362333E+02  0.21813072827E+02  0.51100000000E-03 0.  1.
         12    1    3    3    0    0 -0.25660068401E+01  0.15384693494E+02  0.19178640003E+02  0.24720303748E+02  0.00000000000E+00 0. -1.
</event>
<event>
 7    1  0.5946946E-013  0.5052886E+02  0.7816164E-02  0.1300439E+00
        -11   -1    0    0    0    0  0.00000000000E+00  0.00000000000E+00  0.45593999997E+02  0.45594000000E+02  0.51100000000E-03 0.  1.
         11   -1    0    0    0    0 -0.00000000000E+00 -0.00000000000E+00 -0.45593999997E+02  0.45594000000E+02  0.51100000000E-03 0. -1.
    9900012    2    1    2    0    0 -0.27524152775E+02 -0.19134094090E+02  0.23010289414E+02  0.50528856360E+02  0.29999989390E+02 0.  0.
         12    1    1    2    0    0  0.27524152775E+02  0.19134094090E+02 -0.23010289414E+02  0.40659143640E+02  0.00000000000E+00 0. -1.
         11    1    3    3    0    0 -0.13235849629E+02 -0.16369874759E+02  0.18108304837E+02  0.27768169175E+02  0.51100000000E-03 0.  1.
        -11    1    3    3    0    0 -0.14179576814E+02  0.11359541230E+01 -0.24529316575E+01  0.14434945943E+02  0.51100000000E-03 0. -1.
         12    1    3    3    0    0 -0.10872633183E+00 -0.39001734543E+01  0.73549162347E+01  0.83257412408E+01  0.00000000000E+00 0. -1.
</event>
<event>
 7    1  0.5946946E-013  0.5052888E+02  0.7816164E-02  0.1300439E+00
        -11   -1    0    0    0    0  0.00000000000E+00  0.00000000000E+00  0.45593999997E+02  0.45594000000E+02  0.51100000000E-03 0.  1.
         11   -1    0    0    0    0 -0.00000000000E+00 -0.00000000000E+00 -0.45593999997E+02  0.45594000000E+02  0.51100000000E-03 0. -1.
    9900012    2    1    2    0    0 -0.14130361318E+02  0.37687513832E+02  0.57574756967E+01  0.50528876347E+02  0.30000050145E+02 0.  0.
         12    1    1    2    0    0  0.14130361318E+02 -0.37687513832E+02 -0.57574756967E+01  0.40659123653E+02  0.00000000000E+00 0. -1.
         11    1    3    3    0    0  0.50769499689E+01  0.33847703778E+01 -0.59813705331E+01  0.85445236972E+01  0.51100000000E-03 0. -1.
        -11    1    3    3    0    0 -0.15039668714E+01  0.65244206444E+01  0.50142212967E+01  0.83649504821E+01  0.51100000000E-03 0.  1.
         12    1    3    3    0    0 -0.17703344416E+02  0.27778322810E+02  0.67246249332E+01  0.33619402168E+02  0.00000000000E+00 0. -1.
</event>
<event>
 7    1  0.5946946E-013  0.5052887E+02  0.7816164E-02  0.1300439E+00
        -11   -1    0    0    0    0  0.00000000000E+00  0.00000000000E+00  0.45593999997E+02  0.45594000000E+02  0.51100000000E-03 0.  1.
         11   -1    0    0    0    0 -0.00000000000E+00 -0.00000000000E+00 -0.45593999997E+02  0.45594000000E+02  0.51100000000E-03 0. -1.
    9900012    2    1    2    0    0 -0.49940718641E+00  0.28533095839E+02  0.28961661310E+02  0.50528870748E+02  0.30000033127E+02 0.  0.
         12    1    1    2    0    0  0.49940718641E+00 -0.28533095839E+02 -0.28961661310E+02  0.40659129252E+02  0.00000000000E+00 0. -1.
         11    1    3    3    0    0 -0.81745679711E-01  0.25070702501E+00  0.12162415218E+02  0.12165273551E+02  0.51100000000E-03 0.  1.
        -11    1    3    3    0    0 -0.20578262182E+01  0.14647035061E+02 -0.21652540144E+01  0.14948532036E+02  0.51100000000E-03 0. -1.
        -12    1    3    3    0    0  0.16401647115E+01  0.13635353752E+02  0.18964500106E+02  0.23415065162E+02  0.00000000000E+00 0.  1.
</event>
<event>
 7    1  0.5946946E-013  0.5052886E+02  0.7816164E-02  0.1300439E+00
        -11   -1    0    0    0    0  0.00000000000E+00  0.00000000000E+00  0.45593999997E+02  0.45594000000E+02  0.51100000000E-03 0.  1.
         11   -1    0    0    0    0 -0.00000000000E+00 -0.00000000000E+00 -0.45593999997E+02  0.45594000000E+02  0.51100000000E-03 0. -1.
    9900012    2    1    2    0    0  0.26814349420E+02  0.25743222456E+02  0.16475528360E+02  0.50528857461E+02  0.29999992739E+02 0.  0.
         12    1    1    2    0    0 -0.26814349420E+02 -0.25743222456E+02 -0.16475528360E+02  0.40659142539E+02  0.00000000000E+00 0. -1.
         11    1    3    3    0    0  0.48446928351E+01 -0.58793609582E+01 -0.28633273744E+00  0.76236422162E+01  0.51100000000E-03 0. -1.
        -11    1    3    3    0    0  0.61205090535E+01  0.42347499963E+01  0.57344686093E+01  0.93956303193E+01  0.51100000000E-03 0.  1.
         12    1    3    3    0    0  0.15849147531E+02  0.27387833418E+02  0.11027392488E+02  0.33509584926E+02  0.00000000000E+00 0. -1.
</event>
<event>
 7    1  0.5946946E-013  0.5052886E+02  0.7816164E-02  0.1300439E+00
        -11   -1    0    0    0    0  0.00000000000E+00  0.00000000000E+00  0.45593999997E+02  0.45594000000E+02  0.51100000000E-03 0.  1.
         11   -1    0    0    0    0 -0.00000000000E+00 -0.00000000000E+00 -0.45593999997E+02  0.45594000000E+02  0.51100000000E-03 0. -1.
    9900012    2    1    2    0    0 -0.71795235934E+01 -0.39550349592E+02 -0.61147285597E+01  0.50528860594E+02  0.30000002262E+02 0.  0.
         12    1    1    2    0    0  0.71795235934E+01  0.39550349592E+02  0.61147285597E+01  0.40659139406E+02  0.00000000000E+00 0. -1.
         11    1    3    3    0    0  0.37630749524E+01 -0.17726753539E+02 -0.14295672499E+02  0.23081697870E+02  0.51100000000E-03 0. -1.
        -11    1    3    3    0    0 -0.30704782702E+01 -0.14337854669E+02  0.77276290358E+01  0.16574624101E+02  0.51100000000E-03 0.  1.
         12    1    3    3    0    0 -0.78721202756E+01 -0.74857413837E+01  0.45331490316E+00  0.10872538623E+02  0.00000000000E+00 0. -1.
</event>
<event>
 7    1  0.5946946E-013  0.5052887E+02  0.7816164E-02  0.1300439E+00
        -11   -1    0    0    0    0  0.00000000000E+00  0.00000000000E+00  0.45593999997E+02  0.45594000000E+02  0.51100000000E-03 0.  1.
         11   -1    0    0    0    0 -0.00000000000E+00 -0.00000000000E+00 -0.45593999997E+02  0.45594000000E+02  0.51100000000E-03 0. -1.
    9900012    2    1    2    0    0  0.21166033010E+02 -0.19682566309E+01  0.34659634479E+02  0.50528865113E+02  0.30000015998E+02 0.  0.
         12    1    1    2    0    0 -0.21166033010E+02  0.19682566309E+01 -0.34659634479E+02  0.40659134887E+02  0.00000000000E+00 0. -1.
         11    1    3    3    0    0  0.28756934127E+01 -0.76971331688E+01  0.13754182202E+02  0.16021641611E+02  0.51100000000E-03 0. -1.
        -11    1    3    3    0    0  0.16440005441E+02  0.48534430809E+01  0.41625168077E+01  0.17639621172E+02  0.51100000000E-03 0.  1.
        -12    1    3    3    0    0  0.18503341559E+01  0.87543345698E+00  0.16742935469E+02  0.16867602330E+02  0.00000000000E+00 0.  1.
</event>
<event>
 7    1  0.5946946E-013  0.5052886E+02  0.7816164E-02  0.1300439E+00
        -11   -1    0    0    0    0  0.00000000000E+00  0.00000000000E+00  0.45593999997E+02  0.45594000000E+02  0.51100000000E-03 0.  1.
         11   -1    0    0    0    0 -0.00000000000E+00 -0.00000000000E+00 -0.45593999997E+02  0.45594000000E+02  0.51100000000E-03 0. -1.
    9900012    2    1    2    0    0 -0.27428014504E+02 -0.38673303286E+01  0.29764299907E+02  0.50528858685E+02  0.29999996459E+02 0.  0.
         12    1    1    2    0    0  0.27428014504E+02  0.38673303286E+01 -0.29764299907E+02  0.40659141315E+02  0.00000000000E+00 0. -1.
         11    1    3    3    0    0 -0.32692291155E+01  0.36991800125E+01  0.95346839072E+01  0.10736945061E+02  0.51100000000E-03 0. -1.
        -11    1    3    3    0    0 -0.49333910309E+01 -0.13074199786E+02  0.57947790864E+01  0.15127872026E+02  0.51100000000E-03 0.  1.
        -12    1    3    3    0    0 -0.19225394358E+02  0.55076894451E+01  0.14434836913E+02  0.24664041598E+02  0.00000000000E+00 0.  1.
</event>
<event>
 7    1  0.5946946E-013  0.5052886E+02  0.7816164E-02  0.1300439E+00
        -11   -1    0    0    0    0  0.00000000000E+00  0.00000000000E+00  0.45593999997E+02  0.45594000000E+02  0.51100000000E-03 0. -1.
         11   -1    0    0    0    0 -0.00000000000E+00 -0.00000000000E+00 -0.45593999997E+02  0.45594000000E+02  0.51100000000E-03 0.  1.
    9900012    2    1    2    0    0 -0.51894562104E+01  0.37389834580E+02 -0.15107466078E+02  0.50528859368E+02  0.29999998534E+02 0.  0.
         12    1    1    2    0    0  0.51894562104E+01 -0.37389834580E+02  0.15107466078E+02  0.40659140632E+02  0.00000000000E+00 0. -1.
         11    1    3    3    0    0 -0.13874283718E+01 -0.91346588727E+00 -0.84308658593E+00  0.18628399466E+01  0.51100000000E-03 0. -1.
        -11    1    3    3    0    0  0.32194388703E+01  0.30692576822E+02 -0.20052155717E+02  0.36803369517E+02  0.51100000000E-03 0.  1.
        -12    1    3    3    0    0 -0.70214667088E+01  0.76107236444E+01  0.57877762244E+01  0.11862649905E+02  0.00000000000E+00 0.  1.
</event>
<event>
 7    1  0.5946946E-013  0.5052887E+02  0.7816164E-02  0.1300439E+00
        -11   -1    0    0    0    0  0.00000000000E+00  0.00000000000E+00  0.45593999997E+02  0.45594000000E+02  0.51100000000E-03 0.  1.
         11   -1    0    0    0    0 -0.00000000000E+00 -0.00000000000E+00 -0.45593999997E+02  0.45594000000E+02  0.51100000000E-03 0. -1.
    9900012    2    1    2    0    0 -0.22114944398E+02  0.10918621362E+02  0.32324567683E+02  0.50528871454E+02  0.30000035273E+02 0.  0.
         12    1    1    2    0    0  0.22114944398E+02 -0.10918621362E+02 -0.32324567683E+02  0.40659128546E+02  0.00000000000E+00 0. -1.
         11    1    3    3    0    0  0.13157772434E+01  0.85318496710E+01 -0.16722860940E+01  0.87931945051E+01  0.51100000000E-03 0. -1.
        -11    1    3    3    0    0 -0.37833585432E+01 -0.16585965980E+01  0.64394297998E+01  0.76505555974E+01  0.51100000000E-03 0.  1.
         12    1    3    3    0    0 -0.19647363098E+02  0.40453682894E+01  0.27557423978E+02  0.34085121352E+02  0.00000000000E+00 0. -1.
</event>
<event>
 7    1  0.5946946E-013  0.5052885E+02  0.7816164E-02  0.1300439E+00
        -11   -1    0    0    0    0  0.00000000000E+00  0.00000000000E+00  0.45593999997E+02  0.45594000000E+02  0.51100000000E-03 0.  1.
         11   -1    0    0    0    0 -0.00000000000E+00 -0.00000000000E+00 -0.45593999997E+02  0.45594000000E+02  0.51100000000E-03 0. -1.
    9900012    2    1    2    0    0  0.60319099292E+01 -0.38506081134E+02  0.11578605737E+02  0.50528851798E+02  0.29999975526E+02 0.  0.
         12    1    1    2    0    0 -0.60319099292E+01  0.38506081134E+02 -0.11578605737E+02  0.40659148202E+02  0.00000000000E+00 0. -1.
         11    1    3    3    0    0 -0.42606089511E+01  0.25863997498E+01  0.39123276036E+00  0.49995315415E+01  0.51100000000E-03 0. -1.
        -11    1    3    3    0    0  0.61644609208E+01 -0.33131001780E+02  0.13443039369E+02  0.36281939930E+02  0.51100000000E-03 0.  1.
         12    1    3    3    0    0  0.41280579596E+01 -0.79614791035E+01 -0.22556663918E+01  0.92473803266E+01  0.00000000000E+00 0. -1.
</event>
<event>
 7    1  0.5946946E-013  0.5052886E+02  0.7816164E-02  0.1300439E+00
        -11   -1    0    0    0    0  0.00000000000E+00  0.00000000000E+00  0.45593999997E+02  0.45594000000E+02  0.51100000000E-03 0.  1.
         11   -1    0    0    0    0 -0.00000000000E+00 -0.00000000000E+00 -0.45593999997E+02  0.45594000000E+02  0.51100000000E-03 0. -1.
    9900012    2    1    2    0    0  0.21880758258E+02 -0.33539734797E+02  0.70344853405E+01  0.50528863558E+02  0.30000011271E+02 0.  0.
         12    1    1    2    0    0 -0.21880758258E+02  0.33539734797E+02 -0.70344853405E+01  0.40659136442E+02  0.00000000000E+00 0. -1.
         11    1    3    3    0    0  0.95385740777E+01 -0.20763814372E+02  0.60586984703E+01  0.23639547587E+02  0.51100000000E-03 0.  1.
        -11    1    3    3    0    0  0.18649168626E+01  0.54985726118E+01  0.14486564092E+00  0.58080290965E+01  0.51100000000E-03 0. -1.
         12    1    3    3    0    0  0.10477267318E+02 -0.18274493036E+02  0.83092122929E+00  0.21081286874E+02  0.00000000000E+00 0. -1.
</event>
<event>
 7    1  0.5946946E-013  0.5052886E+02  0.7816164E-02  0.1300439E+00
        -11   -1    0    0    0    0  0.00000000000E+00  0.00000000000E+00  0.45593999997E+02  0.45594000000E+02  0.51100000000E-03 0.  1.
         11   -1    0    0    0    0 -0.00000000000E+00 -0.00000000000E+00 -0.45593999997E+02  0.45594000000E+02  0.51100000000E-03 0. -1.
    9900012    2    1    2    0    0 -0.26500350289E+02 -0.61855579581E+01  0.30209867353E+02  0.50528858615E+02  0.29999996246E+02 0.  0.
         12    1    1    2    0    0  0.26500350289E+02  0.61855579581E+01 -0.30209867353E+02  0.40659141385E+02  0.00000000000E+00 0. -1.
         11    1    3    3    0    0 -0.95483732426E+00 -0.12938585429E+02  0.92635340739E+01  0.15941510939E+02  0.51100000000E-03 0.  1.
        -11    1    3    3    0    0 -0.15498151811E+02  0.75588688244E+01  0.11167375691E+02  0.20543599674E+02  0.51100000000E-03 0. -1.
         12    1    3    3    0    0 -0.10047361154E+02 -0.80584135319E+00  0.97789575879E+01  0.14043748002E+02  0.00000000000E+00 0. -1.
</event>
<event>
 7    1  0.5946946E-013  0.5052886E+02  0.7816164E-02  0.1300439E+00
        -11   -1    0    0    0    0  0.00000000000E+00  0.00000000000E+00  0.45593999997E+02  0.45594000000E+02  0.51100000000E-03 0. -1.
         11   -1    0    0    0    0 -0.00000000000E+00 -0.00000000000E+00 -0.45593999997E+02  0.45594000000E+02  0.51100000000E-03 0.  1.
    9900012    2    1    2    0    0 -0.85683928704E+01  0.21150755352E+02 -0.33651065612E+02  0.50528855578E+02  0.29999987014E+02 0.  0.
         12    1    1    2    0    0  0.85683928704E+01 -0.21150755352E+02  0.33651065612E+02  0.40659144422E+02  0.00000000000E+00 0. -1.
         11    1    3    3    0    0 -0.14184173363E+02  0.11599368458E+02 -0.10543824536E+02  0.21140207159E+02  0.51100000000E-03 0. -1.
        -11    1    3    3    0    0  0.13343215485E+01  0.11548811045E+02 -0.21420738949E+02  0.24372187180E+02  0.51100000000E-03 0.  1.
         12    1    3    3    0    0  0.42814589445E+01 -0.19974241514E+01 -0.16865021270E+01  0.50164612386E+01  0.00000000000E+00 0. -1.
</event>
<event>
 7    1  0.5946946E-013  0.5052885E+02  0.7816164E-02  0.1300439E+00
        -11   -1    0    0    0    0  0.00000000000E+00  0.00000000000E+00  0.45593999997E+02  0.45594000000E+02  0.51100000000E-03 0.  1.
         11   -1    0    0    0    0 -0.00000000000E+00 -0.00000000000E+00 -0.45593999997E+02  0.45594000000E+02  0.51100000000E-03 0. -1.
    9900012    2    1    2    0    0 -0.38232547997E+02 -0.58973077394E+01 -0.12516394813E+02  0.50528854607E+02  0.29999984064E+02 0.  0.
         12    1    1    2    0    0  0.38232547997E+02  0.58973077394E+01  0.12516394813E+02  0.40659145393E+02  0.00000000000E+00 0. -1.
         11    1    3    3    0    0 -0.33691025921E+01 -0.11698960737E+02 -0.23237135593E+00  0.12176638752E+02  0.51100000000E-03 0. -1.
        -11    1    3    3    0    0 -0.28820970192E+02  0.26554093602E+01 -0.12521656899E+02  0.31535557922E+02  0.51100000000E-03 0.  1.
         12    1    3    3    0    0 -0.60424752136E+01  0.31462436370E+01  0.23763344149E+00  0.68166579335E+01  0.00000000000E+00 0. -1.
</event>
<event>
 7    1  0.5946946E-013  0.5052887E+02  0.7816164E-02  0.1300439E+00
        -11   -1    0    0    0    0  0.00000000000E+00  0.00000000000E+00  0.45593999997E+02  0.45594000000E+02  0.51100000000E-03 0. -1.
         11   -1    0    0    0    0 -0.00000000000E+00 -0.00000000000E+00 -0.45593999997E+02  0.45594000000E+02  0.51100000000E-03 0.  1.
    9900012    2    1    2    0    0 -0.12925810580E+02  0.36919005694E+02 -0.11093941721E+02  0.50528866912E+02  0.30000021464E+02 0.  0.
         12    1    1    2    0    0  0.12925810580E+02 -0.36919005694E+02  0.11093941721E+02  0.40659133088E+02  0.00000000000E+00 0. -1.
         11    1    3    3    0    0  0.95331993400E+01  0.11534028434E+02 -0.62458434063E+01  0.16215001132E+02  0.51100000000E-03 0. -1.
        -11    1    3    3    0    0 -0.15310931681E+02  0.17247208754E+02 -0.43617612700E+01  0.23471595608E+02  0.51100000000E-03 0.  1.
         12    1    3    3    0    0 -0.71480782389E+01  0.81377685058E+01 -0.48633704458E+00  0.10842270172E+02  0.00000000000E+00 0. -1.
</event>
<event>
 7    1  0.5946946E-013  0.5052886E+02  0.7816164E-02  0.1300439E+00
        -11   -1    0    0    0    0  0.00000000000E+00  0.00000000000E+00  0.45593999997E+02  0.45594000000E+02  0.51100000000E-03 0.  1.
         11   -1    0    0    0    0 -0.00000000000E+00 -0.00000000000E+00 -0.45593999997E+02  0.45594000000E+02  0.51100000000E-03 0. -1.
    9900012    2    1    2    0    0  0.31584505601E+02  0.19960765105E+01  0.25526465768E+02  0.50528858715E+02  0.29999996549E+02 0.  0.
         12    1    1    2    0    0 -0.31584505601E+02 -0.19960765105E+01 -0.25526465768E+02  0.40659141285E+02  0.00000000000E+00 0. -1.
         11    1    3    3    0    0  0.78277429200E+01 -0.25126259463E+01 -0.50682879013E+01  0.96578667872E+01  0.51100000000E-03 0. -1.
        -11    1    3    3    0    0  0.15395922241E+02  0.84542756606E+01  0.17104093638E+02  0.24516509092E+02  0.51100000000E-03 0.  1.
         12    1    3    3    0    0  0.83608404393E+01 -0.39455732038E+01  0.13490660031E+02  0.16354482836E+02  0.00000000000E+00 0. -1.
</event>
<event>
 7    1  0.5946946E-013  0.5052887E+02  0.7816164E-02  0.1300439E+00
        -11   -1    0    0    0    0  0.00000000000E+00  0.00000000000E+00  0.45593999997E+02  0.45594000000E+02  0.51100000000E-03 0.  1.
         11   -1    0    0    0    0 -0.00000000000E+00 -0.00000000000E+00 -0.45593999997E+02  0.45594000000E+02  0.51100000000E-03 0. -1.
    9900012    2    1    2    0    0  0.29004067819E+02  0.28452375633E+02  0.15464198368E+01  0.50528867649E+02  0.30000023707E+02 0.  0.
         12    1    1    2    0    0 -0.29004067819E+02 -0.28452375633E+02 -0.15464198368E+01  0.40659132351E+02  0.00000000000E+00 0. -1.
         11    1    3    3    0    0  0.49002790721E+00  0.97289482998E+01 -0.23153695557E+01  0.10012666918E+02  0.51100000000E-03 0. -1.
        -11    1    3    3    0    0  0.31660512699E+02  0.17741457603E+02  0.12556592586E+01  0.36314240495E+02  0.51100000000E-03 0.  1.
        -12    1    3    3    0    0 -0.31464727879E+01  0.98196973045E+00  0.26061301339E+01  0.42019602368E+01  0.00000000000E+00 0.  1.
</event>
<event>
 7    1  0.5946946E-013  0.5052886E+02  0.7816164E-02  0.1300439E+00
        -11   -1    0    0    0    0  0.00000000000E+00  0.00000000000E+00  0.45593999997E+02  0.45594000000E+02  0.51100000000E-03 0.  1.
         11   -1    0    0    0    0 -0.00000000000E+00 -0.00000000000E+00 -0.45593999997E+02  0.45594000000E+02  0.51100000000E-03 0. -1.
    9900012    2    1    2    0    0  0.13008918813E+02 -0.68505384241E+01  0.37907828060E+02  0.50528864820E+02  0.30000015106E+02 0.  0.
         12    1    1    2    0    0 -0.13008918813E+02  0.68505384241E+01 -0.37907828060E+02  0.40659135180E+02  0.00000000000E+00 0. -1.
         11    1    3    3    0    0 -0.70770159078E+01  0.32622899524E+01  0.40333158879E+01  0.87746411440E+01  0.51100000000E-03 0. -1.
        -11    1    3    3    0    0  0.63942623174E+01  0.12707953770E+01  0.10691665650E+02  0.12522508779E+02  0.51100000000E-03 0.  1.
         12    1    3    3    0    0  0.13691672404E+02 -0.11383623753E+02  0.23182846522E+02  0.29231714897E+02  0.00000000000E+00 0. -1.
</event>
<event>
 7    1  0.5946946E-013  0.5052886E+02  0.7816164E-02  0.1300439E+00
        -11   -1    0    0    0    0  0.00000000000E+00  0.00000000000E+00  0.45593999997E+02  0.45594000000E+02  0.51100000000E-03 0.  1.
         11   -1    0    0    0    0 -0.00000000000E+00 -0.00000000000E+00 -0.45593999997E+02  0.45594000000E+02  0.51100000000E-03 0. -1.
    9900012    2    1    2    0    0  0.14640705312E+02  0.22121446943E+02  0.30813261983E+02  0.50528858581E+02  0.29999996143E+02 0.  0.
         12    1    1    2    0    0 -0.14640705312E+02 -0.22121446943E+02 -0.30813261983E+02  0.40659141419E+02  0.00000000000E+00 0. -1.
         11    1    3    3    0    0  0.36006277411E+00  0.11617669466E+02  0.72931603724E+01  0.13721883161E+02  0.51100000000E-03 0.  1.
        -11    1    3    3    0    0  0.35457679037E+01 -0.68757859482E+01  0.48360193337E+01  0.91233757837E+01  0.51100000000E-03 0. -1.
        -12    1    3    3    0    0  0.10734874634E+02  0.17379563426E+02  0.18684082277E+02  0.27683599636E+02  0.00000000000E+00 0.  1.
</event>
<event>
 7    1  0.5946946E-013  0.5052878E+02  0.7816164E-02  0.1300439E+00
        -11   -1    0    0    0    0  0.00000000000E+00  0.00000000000E+00  0.45593999997E+02  0.45594000000E+02  0.51100000000E-03 0. -1.
         11   -1    0    0    0    0 -0.00000000000E+00 -0.00000000000E+00 -0.45593999997E+02  0.45594000000E+02  0.51100000000E-03 0.  1.
    9900012    2    1    2    0    0 -0.36043715519E+02 -0.50006685789E+01 -0.18138801865E+02  0.50528779056E+02  0.29999754419E+02 0.  0.
         12    1    1    2    0    0  0.36043715519E+02  0.50006685789E+01  0.18138801865E+02  0.40659220944E+02  0.00000000000E+00 0. -1.
         11    1    3    3    0    0 -0.32460510859E+00  0.82206115887E+01 -0.58434884720E+01  0.10091094150E+02  0.51100000000E-03 0. -1.
        -11    1    3    3    0    0 -0.91543951600E+01 -0.10049604530E+01 -0.18825565855E+01  0.93998359462E+01  0.51100000000E-03 0.  1.
         12    1    3    3    0    0 -0.26564715251E+02 -0.12216319715E+02 -0.10412756807E+02  0.31037848960E+02  0.00000000000E+00 0. -1.
</event>
<event>
 7    1  0.5946946E-013  0.5052883E+02  0.7816164E-02  0.1300439E+00
        -11   -1    0    0    0    0  0.00000000000E+00  0.00000000000E+00  0.45593999997E+02  0.45594000000E+02  0.51100000000E-03 0.  1.
         11   -1    0    0    0    0 -0.00000000000E+00 -0.00000000000E+00 -0.45593999997E+02  0.45594000000E+02  0.51100000000E-03 0. -1.
    9900012    2    1    2    0    0 -0.31597174058E+02 -0.21696526600E+01  0.25496659404E+02  0.50528825859E+02  0.29999896680E+02 0.  0.
         12    1    1    2    0    0  0.31597174058E+02  0.21696526600E+01 -0.25496659404E+02  0.40659174141E+02  0.00000000000E+00 0. -1.
         11    1    3    3    0    0 -0.12983314943E+02  0.39083370267E+00 -0.11864685623E+01  0.13043271284E+02  0.51100000000E-03 0. -1.
        -11    1    3    3    0    0 -0.18576051845E+02  0.39758380898E+01  0.23491934189E+02  0.30211718966E+02  0.51100000000E-03 0.  1.
        -12    1    3    3    0    0 -0.37807270283E-01 -0.65363244524E+01  0.31911937767E+01  0.72738356084E+01  0.00000000000E+00 0.  1.
</event>
<event>
 7    1  0.5946946E-013  0.5052886E+02  0.7816164E-02  0.1300439E+00
        -11   -1    0    0    0    0  0.00000000000E+00  0.00000000000E+00  0.45593999997E+02  0.45594000000E+02  0.51100000000E-03 0. -1.
         11   -1    0    0    0    0 -0.00000000000E+00 -0.00000000000E+00 -0.45593999997E+02  0.45594000000E+02  0.51100000000E-03 0.  1.
    9900012    2    1    2    0    0 -0.36392127375E+02 -0.56266381598E+01 -0.17237155491E+02  0.50528861774E+02  0.30000005849E+02 0.  0.
         12    1    1    2    0    0  0.36392127375E+02  0.56266381598E+01  0.17237155491E+02  0.40659138226E+02  0.00000000000E+00 0. -1.
         11    1    3    3    0    0 -0.11319760226E+02  0.53968446858E+01  0.63844814885E+01  0.14072118116E+02  0.51100000000E-03 0. -1.
        -11    1    3    3    0    0 -0.15388422556E+02 -0.49762533119E+01 -0.15855886802E+02  0.22648968901E+02  0.51100000000E-03 0.  1.
         12    1    3    3    0    0 -0.96839445934E+01 -0.60472295336E+01 -0.77657501777E+01  0.13807774757E+02  0.00000000000E+00 0. -1.
</event>
<event>
 7    1  0.5946946E-013  0.5052886E+02  0.7816164E-02  0.1300439E+00
        -11   -1    0    0    0    0  0.00000000000E+00  0.00000000000E+00  0.45593999997E+02  0.45594000000E+02  0.51100000000E-03 0.  1.
         11   -1    0    0    0    0 -0.00000000000E+00 -0.00000000000E+00 -0.45593999997E+02  0.45594000000E+02  0.51100000000E-03 0. -1.
    9900012    2    1    2    0    0 -0.11343277425E+01  0.45862487009E+01  0.40383723675E+02  0.50528861858E+02  0.30000006104E+02 0.  0.
         12    1    1    2    0    0  0.11343277425E+01 -0.45862487009E+01 -0.40383723675E+02  0.40659138142E+02  0.00000000000E+00 0. -1.
         11    1    3    3    0    0 -0.73692852580E+01  0.10750349270E+02  0.20808359894E+02  0.24553293392E+02  0.51100000000E-03 0. -1.
        -11    1    3    3    0    0  0.34023800086E+01 -0.22772847543E+01  0.20646300566E+02  0.21048323993E+02  0.51100000000E-03 0.  1.
         12    1    3    3    0    0  0.28325775070E+01 -0.38868158146E+01 -0.10709367849E+01  0.49272444740E+01  0.00000000000E+00 0. -1.
</event>
<event>
 7    1  0.5946946E-013  0.5052886E+02  0.7816164E-02  0.1300439E+00
        -11   -1    0    0    0    0  0.00000000000E+00  0.00000000000E+00  0.45593999997E+02  0.45594000000E+02  0.51100000000E-03 0.  1.
         11   -1    0    0    0    0 -0.00000000000E+00 -0.00000000000E+00 -0.45593999997E+02  0.45594000000E+02  0.51100000000E-03 0. -1.
    9900012    2    1    2    0    0  0.25496707209E+01  0.15912450750E+01  0.40547906359E+02  0.50528860907E+02  0.30000003213E+02 0.  0.
         12    1    1    2    0    0 -0.25496707209E+01 -0.15912450750E+01 -0.40547906359E+02  0.40659139093E+02  0.00000000000E+00 0. -1.
         11    1    3    3    0    0 -0.41495583383E+01 -0.13770264529E+01  0.11994011105E+00  0.43737194865E+01  0.51100000000E-03 0. -1.
        -11    1    3    3    0    0  0.51821841666E+01  0.24314742967E+01  0.42859095553E+02  0.43239671274E+02  0.51100000000E-03 0.  1.
        -12    1    3    3    0    0  0.15170448926E+01  0.53679723121E+00 -0.24311293052E+01  0.29154701460E+01  0.00000000000E+00 0.  1.
</event>
<event>
 7    1  0.5946946E-013  0.5052885E+02  0.7816164E-02  0.1300439E+00
        -11   -1    0    0    0    0  0.00000000000E+00  0.00000000000E+00  0.45593999997E+02  0.45594000000E+02  0.51100000000E-03 0. -1.
         11   -1    0    0    0    0 -0.00000000000E+00 -0.00000000000E+00 -0.45593999997E+02  0.45594000000E+02  0.51100000000E-03 0.  1.
    9900012    2    1    2    0    0 -0.23692004122E+02  0.21358586351E+01 -0.32974134018E+02  0.50528850161E+02  0.29999970548E+02 0.  0.
         12    1    1    2    0    0  0.23692004122E+02 -0.21358586351E+01  0.32974134018E+02  0.40659149839E+02  0.00000000000E+00 0. -1.
         11    1    3    3    0    0 -0.21807717465E+02  0.68569976437E+01 -0.17036505510E+02  0.28510304768E+02  0.51100000000E-03 0. -1.
        -11    1    3    3    0    0 -0.10495629338E+01  0.88249212193E+00 -0.16284824058E+02  0.16342456044E+02  0.51100000000E-03 0.  1.
         12    1    3    3    0    0 -0.83472372383E+00 -0.56036311305E+01  0.34719555029E+00  0.56760893485E+01  0.00000000000E+00 0. -1.
</event>
<event>
 7    1  0.5946946E-013  0.5052886E+02  0.7816164E-02  0.1300439E+00
        -11   -1    0    0    0    0  0.00000000000E+00  0.00000000000E+00  0.45593999997E+02  0.45594000000E+02  0.51100000000E-03 0. -1.
         11   -1    0    0    0    0 -0.00000000000E+00 -0.00000000000E+00 -0.45593999997E+02  0.45594000000E+02  0.51100000000E-03 0.  1.
    9900012    2    1    2    0    0 -0.27613716789E+02 -0.29411621901E+02  0.50601354088E+01  0.50528858001E+02  0.29999994379E+02 0.  0.
         12    1    1    2    0    0  0.27613716789E+02  0.29411621901E+02 -0.50601354088E+01  0.40659141999E+02  0.00000000000E+00 0. -1.
         11    1    3    3    0    0 -0.26577084494E+02 -0.10912406281E+02  0.81560483436E+01  0.29865417390E+02  0.51100000000E-03 0. -1.
        -11    1    3    3    0    0 -0.35171193077E+01 -0.15258653985E+02 -0.45899627796E+01  0.16317610372E+02  0.51100000000E-03 0.  1.
         12    1    3    3    0    0  0.24804870124E+01 -0.32405616340E+01  0.14940498448E+01  0.43458302385E+01  0.00000000000E+00 0. -1.
</event>
<event>
 7    1  0.5946946E-013  0.5052885E+02  0.7816164E-02  0.1300439E+00
        -11   -1    0    0    0    0  0.00000000000E+00  0.00000000000E+00  0.45593999997E+02  0.45594000000E+02  0.51100000000E-03 0.  1.
         11   -1    0    0    0    0 -0.00000000000E+00 -0.00000000000E+00 -0.45593999997E+02  0.45594000000E+02  0.51100000000E-03 0. -1.
    9900012    2    1    2    0    0  0.36291709648E+01  0.35844068364E+02  0.18846701715E+02  0.50528852391E+02  0.29999977328E+02 0.  0.
         12    1    1    2    0    0 -0.36291709648E+01 -0.35844068364E+02 -0.18846701715E+02  0.40659147609E+02  0.00000000000E+00 0. -1.
         11    1    3    3    0    0 -0.29802379164E+00 -0.46050138352E+01  0.56823463979E+01  0.73201114370E+01  0.51100000000E-03 0. -1.
        -11    1    3    3    0    0  0.17982491300E+01  0.25370831317E+02  0.49677147316E+01  0.25915072285E+02  0.51100000000E-03 0.  1.
         12    1    3    3    0    0  0.21289456264E+01  0.15078250882E+02  0.81966405856E+01  0.17293668669E+02  0.00000000000E+00 0. -1.
</event>
<event>
 7    1  0.5946946E-013  0.5052888E+02  0.7816164E-02  0.1300439E+00
        -11   -1    0    0    0    0  0.00000000000E+00  0.00000000000E+00  0.45593999997E+02  0.45594000000E+02  0.51100000000E-03 0.  1.
         11   -1    0    0    0    0 -0.00000000000E+00 -0.00000000000E+00 -0.45593999997E+02  0.45594000000E+02  0.51100000000E-03 0. -1.
    9900012    2    1    2    0    0  0.31743393685E+02 -0.25232494605E+02 -0.29736131935E+01  0.50528877997E+02  0.30000055159E+02 0.  0.
         12    1    1    2    0    0 -0.31743393685E+02  0.25232494605E+02  0.29736131935E+01  0.40659122003E+02  0.00000000000E+00 0. -1.
         11    1    3    3    0    0  0.14344553220E+02 -0.11666814261E+02 -0.47731514286E+01  0.19096170739E+02  0.51100000000E-03 0. -1.
        -11    1    3    3    0    0  0.52730494624E+01 -0.11291602961E+02  0.10533011685E+02  0.16317159173E+02  0.51100000000E-03 0.  1.
         12    1    3    3    0    0  0.12125791002E+02 -0.22740773838E+01 -0.87334734503E+01  0.15115548084E+02  0.00000000000E+00 0. -1.
</event>
<event>
 7    1  0.5946946E-013  0.5052890E+02  0.7816164E-02  0.1300439E+00
        -11   -1    0    0    0    0  0.00000000000E+00  0.00000000000E+00  0.45593999997E+02  0.45594000000E+02  0.51100000000E-03 0. -1.
         11   -1    0    0    0    0 -0.00000000000E+00 -0.00000000000E+00 -0.45593999997E+02  0.45594000000E+02  0.51100000000E-03 0.  1.
    9900012    2    1    2    0    0  0.30806466843E+01  0.30386722896E+02 -0.26838753962E+02  0.50528904749E+02  0.30000136475E+02 0.  0.
         12    1    1    2    0    0 -0.30806466843E+01 -0.30386722896E+02  0.26838753962E+02  0.40659095251E+02  0.00000000000E+00 0. -1.
         11    1    3    3    0    0 -0.52634083547E+01  0.13819914672E+02 -0.25705291531E+02  0.29655615354E+02  0.51100000000E-03 0.  1.
        -11    1    3    3    0    0  0.90287582060E+01  0.11010466609E+02 -0.37041681022E+01  0.14712909681E+02  0.51100000000E-03 0. -1.
        -12    1    3    3    0    0 -0.68470316695E+00  0.55563416161E+01  0.25707056711E+01  0.61603797146E+01  0.00000000000E+00 0.  1.
</event>
<event>
 7    1  0.5946946E-013  0.5052887E+02  0.7816164E-02  0.1300439E+00
        -11   -1    0    0    0    0  0.00000000000E+00  0.00000000000E+00  0.45593999997E+02  0.45594000000E+02  0.51100000000E-03 0.  1.
         11   -1    0    0    0    0 -0.00000000000E+00 -0.00000000000E+00 -0.45593999997E+02  0.45594000000E+02  0.51100000000E-03 0. -1.
    9900012    2    1    2    0    0 -0.43039142940E+01  0.63335609877E+01  0.39931528236E+02  0.50528872853E+02  0.30000039525E+02 0.  0.
         12    1    1    2    0    0  0.43039142940E+01 -0.63335609877E+01 -0.39931528236E+02  0.40659127147E+02  0.00000000000E+00 0. -1.
         11    1    3    3    0    0  0.64025825509E+01  0.63866997770E+00  0.78909764733E+01  0.10181771586E+02  0.51100000000E-03 0. -1.
        -11    1    3    3    0    0 -0.15290883960E+02  0.98898571300E+01  0.25388331729E+02  0.31244004138E+02  0.51100000000E-03 0.  1.
        -12    1    3    3    0    0  0.45843871151E+01 -0.41949661200E+01  0.66522200339E+01  0.91030971295E+01  0.00000000000E+00 0.  1.
</event>
<event>
 7    1  0.5946946E-013  0.5052887E+02  0.7816164E-02  0.1300439E+00
        -11   -1    0    0    0    0  0.00000000000E+00  0.00000000000E+00  0.45593999997E+02  0.45594000000E+02  0.51100000000E-03 0. -1.
         11   -1    0    0    0    0 -0.00000000000E+00 -0.00000000000E+00 -0.45593999997E+02  0.45594000000E+02  0.51100000000E-03 0.  1.
    9900012    2    1    2    0    0  0.19799508581E+02  0.66474612566E+01 -0.34884890778E+02  0.50528869589E+02  0.30000029602E+02 0.  0.
         12    1    1    2    0    0 -0.19799508581E+02 -0.66474612566E+01  0.34884890778E+02  0.40659130411E+02  0.00000000000E+00 0. -1.
         11    1    3    3    0    0 -0.35332984603E+01  0.11134335546E+02 -0.87162161180E+01  0.14574980266E+02  0.51100000000E-03 0. -1.
        -11    1    3    3    0    0  0.69548272972E+01 -0.17728423586E+01 -0.12651378694E+02  0.14545445194E+02  0.51100000000E-03 0.  1.
         12    1    3    3    0    0  0.16377979744E+02 -0.27140319312E+01 -0.13517295966E+02  0.21408444130E+02  0.00000000000E+00 0. -1.
</event>
<event>
 7    1  0.5946946E-013  0.5052886E+02  0.7816164E-02  0.1300439E+00
        -11   -1    0    0    0    0  0.00000000000E+00  0.00000000000E+00  0.45593999997E+02  0.45594000000E+02  0.51100000000E-03 0.  1.
         11   -1    0    0    0    0 -0.00000000000E+00 -0.00000000000E+00 -0.45593999997E+02  0.45594000000E+02  0.51100000000E-03 0. -1.
    9900012    2    1    2    0    0  0.61400411874E+01  0.24096945095E+02  0.32168351718E+02  0.50528859319E+02  0.29999998385E+02 0.  0.
         12    1    1    2    0    0 -0.61400411874E+01 -0.24096945095E+02 -0.32168351718E+02  0.40659140681E+02  0.00000000000E+00 0. -1.
         11    1    3    3    0    0  0.13996769171E+02  0.17646416254E+02  0.16958020910E+02  0.28193616782E+02  0.51100000000E-03 0.  1.
        -11    1    3    3    0    0 -0.49786832821E+01  0.10334858573E+02  0.98863121013E+01  0.15143835583E+02  0.51100000000E-03 0. -1.
         12    1    3    3    0    0 -0.28780447017E+01 -0.38843297320E+01  0.53240187073E+01  0.71914069532E+01  0.00000000000E+00 0. -1.
</event>
<event>
 7    1  0.5946946E-013  0.5052885E+02  0.7816164E-02  0.1300439E+00
        -11   -1    0    0    0    0  0.00000000000E+00  0.00000000000E+00  0.45593999997E+02  0.45594000000E+02  0.51100000000E-03 0. -1.
         11   -1    0    0    0    0 -0.00000000000E+00 -0.00000000000E+00 -0.45593999997E+02  0.45594000000E+02  0.51100000000E-03 0.  1.
    9900012    2    1    2    0    0  0.34372072593E+02 -0.44907180040E+01 -0.21249944720E+02  0.50528854988E+02  0.29999985222E+02 0.  0.
         12    1    1    2    0    0 -0.34372072593E+02  0.44907180040E+01  0.21249944720E+02  0.40659145012E+02  0.00000000000E+00 0. -1.
         11    1    3    3    0    0  0.23730067077E+02  0.79767362931E+01 -0.17514333105E+02  0.30553171190E+02  0.51100000000E-03 0.  1.
        -11    1    3    3    0    0  0.11971408726E+02 -0.10466924013E+02 -0.45330899786E+00  0.15908381894E+02  0.51100000000E-03 0. -1.
        -12    1    3    3    0    0 -0.13294032105E+01 -0.20005302846E+01 -0.32823026166E+01  0.40673019045E+01  0.00000000000E+00 0.  1.
</event>
<event>
 7    1  0.5946946E-013  0.5052886E+02  0.7816164E-02  0.1300439E+00
        -11   -1    0    0    0    0  0.00000000000E+00  0.00000000000E+00  0.45593999997E+02  0.45594000000E+02  0.51100000000E-03 0.  1.
         11   -1    0    0    0    0 -0.00000000000E+00 -0.00000000000E+00 -0.45593999997E+02  0.45594000000E+02  0.51100000000E-03 0. -1.
    9900012    2    1    2    0    0  0.20789031228E+02 -0.17025060560E+02  0.30514412840E+02  0.50528857148E+02  0.29999991788E+02 0.  0.
         12    1    1    2    0    0 -0.20789031228E+02  0.17025060560E+02 -0.30514412840E+02  0.40659142852E+02  0.00000000000E+00 0. -1.
         11    1    3    3    0    0  0.67580841311E+01  0.53917695165E+00  0.12101918177E+01  0.68867247226E+01  0.51100000000E-03 0. -1.
        -11    1    3    3    0    0 -0.53275017370E+00 -0.17765825483E+02  0.15900328988E+02  0.23848036397E+02  0.51100000000E-03 0.  1.
        -12    1    3    3    0    0  0.14563697271E+02  0.20158797109E+00  0.13403892034E+02  0.19794096028E+02  0.00000000000E+00 0.  1.
</event>
<event>
 7    1  0.5946946E-013  0.5052886E+02  0.7816164E-02  0.1300439E+00
        -11   -1    0    0    0    0  0.00000000000E+00  0.00000000000E+00  0.45593999997E+02  0.45594000000E+02  0.51100000000E-03 0. -1.
         11   -1    0    0    0    0 -0.00000000000E+00 -0.00000000000E+00 -0.45593999997E+02  0.45594000000E+02  0.51100000000E-03 0.  1.
    9900012    2    1    2    0    0 -0.66523582888E+01 -0.33481596686E+02 -0.22088328094E+02  0.50528862952E+02  0.30000009430E+02 0.  0.
         12    1    1    2    0    0  0.66523582888E+01  0.33481596686E+02  0.22088328094E+02  0.40659137048E+02  0.00000000000E+00 0. -1.
         11    1    3    3    0    0 -0.27127551784E+01  0.15947823639E+01  0.35760273415E+01  0.47634381758E+01  0.51100000000E-03 0. -1.
        -11    1    3    3    0    0 -0.75255800458E+01 -0.23220264885E+02 -0.21967952378E+02  0.32839092380E+02  0.51100000000E-03 0.  1.
         12    1    3    3    0    0  0.35859769355E+01 -0.11856114165E+02 -0.36964030571E+01  0.12926332397E+02  0.00000000000E+00 0. -1.
</event>
<event>
 7    1  0.5946946E-013  0.5052885E+02  0.7816164E-02  0.1300439E+00
        -11   -1    0    0    0    0  0.00000000000E+00  0.00000000000E+00  0.45593999997E+02  0.45594000000E+02  0.51100000000E-03 0.  1.
         11   -1    0    0    0    0 -0.00000000000E+00 -0.00000000000E+00 -0.45593999997E+02  0.45594000000E+02  0.51100000000E-03 0. -1.
    9900012    2    1    2    0    0 -0.11738556364E+02  0.22949994400E+02  0.31443125403E+02  0.50528854859E+02  0.29999984829E+02 0.  0.
         12    1    1    2    0    0  0.11738556364E+02 -0.22949994400E+02 -0.31443125403E+02  0.40659145141E+02  0.00000000000E+00 0. -1.
         11    1    3    3    0    0 -0.73562361836E+00 -0.15976140456E+00  0.10909255038E+02  0.10935196000E+02  0.51100000000E-03 0. -1.
        -11    1    3    3    0    0  0.51513549052E+01  0.14535597094E+02  0.75913902566E+01  0.17188637134E+02  0.51100000000E-03 0.  1.
        -12    1    3    3    0    0 -0.16154287651E+02  0.85741587105E+01  0.12942480108E+02  0.22405021724E+02  0.00000000000E+00 0.  1.
</event>
<event>
 7    1  0.5946946E-013  0.5052888E+02  0.7816164E-02  0.1300439E+00
        -11   -1    0    0    0    0  0.00000000000E+00  0.00000000000E+00  0.45593999997E+02  0.45594000000E+02  0.51100000000E-03 0.  1.
         11   -1    0    0    0    0 -0.00000000000E+00 -0.00000000000E+00 -0.45593999997E+02  0.45594000000E+02  0.51100000000E-03 0. -1.
    9900012    2    1    2    0    0 -0.40757412184E+01 -0.19738444831E+02  0.35312119254E+02  0.50528884946E+02  0.30000076281E+02 0.  0.
         12    1    1    2    0    0  0.40757412184E+01  0.19738444831E+02 -0.35312119254E+02  0.40659115054E+02  0.00000000000E+00 0. -1.
         11    1    3    3    0    0  0.81858062332E+01 -0.14804108752E+02  0.59230847073E+01  0.17923503908E+02  0.51100000000E-03 0. -1.
        -11    1    3    3    0    0 -0.61566754895E+01 -0.51036696551E+01  0.15877466421E+02  0.17777683686E+02  0.51100000000E-03 0.  1.
         12    1    3    3    0    0 -0.61048719620E+01  0.16933357676E+00  0.13511568125E+02  0.14827697351E+02  0.00000000000E+00 0. -1.
</event>
<event>
 7    1  0.5946946E-013  0.5052880E+02  0.7816164E-02  0.1300439E+00
        -11   -1    0    0    0    0  0.00000000000E+00  0.00000000000E+00  0.45593999997E+02  0.45594000000E+02  0.51100000000E-03 0.  1.
         11   -1    0    0    0    0 -0.00000000000E+00 -0.00000000000E+00 -0.45593999997E+02  0.45594000000E+02  0.51100000000E-03 0. -1.
    9900012    2    1    2    0    0 -0.32481001245E+02 -0.24417555833E+02  0.13922439442E+01  0.50528796639E+02  0.29999807864E+02 0.  0.
         12    1    1    2    0    0  0.32481001245E+02  0.24417555833E+02 -0.13922439442E+01  0.40659203361E+02  0.00000000000E+00 0. -1.
         11    1    3    3    0    0 -0.48752666586E+01  0.29820152985E+01 -0.32495306476E+01  0.65741988047E+01  0.51100000000E-03 0. -1.
        -11    1    3    3    0    0 -0.27336691074E+02 -0.29527309986E+02  0.69158384588E+01  0.40828734192E+02  0.51100000000E-03 0.  1.
        -12    1    3    3    0    0 -0.26904351259E+00  0.21277388542E+01 -0.22740638670E+01  0.31258636430E+01  0.00000000000E+00 0.  1.
</event>
<event>
 7    1  0.5946946E-013  0.5052873E+02  0.7816164E-02  0.1300439E+00
        -11   -1    0    0    0    0  0.00000000000E+00  0.00000000000E+00  0.45593999997E+02  0.45594000000E+02  0.51100000000E-03 0. -1.
         11   -1    0    0    0    0 -0.00000000000E+00 -0.00000000000E+00 -0.45593999997E+02  0.45594000000E+02  0.51100000000E-03 0.  1.
    9900012    2    1    2    0    0  0.28318818730E+02 -0.62504536511E+01 -0.28498291233E+02  0.50528729615E+02  0.29999604134E+02 0.  0.
         12    1    1    2    0    0 -0.28318818730E+02  0.62504536511E+01  0.28498291233E+02  0.40659270385E+02  0.00000000000E+00 0. -1.
         11    1    3    3    0    0  0.14960152512E+02 -0.12644123047E+02 -0.71048785632E+01  0.20836489879E+02  0.51100000000E-03 0. -1.
        -11    1    3    3    0    0  0.10934204555E+02  0.88560603288E+01 -0.22067222394E+02  0.26171529153E+02  0.51100000000E-03 0.  1.
        -12    1    3    3    0    0  0.24244616626E+01 -0.24623909327E+01  0.67380972445E+00  0.35207105822E+01  0.00000000000E+00 0.  1.
</event>
<event>
 7    1  0.5946946E-013  0.5052887E+02  0.7816164E-02  0.1300439E+00
        -11   -1    0    0    0    0  0.00000000000E+00  0.00000000000E+00  0.45593999997E+02  0.45594000000E+02  0.51100000000E-03 0. -1.
         11   -1    0    0    0    0 -0.00000000000E+00 -0.00000000000E+00 -0.45593999997E+02  0.45594000000E+02  0.51100000000E-03 0.  1.
    9900012    2    1    2    0    0 -0.28615571436E+02 -0.17407977921E+01 -0.28831992274E+02  0.50528867151E+02  0.30000022193E+02 0.  0.
         12    1    1    2    0    0  0.28615571436E+02  0.17407977921E+01  0.28831992274E+02  0.40659132849E+02  0.00000000000E+00 0. -1.
         11    1    3    3    0    0 -0.66485249298E+01  0.18366853471E+01 -0.15126160048E+02  0.16624590667E+02  0.51100000000E-03 0.  1.
        -11    1    3    3    0    0 -0.32784943179E+01  0.49751318645E+01  0.36641086245E+01  0.69947233209E+01  0.51100000000E-03 0. -1.
        -12    1    3    3    0    0 -0.18688552188E+02 -0.85526150037E+01 -0.17369940851E+02  0.26909553163E+02  0.00000000000E+00 0.  1.
</event>
<event>
 7    1  0.5946946E-013  0.5052889E+02  0.7816164E-02  0.1300439E+00
        -11   -1    0    0    0    0  0.00000000000E+00  0.00000000000E+00  0.45593999997E+02  0.45594000000E+02  0.51100000000E-03 0.  1.
         11   -1    0    0    0    0 -0.00000000000E+00 -0.00000000000E+00 -0.45593999997E+02  0.45594000000E+02  0.51100000000E-03 0. -1.
    9900012    2    1    2    0    0  0.35968715245E+02  0.11749400035E+02  0.14878384408E+02  0.50528890318E+02  0.30000092610E+02 0.  0.
         12    1    1    2    0    0 -0.35968715245E+02 -0.11749400035E+02 -0.14878384408E+02  0.40659109682E+02  0.00000000000E+00 0. -1.
         11    1    3    3    0    0  0.65927011625E+00  0.76838149234E+00  0.61880426339E+01  0.62703204945E+01  0.51100000000E-03 0. -1.
        -11    1    3    3    0    0  0.34484146863E+02  0.56930135223E+01  0.13098630529E+02  0.37324802877E+02  0.51100000000E-03 0.  1.
        -12    1    3    3    0    0  0.82529826596E+00  0.52880050202E+01 -0.44082887545E+01  0.69337669462E+01  0.00000000000E+00 0.  1.
</event>
<event>
 7    1  0.5946946E-013  0.5052887E+02  0.7816164E-02  0.1300439E+00
        -11   -1    0    0    0    0  0.00000000000E+00  0.00000000000E+00  0.45593999997E+02  0.45594000000E+02  0.51100000000E-03 0.  1.
         11   -1    0    0    0    0 -0.00000000000E+00 -0.00000000000E+00 -0.45593999997E+02  0.45594000000E+02  0.51100000000E-03 0. -1.
    9900012    2    1    2    0    0 -0.23723633723E+02  0.32090022608E+02 -0.77836086202E+01  0.50528869277E+02  0.30000028654E+02 0.  0.
         12    1    1    2    0    0  0.23723633723E+02 -0.32090022608E+02  0.77836086202E+01  0.40659130723E+02  0.00000000000E+00 0. -1.
         11    1    3    3    0    0 -0.15022436944E+02  0.10131902943E+00  0.63871615814E+00  0.15036350484E+02  0.51100000000E-03 0. -1.
        -11    1    3    3    0    0  0.20626986487E+01  0.47515943643E+01 -0.16005078629E+01  0.54216234099E+01  0.51100000000E-03 0.  1.
         12    1    3    3    0    0 -0.10763895428E+02  0.27237109214E+02 -0.68218169154E+01  0.30070895383E+02  0.00000000000E+00 0. -1.
</event>
<event>
 7    1  0.5946946E-013  0.5052885E+02  0.7816164E-02  0.1300439E+00
        -11   -1    0    0    0    0  0.00000000000E+00  0.00000000000E+00  0.45593999997E+02  0.45594000000E+02  0.51100000000E-03 0.  1.
         11   -1    0    0    0    0 -0.00000000000E+00 -0.00000000000E+00 -0.45593999997E+02  0.45594000000E+02  0.51100000000E-03 0. -1.
    9900012    2    1    2    0    0  0.70134866444E+01 -0.21657193678E+01  0.39991087409E+02  0.50528850876E+02  0.29999972724E+02 0.  0.
         12    1    1    2    0    0 -0.70134866444E+01  0.21657193678E+01 -0.39991087409E+02  0.40659149124E+02  0.00000000000E+00 0. -1.
         11    1    3    3    0    0 -0.47972384727E+00 -0.76092933760E+01  0.18741504681E+02  0.20233029398E+02  0.51100000000E-03 0.  1.
        -11    1    3    3    0    0 -0.30740073882E+01  0.97165999668E+01  0.97371021350E+01  0.14095140815E+02  0.51100000000E-03 0. -1.
         12    1    3    3    0    0  0.10567217880E+02 -0.42730259586E+01  0.11512480593E+02  0.16200680664E+02  0.00000000000E+00 0. -1.
</event>
<event>
 7    1  0.5946946E-013  0.5052886E+02  0.7816164E-02  0.1300439E+00
        -11   -1    0    0    0    0  0.00000000000E+00  0.00000000000E+00  0.45593999997E+02  0.45594000000E+02  0.51100000000E-03 0. -1.
         11   -1    0    0    0    0 -0.00000000000E+00 -0.00000000000E+00 -0.45593999997E+02  0.45594000000E+02  0.51100000000E-03 0.  1.
    9900012    2    1    2    0    0 -0.16119891409E+02  0.15348755509E+02 -0.34025439563E+02  0.50528859181E+02  0.29999997966E+02 0.  0.
         12    1    1    2    0    0  0.16119891409E+02 -0.15348755509E+02  0.34025439563E+02  0.40659140819E+02  0.00000000000E+00 0. -1.
         11    1    3    3    0    0 -0.11489295264E+02  0.11975870899E+02 -0.11460378851E+01  0.16635467909E+02  0.51100000000E-03 0. -1.
        -11    1    3    3    0    0 -0.27473596935E+01  0.25310731898E-01 -0.24752828286E+02  0.24904841584E+02  0.51100000000E-03 0.  1.
        -12    1    3    3    0    0 -0.18832364513E+01  0.33475738781E+01 -0.81265733915E+01  0.89885496877E+01  0.00000000000E+00 0.  1.
</event>
<event>
 7    1  0.5946946E-013  0.5052886E+02  0.7816164E-02  0.1300439E+00
        -11   -1    0    0    0    0  0.00000000000E+00  0.00000000000E+00  0.45593999997E+02  0.45594000000E+02  0.51100000000E-03 0.  1.
         11   -1    0    0    0    0 -0.00000000000E+00 -0.00000000000E+00 -0.45593999997E+02  0.45594000000E+02  0.51100000000E-03 0. -1.
    9900012    2    1    2    0    0 -0.37536113929E+02  0.15616723275E+02  0.56902678524E+00  0.50528859745E+02  0.29999999682E+02 0.  0.
         12    1    1    2    0    0  0.37536113929E+02 -0.15616723275E+02 -0.56902678524E+00  0.40659140255E+02  0.00000000000E+00 0. -1.
         11    1    3    3    0    0  0.14311293793E+00  0.65973551882E+01 -0.41320993820E+01  0.77858732559E+01  0.51100000000E-03 0. -1.
        -11    1    3    3    0    0 -0.33521878844E+02  0.13706158670E+02  0.38259706732E+01  0.36417210197E+02  0.51100000000E-03 0.  1.
         12    1    3    3    0    0 -0.41573480236E+01 -0.46867905830E+01  0.87515549405E+00  0.63257762920E+01  0.00000000000E+00 0. -1.
</event>
<event>
 7    1  0.5946946E-013  0.5052886E+02  0.7816164E-02  0.1300439E+00
        -11   -1    0    0    0    0  0.00000000000E+00  0.00000000000E+00  0.45593999997E+02  0.45594000000E+02  0.51100000000E-03 0. -1.
         11   -1    0    0    0    0 -0.00000000000E+00 -0.00000000000E+00 -0.45593999997E+02  0.45594000000E+02  0.51100000000E-03 0.  1.
    9900012    2    1    2    0    0 -0.13329313383E+02 -0.23610186472E+02  0.30299407630E+02  0.50528860766E+02  0.30000002785E+02 0.  0.
         12    1    1    2    0    0  0.13329313383E+02  0.23610186472E+02 -0.30299407630E+02  0.40659139234E+02  0.00000000000E+00 0. -1.
         11    1    3    3    0    0 -0.14305034400E+02 -0.15478596178E+02  0.55032700076E+01  0.21783179976E+02  0.51100000000E-03 0. -1.
        -11    1    3    3    0    0 -0.16121100292E+01 -0.64504180750E+01  0.40797668045E+01  0.78007236542E+01  0.51100000000E-03 0.  1.
         12    1    3    3    0    0  0.25878310466E+01 -0.16811722191E+01  0.20716370818E+02  0.20944957136E+02  0.00000000000E+00 0. -1.
</event>
<event>
 7    1  0.5946946E-013  0.5052888E+02  0.7816164E-02  0.1300439E+00
        -11   -1    0    0    0    0  0.00000000000E+00  0.00000000000E+00  0.45593999997E+02  0.45594000000E+02  0.51100000000E-03 0. -1.
         11   -1    0    0    0    0 -0.00000000000E+00 -0.00000000000E+00 -0.45593999997E+02  0.45594000000E+02  0.51100000000E-03 0.  1.
    9900012    2    1    2    0    0 -0.10175242959E+02  0.35776222460E+02  0.16422257748E+02  0.50528877870E+02  0.30000054774E+02 0.  0.
         12    1    1    2    0    0  0.10175242959E+02 -0.35776222460E+02 -0.16422257748E+02  0.40659122130E+02  0.00000000000E+00 0. -1.
         11    1    3    3    0    0  0.16256001763E+01 -0.34526946841E+00 -0.30794149265E+01  0.34992261272E+01  0.51100000000E-03 0. -1.
        -11    1    3    3    0    0 -0.15366463470E+02  0.36094903575E+02  0.17923730734E+02  0.43130388213E+02  0.51100000000E-03 0.  1.
        -12    1    3    3    0    0  0.35656203346E+01  0.26588353487E-01  0.15779419410E+01  0.38992635305E+01  0.00000000000E+00 0.  1.
</event>
<event>
 7    1  0.5946946E-013  0.5052880E+02  0.7816164E-02  0.1300439E+00
        -11   -1    0    0    0    0  0.00000000000E+00  0.00000000000E+00  0.45593999997E+02  0.45594000000E+02  0.51100000000E-03 0.  1.
         11   -1    0    0    0    0 -0.00000000000E+00 -0.00000000000E+00 -0.45593999997E+02  0.45594000000E+02  0.51100000000E-03 0. -1.
    9900012    2    1    2    0    0 -0.14058011175E+02 -0.29776917694E+02  0.23851157744E+02  0.50528803853E+02  0.29999829791E+02 0.  0.
         12    1    1    2    0    0  0.14058011175E+02  0.29776917694E+02 -0.23851157744E+02  0.40659196147E+02  0.00000000000E+00 0. -1.
         11    1    3    3    0    0  0.14616531320E+01  0.39722963694E+01 -0.10790405725E+01  0.43680541597E+01  0.51100000000E-03 0. -1.
        -11    1    3    3    0    0 -0.12100314100E+02 -0.32432870343E+02  0.19872092244E+02  0.39915018857E+02  0.51100000000E-03 0.  1.
        -12    1    3    3    0    0 -0.34193502074E+01 -0.13163437212E+01  0.50581060728E+01  0.62457308361E+01  0.00000000000E+00 0.  1.
</event>
<event>
 7    1  0.5946946E-013  0.5052893E+02  0.7816164E-02  0.1300439E+00
        -11   -1    0    0    0    0  0.00000000000E+00  0.00000000000E+00  0.45593999997E+02  0.45594000000E+02  0.51100000000E-03 0.  1.
         11   -1    0    0    0    0 -0.00000000000E+00 -0.00000000000E+00 -0.45593999997E+02  0.45594000000E+02  0.51100000000E-03 0. -1.
    9900012    2    1    2    0    0  0.91069367466E+01  0.39169143127E+02  0.60001800950E+01  0.50528926826E+02  0.30000203578E+02 0.  0.
         12    1    1    2    0    0 -0.91069367466E+01 -0.39169143127E+02 -0.60001800950E+01  0.40659073174E+02  0.00000000000E+00 0. -1.
         11    1    3    3    0    0  0.13761596162E+01  0.22655925682E+02 -0.84778653558E+00  0.22713509770E+02  0.51100000000E-03 0. -1.
        -11    1    3    3    0    0  0.17055084562E+01 -0.45117025245E+01 -0.22612434921E+00  0.48285972338E+01  0.51100000000E-03 0.  1.
        -12    1    3    3    0    0  0.60252686743E+01  0.21024919970E+02  0.70740909797E+01  0.22986819822E+02  0.00000000000E+00 0.  1.
</event>
<event>
 7    1  0.5946946E-013  0.5052884E+02  0.7816164E-02  0.1300439E+00
        -11   -1    0    0    0    0  0.00000000000E+00  0.00000000000E+00  0.45593999997E+02  0.45594000000E+02  0.51100000000E-03 0.  1.
         11   -1    0    0    0    0 -0.00000000000E+00 -0.00000000000E+00 -0.45593999997E+02  0.45594000000E+02  0.51100000000E-03 0. -1.
    9900012    2    1    2    0    0 -0.33103443125E+02 -0.33306069352E+01  0.23371694270E+02  0.50528843807E+02  0.29999951236E+02 0.  0.
         12    1    1    2    0    0  0.33103443125E+02  0.33306069352E+01 -0.23371694270E+02  0.40659156193E+02  0.00000000000E+00 0. -1.
         11    1    3    3    0    0 -0.50035066109E+01 -0.60778282222E+01 -0.42229122915E+01  0.89335358502E+01  0.51100000000E-03 0. -1.
        -11    1    3    3    0    0 -0.37456680752E+01  0.21859461897E+01  0.11776101232E+02  0.12549300800E+02  0.51100000000E-03 0.  1.
         12    1    3    3    0    0 -0.24354268438E+02  0.56127509730E+00  0.15818505329E+02  0.29046007157E+02  0.00000000000E+00 0. -1.
</event>
<event>
 7    1  0.5946946E-013  0.5052888E+02  0.7816164E-02  0.1300439E+00
        -11   -1    0    0    0    0  0.00000000000E+00  0.00000000000E+00  0.45593999997E+02  0.45594000000E+02  0.51100000000E-03 0.  1.
         11   -1    0    0    0    0 -0.00000000000E+00 -0.00000000000E+00 -0.45593999997E+02  0.45594000000E+02  0.51100000000E-03 0. -1.
    9900012    2    1    2    0    0  0.95599648450E+01  0.18071733915E+02  0.35145176704E+02  0.50528881219E+02  0.30000064952E+02 0.  0.
         12    1    1    2    0    0 -0.95599648450E+01 -0.18071733915E+02 -0.35145176704E+02  0.40659118781E+02  0.00000000000E+00 0. -1.
         11    1    3    3    0    0 -0.46443925629E+01  0.10347381688E+02  0.26236064130E+01  0.11641391710E+02  0.51100000000E-03 0. -1.
        -11    1    3    3    0    0  0.23494563003E+01  0.14126081016E+01  0.21041079164E+02  0.21218916542E+02  0.51100000000E-03 0.  1.
         12    1    3    3    0    0  0.11854901108E+02  0.63117441251E+01  0.11480491127E+02  0.17668572967E+02  0.00000000000E+00 0. -1.
</event>
<event>
 7    1  0.5946946E-013  0.5052886E+02  0.7816164E-02  0.1300439E+00
        -11   -1    0    0    0    0  0.00000000000E+00  0.00000000000E+00  0.45593999997E+02  0.45594000000E+02  0.51100000000E-03 0.  1.
         11   -1    0    0    0    0 -0.00000000000E+00 -0.00000000000E+00 -0.45593999997E+02  0.45594000000E+02  0.51100000000E-03 0. -1.
    9900012    2    1    2    0    0 -0.35810145963E+01  0.21726597141E+02  0.34180358246E+02  0.50528861068E+02  0.30000003701E+02 0.  0.
         12    1    1    2    0    0  0.35810145963E+01 -0.21726597141E+02 -0.34180358246E+02  0.40659138932E+02  0.00000000000E+00 0. -1.
         11    1    3    3    0    0  0.10862146388E+02  0.15295280419E+02  0.14194752441E+02  0.23524940476E+02  0.51100000000E-03 0. -1.
        -11    1    3    3    0    0 -0.45014758907E+01 -0.21754704673E+01  0.50951326867E+01  0.71383705637E+01  0.51100000000E-03 0.  1.
        -12    1    3    3    0    0 -0.99416850938E+01  0.86067871896E+01  0.14890473119E+02  0.19865550028E+02  0.00000000000E+00 0.  1.
</event>
<event>
 7    1  0.5946946E-013  0.5052885E+02  0.7816164E-02  0.1300439E+00
        -11   -1    0    0    0    0  0.00000000000E+00  0.00000000000E+00  0.45593999997E+02  0.45594000000E+02  0.51100000000E-03 0.  1.
         11   -1    0    0    0    0 -0.00000000000E+00 -0.00000000000E+00 -0.45593999997E+02  0.45594000000E+02  0.51100000000E-03 0. -1.
    9900012    2    1    2    0    0 -0.17095321918E+02 -0.21535002971E+01  0.36827687300E+02  0.50528854081E+02  0.29999982464E+02 0.  0.
         12    1    1    2    0    0  0.17095321918E+02  0.21535002971E+01 -0.36827687300E+02  0.40659145919E+02  0.00000000000E+00 0. -1.
         11    1    3    3    0    0 -0.15442052428E+02  0.41279442598E+01  0.12128198857E+02  0.20064648384E+02  0.51100000000E-03 0. -1.
        -11    1    3    3    0    0  0.38615526299E+01 -0.81522084787E+01  0.58884349866E+01  0.10772360867E+02  0.51100000000E-03 0.  1.
        -12    1    3    3    0    0 -0.55148221204E+01  0.18707639219E+01  0.18811053457E+02  0.19691844830E+02  0.00000000000E+00 0.  1.
</event>
<event>
 7    1  0.5946946E-013  0.5052886E+02  0.7816164E-02  0.1300439E+00
        -11   -1    0    0    0    0  0.00000000000E+00  0.00000000000E+00  0.45593999997E+02  0.45594000000E+02  0.51100000000E-03 0. -1.
         11   -1    0    0    0    0 -0.00000000000E+00 -0.00000000000E+00 -0.45593999997E+02  0.45594000000E+02  0.51100000000E-03 0.  1.
    9900012    2    1    2    0    0 -0.38557701932E+02  0.98764745988E+01  0.83020836911E+01  0.50528859301E+02  0.29999998331E+02 0.  0.
         12    1    1    2    0    0  0.38557701932E+02 -0.98764745988E+01 -0.83020836911E+01  0.40659140699E+02  0.00000000000E+00 0. -1.
         11    1    3    3    0    0 -0.37835404279E+01 -0.41337863374E+01  0.10109383925E+02  0.11558676882E+02  0.51100000000E-03 0. -1.
        -11    1    3    3    0    0 -0.28781264729E+02  0.14900008989E+02  0.69078171794E+00  0.32416795753E+02  0.51100000000E-03 0.  1.
         12    1    3    3    0    0 -0.59928967753E+01 -0.88974805299E+00 -0.24980819518E+01  0.65533866661E+01  0.00000000000E+00 0. -1.
</event>
<event>
 7    1  0.5946946E-013  0.5052886E+02  0.7816164E-02  0.1300439E+00
        -11   -1    0    0    0    0  0.00000000000E+00  0.00000000000E+00  0.45593999997E+02  0.45594000000E+02  0.51100000000E-03 0.  1.
         11   -1    0    0    0    0 -0.00000000000E+00 -0.00000000000E+00 -0.45593999997E+02  0.45594000000E+02  0.51100000000E-03 0. -1.
    9900012    2    1    2    0    0  0.76113631907E+00  0.37700067240E+02  0.15208262803E+02  0.50528860119E+02  0.30000000818E+02 0.  0.
         12    1    1    2    0    0 -0.76113631907E+00 -0.37700067240E+02 -0.15208262803E+02  0.40659139881E+02  0.00000000000E+00 0. -1.
         11    1    3    3    0    0  0.80546501568E+01  0.46118412266E+01 -0.20116321656E+01  0.94970065220E+01  0.51100000000E-03 0. -1.
        -11    1    3    3    0    0  0.43496475473E+00  0.23868669998E+02  0.16420948970E+02  0.28974992099E+02  0.51100000000E-03 0.  1.
        -12    1    3    3    0    0 -0.77284785924E+01  0.92195560154E+01  0.79894599797E+00  0.12056861498E+02  0.00000000000E+00 0.  1.
</event>
<event>
 7    1  0.5946946E-013  0.5052886E+02  0.7816164E-02  0.1300439E+00
        -11   -1    0    0    0    0  0.00000000000E+00  0.00000000000E+00  0.45593999997E+02  0.45594000000E+02  0.51100000000E-03 0.  1.
         11   -1    0    0    0    0 -0.00000000000E+00 -0.00000000000E+00 -0.45593999997E+02  0.45594000000E+02  0.51100000000E-03 0. -1.
    9900012    2    1    2    0    0  0.25627546701E+02 -0.12001248773E+02  0.29195279749E+02  0.50528862261E+02  0.30000007329E+02 0.  0.
         12    1    1    2    0    0 -0.25627546701E+02  0.12001248773E+02 -0.29195279749E+02  0.40659137739E+02  0.00000000000E+00 0. -1.
         11    1    3    3    0    0  0.88705735465E+01  0.46090578717E+01  0.18942783818E+02  0.21418672895E+02  0.51100000000E-03 0.  1.
        -11    1    3    3    0    0  0.75413040484E+01 -0.15703621615E+02  0.94415433445E+01  0.19814584012E+02  0.51100000000E-03 0. -1.
         12    1    3    3    0    0  0.92156691063E+01 -0.90668503040E+00  0.81095258611E+00  0.92956053551E+01  0.00000000000E+00 0. -1.
</event>
<event>
 7    1  0.5946946E-013  0.5052886E+02  0.7816164E-02  0.1300439E+00
        -11   -1    0    0    0    0  0.00000000000E+00  0.00000000000E+00  0.45593999997E+02  0.45594000000E+02  0.51100000000E-03 0.  1.
         11   -1    0    0    0    0 -0.00000000000E+00 -0.00000000000E+00 -0.45593999997E+02  0.45594000000E+02  0.51100000000E-03 0. -1.
    9900012    2    1    2    0    0  0.32408077980E+01  0.33824103065E+02  0.22329184853E+02  0.50528864747E+02  0.30000014884E+02 0.  0.
         12    1    1    2    0    0 -0.32408077980E+01 -0.33824103065E+02 -0.22329184853E+02  0.40659135253E+02  0.00000000000E+00 0. -1.
         11    1    3    3    0    0 -0.66865562242E+01  0.18135548556E+00  0.64308484822E+00  0.67198573150E+01  0.51100000000E-03 0. -1.
        -11    1    3    3    0    0  0.12712062924E+02  0.25986971209E+02  0.20765309814E+02  0.35610634765E+02  0.51100000000E-03 0.  1.
        -12    1    3    3    0    0 -0.27846989022E+01  0.76557763703E+01  0.92079019097E+00  0.81983726668E+01  0.00000000000E+00 0.  1.
</event>
<event>
 7    1  0.5946946E-013  0.5052886E+02  0.7816164E-02  0.1300439E+00
        -11   -1    0    0    0    0  0.00000000000E+00  0.00000000000E+00  0.45593999997E+02  0.45594000000E+02  0.51100000000E-03 0.  1.
         11   -1    0    0    0    0 -0.00000000000E+00 -0.00000000000E+00 -0.45593999997E+02  0.45594000000E+02  0.51100000000E-03 0. -1.
    9900012    2    1    2    0    0  0.33767161646E+01  0.11130969256E+02  0.38959790038E+02  0.50528856767E+02  0.29999990628E+02 0.  0.
         12    1    1    2    0    0 -0.33767161646E+01 -0.11130969256E+02 -0.38959790038E+02  0.40659143233E+02  0.00000000000E+00 0. -1.
         11    1    3    3    0    0 -0.24621954367E-01  0.15718701769E+01 -0.56907289241E+00  0.16718930324E+01  0.51100000000E-03 0. -1.
        -11    1    3    3    0    0  0.45771274594E+01  0.44811244520E+01  0.42417024581E+02  0.42897955041E+02  0.51100000000E-03 0.  1.
        -12    1    3    3    0    0 -0.11757893405E+01  0.50779746268E+01 -0.28881616504E+01  0.59590086930E+01  0.00000000000E+00 0.  1.
</event>
<event>
 7    1  0.5946946E-013  0.5052885E+02  0.7816164E-02  0.1300439E+00
        -11   -1    0    0    0    0  0.00000000000E+00  0.00000000000E+00  0.45593999997E+02  0.45594000000E+02  0.51100000000E-03 0. -1.
         11   -1    0    0    0    0 -0.00000000000E+00 -0.00000000000E+00 -0.45593999997E+02  0.45594000000E+02  0.51100000000E-03 0.  1.
    9900012    2    1    2    0    0 -0.34773659828E+02  0.17824144947E+02  0.11236491963E+02  0.50528852043E+02  0.29999976271E+02 0.  0.
         12    1    1    2    0    0  0.34773659828E+02 -0.17824144947E+02 -0.11236491963E+02  0.40659147957E+02  0.00000000000E+00 0. -1.
         11    1    3    3    0    0 -0.69112096605E+01 -0.54368925958E-02 -0.37187942674E+01  0.78482023162E+01  0.51100000000E-03 0. -1.
        -11    1    3    3    0    0 -0.11106448786E+02  0.17491046078E+02  0.15558221151E+02  0.25910386781E+02  0.51100000000E-03 0.  1.
        -12    1    3    3    0    0 -0.16756001382E+02  0.33853576224E+00 -0.60293492052E+00  0.16770262946E+02  0.00000000000E+00 0.  1.
</event>
<event>
 7    1  0.5946946E-013  0.5052886E+02  0.7816164E-02  0.1300439E+00
        -11   -1    0    0    0    0  0.00000000000E+00  0.00000000000E+00  0.45593999997E+02  0.45594000000E+02  0.51100000000E-03 0.  1.
         11   -1    0    0    0    0 -0.00000000000E+00 -0.00000000000E+00 -0.45593999997E+02  0.45594000000E+02  0.51100000000E-03 0. -1.
    9900012    2    1    2    0    0  0.36110005355E+01 -0.33670181269E+02  0.22504341080E+02  0.50528858359E+02  0.29999995468E+02 0.  0.
         12    1    1    2    0    0 -0.36110005355E+01  0.33670181269E+02 -0.22504341080E+02  0.40659141641E+02  0.00000000000E+00 0. -1.
         11    1    3    3    0    0 -0.47997736721E+00 -0.31119314261E+02  0.15385819442E+02  0.34718374653E+02  0.51100000000E-03 0. -1.
        -11    1    3    3    0    0  0.79810600160E+01  0.19567907356E-01  0.77265127025E+01  0.11108406757E+02  0.51100000000E-03 0.  1.
         12    1    3    3    0    0 -0.38900821133E+01 -0.25704349148E+01 -0.60799106466E+00  0.47020769490E+01  0.00000000000E+00 0. -1.
</event>
<event>
 7    1  0.5946946E-013  0.5052886E+02  0.7816164E-02  0.1300439E+00
        -11   -1    0    0    0    0  0.00000000000E+00  0.00000000000E+00  0.45593999997E+02  0.45594000000E+02  0.51100000000E-03 0. -1.
         11   -1    0    0    0    0 -0.00000000000E+00 -0.00000000000E+00 -0.45593999997E+02  0.45594000000E+02  0.51100000000E-03 0.  1.
    9900012    2    1    2    0    0  0.90631868927E+01  0.37802044981E+02 -0.11917630599E+02  0.50528857357E+02  0.29999992422E+02 0.  0.
         12    1    1    2    0    0 -0.90631868927E+01 -0.37802044981E+02  0.11917630599E+02  0.40659142643E+02  0.00000000000E+00 0. -1.
         11    1    3    3    0    0 -0.83873261853E+00  0.17508994602E+02  0.71670829751E+01  0.18937672587E+02  0.51100000000E-03 0.  1.
        -11    1    3    3    0    0  0.70414990552E+01  0.12184229429E+02 -0.18113922520E+02  0.22938010921E+02  0.51100000000E-03 0. -1.
         12    1    3    3    0    0  0.28604204560E+01  0.81088209500E+01 -0.97079105421E+00  0.86531738487E+01  0.00000000000E+00 0. -1.
</event>
<event>
 7    1  0.5946946E-013  0.5052886E+02  0.7816164E-02  0.1300439E+00
        -11   -1    0    0    0    0  0.00000000000E+00  0.00000000000E+00  0.45593999997E+02  0.45594000000E+02  0.51100000000E-03 0.  1.
         11   -1    0    0    0    0 -0.00000000000E+00 -0.00000000000E+00 -0.45593999997E+02  0.45594000000E+02  0.51100000000E-03 0. -1.
    9900012    2    1    2    0    0  0.27296807641E+02 -0.75459137572E+01  0.29173778330E+02  0.50528857561E+02  0.29999993042E+02 0.  0.
         12    1    1    2    0    0 -0.27296807641E+02  0.75459137572E+01 -0.29173778330E+02  0.40659142439E+02  0.00000000000E+00 0. -1.
         11    1    3    3    0    0 -0.35934443978E+01  0.48182999366E+00  0.91560936803E+00  0.37394309137E+01  0.51100000000E-03 0. -1.
        -11    1    3    3    0    0  0.16651328739E+02 -0.13666587098E+02  0.12943886837E+02  0.25131385922E+02  0.51100000000E-03 0.  1.
        -12    1    3    3    0    0  0.14238923300E+02  0.56388433468E+01  0.15314282125E+02  0.21658040725E+02  0.00000000000E+00 0.  1.
</event>
<event>
 7    1  0.5946946E-013  0.5052896E+02  0.7816164E-02  0.1300438E+00
        -11   -1    0    0    0    0  0.00000000000E+00  0.00000000000E+00  0.45593999997E+02  0.45594000000E+02  0.51100000000E-03 0.  1.
         11   -1    0    0    0    0 -0.00000000000E+00 -0.00000000000E+00 -0.45593999997E+02  0.45594000000E+02  0.51100000000E-03 0. -1.
    9900012    2    1    2    0    0  0.42316797113E+01 -0.10708990351E+02  0.38994461630E+02  0.50528958873E+02  0.30000300989E+02 0.  0.
         12    1    1    2    0    0 -0.42316797113E+01  0.10708990351E+02 -0.38994461630E+02  0.40659041127E+02  0.00000000000E+00 0. -1.
         11    1    3    3    0    0  0.39850997998E+01  0.35171709843E+01  0.14989882553E+02  0.15904341903E+02  0.51100000000E-03 0. -1.
        -11    1    3    3    0    0  0.15062042209E+01 -0.16603327469E+02  0.81748544493E+01  0.18567912638E+02  0.51100000000E-03 0.  1.
        -12    1    3    3    0    0 -0.12596243093E+01  0.23771661336E+01  0.15829724628E+02  0.16056704333E+02  0.00000000000E+00 0.  1.
</event>
<event>
 7    1  0.5946946E-013  0.5052886E+02  0.7816164E-02  0.1300439E+00
        -11   -1    0    0    0    0  0.00000000000E+00  0.00000000000E+00  0.45593999997E+02  0.45594000000E+02  0.51100000000E-03 0. -1.
         11   -1    0    0    0    0 -0.00000000000E+00 -0.00000000000E+00 -0.45593999997E+02  0.45594000000E+02  0.51100000000E-03 0.  1.
    9900012    2    1    2    0    0  0.23090140146E+02  0.32413839383E+02 -0.83279041463E+01  0.50528861507E+02  0.30000005037E+02 0.  0.
         12    1    1    2    0    0 -0.23090140146E+02 -0.32413839383E+02  0.83279041463E+01  0.40659138493E+02  0.00000000000E+00 0. -1.
         11    1    3    3    0    0 -0.17030229397E+01  0.13351580491E+01  0.16009633695E+01  0.26918428856E+01  0.51100000000E-03 0. -1.
        -11    1    3    3    0    0  0.20585537614E+02  0.35162259873E+02 -0.72264512212E+01  0.41380798394E+02  0.51100000000E-03 0.  1.
        -12    1    3    3    0    0  0.42076254718E+01 -0.40835785388E+01 -0.27024162946E+01  0.64562202273E+01  0.00000000000E+00 0.  1.
</event>
<event>
 7    1  0.5946946E-013  0.5052883E+02  0.7816164E-02  0.1300439E+00
        -11   -1    0    0    0    0  0.00000000000E+00  0.00000000000E+00  0.45593999997E+02  0.45594000000E+02  0.51100000000E-03 0.  1.
         11   -1    0    0    0    0 -0.00000000000E+00 -0.00000000000E+00 -0.45593999997E+02  0.45594000000E+02  0.51100000000E-03 0. -1.
    9900012    2    1    2    0    0  0.23481592638E+02  0.57741503628E+01  0.32687035354E+02  0.50528827781E+02  0.29999902524E+02 0.  0.
         12    1    1    2    0    0 -0.23481592638E+02 -0.57741503628E+01 -0.32687035354E+02  0.40659172219E+02  0.00000000000E+00 0. -1.
         11    1    3    3    0    0  0.44265180853E+01  0.89331785005E+01  0.24394627121E+01  0.10263854981E+02  0.51100000000E-03 0. -1.
        -11    1    3    3    0    0  0.17548161120E+02 -0.66030815240E+01  0.13508183488E+02  0.23108649153E+02  0.51100000000E-03 0.  1.
         12    1    3    3    0    0  0.15069134335E+01  0.34440533864E+01  0.16739389154E+02  0.17156323647E+02  0.00000000000E+00 0. -1.
</event>
<event>
 7    1  0.5946946E-013  0.5052886E+02  0.7816164E-02  0.1300439E+00
        -11   -1    0    0    0    0  0.00000000000E+00  0.00000000000E+00  0.45593999997E+02  0.45594000000E+02  0.51100000000E-03 0.  1.
         11   -1    0    0    0    0 -0.00000000000E+00 -0.00000000000E+00 -0.45593999997E+02  0.45594000000E+02  0.51100000000E-03 0. -1.
    9900012    2    1    2    0    0  0.61269218261E+01  0.19384070113E+02  0.35211989321E+02  0.50528861579E+02  0.30000005254E+02 0.  0.
         12    1    1    2    0    0 -0.61269218261E+01 -0.19384070113E+02 -0.35211989321E+02  0.40659138421E+02  0.00000000000E+00 0. -1.
         11    1    3    3    0    0  0.17621640418E+02  0.93333329269E+01  0.20804856934E+02  0.28817969860E+02  0.51100000000E-03 0. -1.
        -11    1    3    3    0    0 -0.94862504829E+01  0.86602616162E+01  0.14361515257E+02  0.19267646463E+02  0.51100000000E-03 0.  1.
         12    1    3    3    0    0 -0.20084681092E+01  0.13904755702E+01  0.45617130459E-01  0.24432452558E+01  0.00000000000E+00 0. -1.
</event>
<event>
 7    1  0.5946946E-013  0.5052885E+02  0.7816164E-02  0.1300439E+00
        -11   -1    0    0    0    0  0.00000000000E+00  0.00000000000E+00  0.45593999997E+02  0.45594000000E+02  0.51100000000E-03 0.  1.
         11   -1    0    0    0    0 -0.00000000000E+00 -0.00000000000E+00 -0.45593999997E+02  0.45594000000E+02  0.51100000000E-03 0. -1.
    9900012    2    1    2    0    0  0.28709660581E+01  0.36331389361E+02 -0.18026485847E+02  0.50528849849E+02  0.29999969601E+02 0.  0.
         12    1    1    2    0    0 -0.28709660581E+01 -0.36331389361E+02  0.18026485847E+02  0.40659150151E+02  0.00000000000E+00 0. -1.
         11    1    3    3    0    0  0.13537768244E+02  0.97498157359E+01 -0.40019487759E+01  0.17156505186E+02  0.51100000000E-03 0. -1.
        -11    1    3    3    0    0 -0.44042504658E+01  0.13941602670E+02 -0.18471098706E+01  0.14736944130E+02  0.51100000000E-03 0.  1.
         12    1    3    3    0    0 -0.62625517203E+01  0.12639970955E+02 -0.12177427201E+02  0.18635400533E+02  0.00000000000E+00 0. -1.
</event>
<event>
 7    1  0.5946946E-013  0.5052887E+02  0.7816164E-02  0.1300439E+00
        -11   -1    0    0    0    0  0.00000000000E+00  0.00000000000E+00  0.45593999997E+02  0.45594000000E+02  0.51100000000E-03 0.  1.
         11   -1    0    0    0    0 -0.00000000000E+00 -0.00000000000E+00 -0.45593999997E+02  0.45594000000E+02  0.51100000000E-03 0. -1.
    9900012    2    1    2    0    0  0.95685668407E+01  0.32354740627E+02  0.22688728058E+02  0.50528867037E+02  0.30000021846E+02 0.  0.
         12    1    1    2    0    0 -0.95685668407E+01 -0.32354740627E+02 -0.22688728058E+02  0.40659132963E+02  0.00000000000E+00 0. -1.
         11    1    3    3    0    0  0.26168809542E+01  0.16176646522E+01 -0.36837947225E+01  0.47995050447E+01  0.51100000000E-03 0. -1.
        -11    1    3    3    0    0  0.17981898158E+01  0.30220289597E+02  0.26932470230E+02  0.40519838880E+02  0.51100000000E-03 0.  1.
         12    1    3    3    0    0  0.51534960707E+01  0.51678637787E+00 -0.55994744990E+00  0.52095231123E+01  0.00000000000E+00 0. -1.
</event>
<event>
 7    1  0.5946946E-013  0.5052882E+02  0.7816164E-02  0.1300439E+00
        -11   -1    0    0    0    0  0.00000000000E+00  0.00000000000E+00  0.45593999997E+02  0.45594000000E+02  0.51100000000E-03 0. -1.
         11   -1    0    0    0    0 -0.00000000000E+00 -0.00000000000E+00 -0.45593999997E+02  0.45594000000E+02  0.51100000000E-03 0.  1.
    9900012    2    1    2    0    0  0.51886183980E+01 -0.39829202891E+02  0.63152043356E+01  0.50528819369E+02  0.29999876954E+02 0.  0.
         12    1    1    2    0    0 -0.51886183980E+01  0.39829202891E+02 -0.63152043356E+01  0.40659180631E+02  0.00000000000E+00 0. -1.
         11    1    3    3    0    0  0.73269130068E+01  0.74780103214E-01  0.56700798639E+01  0.92649367076E+01  0.51100000000E-03 0. -1.
        -11    1    3    3    0    0 -0.98569070233E-01 -0.14376569002E+02  0.51312044299E+01  0.15265146947E+02  0.51100000000E-03 0.  1.
         12    1    3    3    0    0 -0.20397255385E+01 -0.25527413992E+02 -0.44860799582E+01  0.25998735715E+02  0.00000000000E+00 0. -1.
</event>
<event>
 7    1  0.5946946E-013  0.5052886E+02  0.7816164E-02  0.1300439E+00
        -11   -1    0    0    0    0  0.00000000000E+00  0.00000000000E+00  0.45593999997E+02  0.45594000000E+02  0.51100000000E-03 0.  1.
         11   -1    0    0    0    0 -0.00000000000E+00 -0.00000000000E+00 -0.45593999997E+02  0.45594000000E+02  0.51100000000E-03 0. -1.
    9900012    2    1    2    0    0  0.54555736653E+01  0.21656056585E+02  0.33976718216E+02  0.50528862631E+02  0.30000008454E+02 0.  0.
         12    1    1    2    0    0 -0.54555736653E+01 -0.21656056585E+02 -0.33976718216E+02  0.40659137369E+02  0.00000000000E+00 0. -1.
         11    1    3    3    0    0 -0.69978759493E+00 -0.11192569080E+01 -0.98258279488E+00  0.16455722148E+01  0.51100000000E-03 0. -1.
        -11    1    3    3    0    0  0.48990173435E+01  0.26568768839E+02  0.35749430760E+02  0.44809838746E+02  0.51100000000E-03 0.  1.
        -12    1    3    3    0    0  0.12563439167E+01 -0.37934553451E+01 -0.79012974898E+00  0.40734516705E+01  0.00000000000E+00 0.  1.
</event>
<event>
 7    1  0.5946946E-013  0.5052885E+02  0.7816164E-02  0.1300439E+00
        -11   -1    0    0    0    0  0.00000000000E+00  0.00000000000E+00  0.45593999997E+02  0.45594000000E+02  0.51100000000E-03 0.  1.
         11   -1    0    0    0    0 -0.00000000000E+00 -0.00000000000E+00 -0.45593999997E+02  0.45594000000E+02  0.51100000000E-03 0. -1.
    9900012    2    1    2    0    0  0.27093736637E+02 -0.10075633466E+02  0.28593310377E+02  0.50528851546E+02  0.29999974759E+02 0.  0.
         12    1    1    2    0    0 -0.27093736637E+02  0.10075633466E+02 -0.28593310377E+02  0.40659148454E+02  0.00000000000E+00 0. -1.
         11    1    3    3    0    0  0.96266107589E+00 -0.34618990632E+01 -0.14028267178E+01  0.38573805272E+01  0.51100000000E-03 0. -1.
        -11    1    3    3    0    0  0.27842770262E+02 -0.27621947956E+01  0.16387946147E+02  0.32425520121E+02  0.51100000000E-03 0.  1.
        -12    1    3    3    0    0 -0.17116947009E+01 -0.38515396072E+01  0.13608190948E+02  0.14245950897E+02  0.00000000000E+00 0.  1.
</event>
<event>
 7    1  0.5946946E-013  0.5052886E+02  0.7816164E-02  0.1300439E+00
        -11   -1    0    0    0    0  0.00000000000E+00  0.00000000000E+00  0.45593999997E+02  0.45594000000E+02  0.51100000000E-03 0.  1.
         11   -1    0    0    0    0 -0.00000000000E+00 -0.00000000000E+00 -0.45593999997E+02  0.45594000000E+02  0.51100000000E-03 0. -1.
    9900012    2    1    2    0    0  0.20220093103E+02  0.34896351228E+00  0.35273105903E+02  0.50528856617E+02  0.29999990172E+02 0.  0.
         12    1    1    2    0    0 -0.20220093103E+02 -0.34896351228E+00 -0.35273105903E+02  0.40659143383E+02  0.00000000000E+00 0. -1.
         11    1    3    3    0    0 -0.49525262468E+01  0.30159186560E+01  0.94043903414E+00  0.58743261233E+01  0.51100000000E-03 0. -1.
        -11    1    3    3    0    0  0.92887580723E+01  0.17362085573E+01  0.22382380395E+02  0.24295398722E+02  0.51100000000E-03 0.  1.
         12    1    3    3    0    0  0.15883861277E+02 -0.44031637010E+01  0.11950286474E+02  0.20359131771E+02  0.00000000000E+00 0. -1.
</event>
<event>
 7    1  0.5946946E-013  0.5052888E+02  0.7816164E-02  0.1300439E+00
        -11   -1    0    0    0    0  0.00000000000E+00  0.00000000000E+00  0.45593999997E+02  0.45594000000E+02  0.51100000000E-03 0. -1.
         11   -1    0    0    0    0 -0.00000000000E+00 -0.00000000000E+00 -0.45593999997E+02  0.45594000000E+02  0.51100000000E-03 0.  1.
    9900012    2    1    2    0    0 -0.10204622502E+02  0.32591075143E+02 -0.22064713888E+02  0.50528879272E+02  0.30000059036E+02 0.  0.
         12    1    1    2    0    0  0.10204622502E+02 -0.32591075143E+02  0.22064713888E+02  0.40659120728E+02  0.00000000000E+00 0. -1.
         11    1    3    3    0    0  0.60568333564E+01 -0.16550454158E+01 -0.63799645415E+01  0.89514442101E+01  0.51100000000E-03 0. -1.
        -11    1    3    3    0    0 -0.96983000848E+01  0.15988448570E+02 -0.10704224907E+02  0.21546877809E+02  0.51100000000E-03 0.  1.
         12    1    3    3    0    0 -0.65631557740E+01  0.18257671989E+02 -0.49805244396E+01  0.20030557253E+02  0.00000000000E+00 0. -1.
</event>
<event>
 7    1  0.5946946E-013  0.5052888E+02  0.7816164E-02  0.1300439E+00
        -11   -1    0    0    0    0  0.00000000000E+00  0.00000000000E+00  0.45593999997E+02  0.45594000000E+02  0.51100000000E-03 0.  1.
         11   -1    0    0    0    0 -0.00000000000E+00 -0.00000000000E+00 -0.45593999997E+02  0.45594000000E+02  0.51100000000E-03 0. -1.
    9900012    2    1    2    0    0  0.38249375524E+02  0.85481699019E+01  0.10820264338E+02  0.50528879781E+02  0.30000060582E+02 0.  0.
         12    1    1    2    0    0 -0.38249375524E+02 -0.85481699019E+01 -0.10820264338E+02  0.40659120219E+02  0.00000000000E+00 0. -1.
         11    1    3    3    0    0  0.23216966596E+02  0.45919222648E+01 -0.65085266462E+01  0.24545350015E+02  0.51100000000E-03 0. -1.
        -11    1    3    3    0    0  0.10328920635E+02  0.72794703515E+01  0.78006898941E+01  0.14850186974E+02  0.51100000000E-03 0.  1.
         12    1    3    3    0    0  0.47034882930E+01 -0.33232227144E+01  0.95281010905E+01  0.11133342792E+02  0.00000000000E+00 0. -1.
</event>
<event>
 7    1  0.5946946E-013  0.5052886E+02  0.7816164E-02  0.1300439E+00
        -11   -1    0    0    0    0  0.00000000000E+00  0.00000000000E+00  0.45593999997E+02  0.45594000000E+02  0.51100000000E-03 0.  1.
         11   -1    0    0    0    0 -0.00000000000E+00 -0.00000000000E+00 -0.45593999997E+02  0.45594000000E+02  0.51100000000E-03 0. -1.
    9900012    2    1    2    0    0 -0.26028825902E+00  0.40228538978E+02  0.58959863955E+01  0.50528858914E+02  0.29999997154E+02 0.  0.
         12    1    1    2    0    0  0.26028825902E+00 -0.40228538978E+02 -0.58959863955E+01  0.40659141086E+02  0.00000000000E+00 0. -1.
         11    1    3    3    0    0  0.12499693923E+02  0.16483510427E+02  0.31540204689E+01  0.20925972129E+02  0.51100000000E-03 0. -1.
        -11    1    3    3    0    0 -0.88141827551E+01  0.17836996008E+02  0.72649095870E+01  0.21180820470E+02  0.51100000000E-03 0.  1.
         12    1    3    3    0    0 -0.39457994266E+01  0.59080325435E+01 -0.45229436603E+01  0.84220663144E+01  0.00000000000E+00 0. -1.
</event>
<event>
 7    1  0.5946946E-013  0.5052886E+02  0.7816164E-02  0.1300439E+00
        -11   -1    0    0    0    0  0.00000000000E+00  0.00000000000E+00  0.45593999997E+02  0.45594000000E+02  0.51100000000E-03 0.  1.
         11   -1    0    0    0    0 -0.00000000000E+00 -0.00000000000E+00 -0.45593999997E+02  0.45594000000E+02  0.51100000000E-03 0. -1.
    9900012    2    1    2    0    0  0.34772972324E+02 -0.12119790096E+01  0.21036573033E+02  0.50528857088E+02  0.29999991605E+02 0.  0.
         12    1    1    2    0    0 -0.34772972324E+02  0.12119790096E+01 -0.21036573033E+02  0.40659142912E+02  0.00000000000E+00 0. -1.
         11    1    3    3    0    0  0.32694647344E+01  0.39636731447E+01 -0.36948615954E+01  0.63286733932E+01  0.51100000000E-03 0. -1.
        -11    1    3    3    0    0  0.29973904784E+02 -0.31432779146E+01  0.14108755810E+02  0.33277201727E+02  0.51100000000E-03 0.  1.
         12    1    3    3    0    0  0.15296028059E+01 -0.20323742397E+01  0.10622678818E+02  0.10922981968E+02  0.00000000000E+00 0. -1.
</event>
<event>
 7    1  0.5946946E-013  0.5052887E+02  0.7816164E-02  0.1300439E+00
        -11   -1    0    0    0    0  0.00000000000E+00  0.00000000000E+00  0.45593999997E+02  0.45594000000E+02  0.51100000000E-03 0. -1.
         11   -1    0    0    0    0 -0.00000000000E+00 -0.00000000000E+00 -0.45593999997E+02  0.45594000000E+02  0.51100000000E-03 0.  1.
    9900012    2    1    2    0    0 -0.66760228827E+01  0.24071610833E+02 -0.32080412711E+02  0.50528872988E+02  0.30000039936E+02 0.  0.
         12    1    1    2    0    0  0.66760228827E+01 -0.24071610833E+02  0.32080412711E+02  0.40659127012E+02  0.00000000000E+00 0. -1.
         11    1    3    3    0    0 -0.39210828477E+01  0.18100656042E+02 -0.40945419035E+01  0.18967707124E+02  0.51100000000E-03 0. -1.
        -11    1    3    3    0    0 -0.78985721381E+01  0.33638436258E+01 -0.13858405768E+02  0.16302094848E+02  0.51100000000E-03 0.  1.
         12    1    3    3    0    0  0.51436321031E+01  0.26071111649E+01 -0.14127465040E+02  0.15259071017E+02  0.00000000000E+00 0. -1.
</event>
<event>
 7    1  0.5946946E-013  0.5052885E+02  0.7816164E-02  0.1300439E+00
        -11   -1    0    0    0    0  0.00000000000E+00  0.00000000000E+00  0.45593999997E+02  0.45594000000E+02  0.51100000000E-03 0.  1.
         11   -1    0    0    0    0 -0.00000000000E+00 -0.00000000000E+00 -0.45593999997E+02  0.45594000000E+02  0.51100000000E-03 0. -1.
    9900012    2    1    2    0    0  0.18321450188E+02 -0.32310699531E+02  0.16538125032E+02  0.50528850713E+02  0.29999972226E+02 0.  0.
         12    1    1    2    0    0 -0.18321450188E+02  0.32310699531E+02 -0.16538125032E+02  0.40659149287E+02  0.00000000000E+00 0. -1.
         11    1    3    3    0    0  0.59512625032E+01  0.34168392486E+01 -0.29861392075E+01  0.74839390337E+01  0.51100000000E-03 0. -1.
        -11    1    3    3    0    0  0.68278355858E+01 -0.21680917224E+02  0.81790275429E+01  0.24157359174E+02  0.51100000000E-03 0.  1.
         12    1    3    3    0    0  0.55423520992E+01 -0.14046621556E+02  0.11345236696E+02  0.18887552505E+02  0.00000000000E+00 0. -1.
</event>
<event>
 7    1  0.5946946E-013  0.5052886E+02  0.7816164E-02  0.1300439E+00
        -11   -1    0    0    0    0  0.00000000000E+00  0.00000000000E+00  0.45593999997E+02  0.45594000000E+02  0.51100000000E-03 0.  1.
         11   -1    0    0    0    0 -0.00000000000E+00 -0.00000000000E+00 -0.45593999997E+02  0.45594000000E+02  0.51100000000E-03 0. -1.
    9900012    2    1    2    0    0 -0.32262502322E+02  0.22395719836E+02  0.10522752414E+02  0.50528860296E+02  0.30000001356E+02 0.  0.
         12    1    1    2    0    0  0.32262502322E+02 -0.22395719836E+02 -0.10522752414E+02  0.40659139704E+02  0.00000000000E+00 0. -1.
         11    1    3    3    0    0 -0.31291338677E+01  0.93706651550E+01  0.73227797668E+01  0.12297314666E+02  0.51100000000E-03 0. -1.
        -11    1    3    3    0    0 -0.21497051723E+02 -0.12786888691E+01 -0.73056178198E+00  0.21547436014E+02  0.51100000000E-03 0.  1.
         12    1    3    3    0    0 -0.76363167318E+01  0.14303743551E+02  0.39305344294E+01  0.16684109616E+02  0.00000000000E+00 0. -1.
</event>
<event>
 7    1  0.5946946E-013  0.5052886E+02  0.7816164E-02  0.1300439E+00
        -11   -1    0    0    0    0  0.00000000000E+00  0.00000000000E+00  0.45593999997E+02  0.45594000000E+02  0.51100000000E-03 0. -1.
         11   -1    0    0    0    0 -0.00000000000E+00 -0.00000000000E+00 -0.45593999997E+02  0.45594000000E+02  0.51100000000E-03 0.  1.
    9900012    2    1    2    0    0  0.31052693861E+02  0.24070450742E+02  0.10464656504E+02  0.50528862887E+02  0.30000009233E+02 0.  0.
         12    1    1    2    0    0 -0.31052693861E+02 -0.24070450742E+02 -0.10464656504E+02  0.40659137113E+02  0.00000000000E+00 0. -1.
         11    1    3    3    0    0  0.39158161934E+01  0.15281872573E+02  0.89278697256E+01  0.18126668306E+02  0.51100000000E-03 0. -1.
        -11    1    3    3    0    0  0.21809909461E+02  0.77141326101E+01  0.75142774437E+01  0.24323740633E+02  0.51100000000E-03 0.  1.
         12    1    3    3    0    0  0.53269682073E+01  0.10744455598E+01 -0.59774906653E+01  0.80784539484E+01  0.00000000000E+00 0. -1.
</event>
<event>
 7    1  0.5946946E-013  0.5052886E+02  0.7816164E-02  0.1300439E+00
        -11   -1    0    0    0    0  0.00000000000E+00  0.00000000000E+00  0.45593999997E+02  0.45594000000E+02  0.51100000000E-03 0. -1.
         11   -1    0    0    0    0 -0.00000000000E+00 -0.00000000000E+00 -0.45593999997E+02  0.45594000000E+02  0.51100000000E-03 0.  1.
    9900012    2    1    2    0    0 -0.34235537989E+02  0.18269345077E+02 -0.12137721993E+02  0.50528864174E+02  0.30000013145E+02 0.  0.
         12    1    1    2    0    0  0.34235537989E+02 -0.18269345077E+02  0.12137721993E+02  0.40659135826E+02  0.00000000000E+00 0. -1.
         11    1    3    3    0    0 -0.17245377816E+01 -0.51997694024E+01  0.23119614280E+01  0.59461582811E+01  0.51100000000E-03 0. -1.
        -11    1    3    3    0    0 -0.33356087131E+02  0.20658867219E+02 -0.13248720549E+02  0.41411905775E+02  0.51100000000E-03 0.  1.
         12    1    3    3    0    0  0.84508692396E+00  0.28102472602E+01 -0.12009628721E+01  0.31708001187E+01  0.00000000000E+00 0. -1.
</event>
<event>
 7    1  0.5946946E-013  0.5052886E+02  0.7816164E-02  0.1300439E+00
        -11   -1    0    0    0    0  0.00000000000E+00  0.00000000000E+00  0.45593999997E+02  0.45594000000E+02  0.51100000000E-03 0.  1.
         11   -1    0    0    0    0 -0.00000000000E+00 -0.00000000000E+00 -0.45593999997E+02  0.45594000000E+02  0.51100000000E-03 0. -1.
    9900012    2    1    2    0    0  0.15669773692E+02  0.26478885306E+02  0.26579920639E+02  0.50528863809E+02  0.30000012033E+02 0.  0.
         12    1    1    2    0    0 -0.15669773692E+02 -0.26478885306E+02 -0.26579920639E+02  0.40659136191E+02  0.00000000000E+00 0. -1.
         11    1    3    3    0    0  0.92748684252E+01  0.34195353395E+01  0.58048890371E+01  0.11463557181E+02  0.51100000000E-03 0. -1.
        -11    1    3    3    0    0 -0.81501813052E+01  0.11611700669E+02  0.60927147646E+01  0.15439501974E+02  0.51100000000E-03 0.  1.
        -12    1    3    3    0    0  0.14545086572E+02  0.11447649298E+02  0.14682316837E+02  0.23625804654E+02  0.00000000000E+00 0.  1.
</event>
<event>
 7    1  0.5946946E-013  0.5052886E+02  0.7816164E-02  0.1300439E+00
        -11   -1    0    0    0    0  0.00000000000E+00  0.00000000000E+00  0.45593999997E+02  0.45594000000E+02  0.51100000000E-03 0. -1.
         11   -1    0    0    0    0 -0.00000000000E+00 -0.00000000000E+00 -0.45593999997E+02  0.45594000000E+02  0.51100000000E-03 0.  1.
    9900012    2    1    2    0    0 -0.30703371518E+02  0.24999442137E+02 -0.92464240588E+01  0.50528862188E+02  0.30000007107E+02 0.  0.
         12    1    1    2    0    0  0.30703371518E+02 -0.24999442137E+02  0.92464240588E+01  0.40659137812E+02  0.00000000000E+00 0. -1.
         11    1    3    3    0    0 -0.23018179464E+01 -0.21787170942E+01 -0.87787608549E+01  0.93333711189E+01  0.51100000000E-03 0. -1.
        -11    1    3    3    0    0 -0.23550049142E+02  0.24054730495E+02 -0.47676155407E+01  0.33999485761E+02  0.51100000000E-03 0.  1.
         12    1    3    3    0    0 -0.48515044299E+01  0.31234287354E+01  0.42999523368E+01  0.71960053083E+01  0.00000000000E+00 0. -1.
</event>
<event>
 7    1  0.5946946E-013  0.5052886E+02  0.7816164E-02  0.1300439E+00
        -11   -1    0    0    0    0  0.00000000000E+00  0.00000000000E+00  0.45593999997E+02  0.45594000000E+02  0.51100000000E-03 0.  1.
         11   -1    0    0    0    0 -0.00000000000E+00 -0.00000000000E+00 -0.45593999997E+02  0.45594000000E+02  0.51100000000E-03 0. -1.
    9900012    2    1    2    0    0  0.13974680991E+02 -0.21753938845E+02  0.31378977292E+02  0.50528858593E+02  0.29999996180E+02 0.  0.
         12    1    1    2    0    0 -0.13974680991E+02  0.21753938845E+02 -0.31378977292E+02  0.40659141407E+02  0.00000000000E+00 0. -1.
         11    1    3    3    0    0 -0.46417544298E+01 -0.47061665585E+01  0.11455978788E+02  0.13226236733E+02  0.51100000000E-03 0. -1.
        -11    1    3    3    0    0  0.21144292641E+02 -0.12766608029E+02  0.20754643151E+02  0.32261782412E+02  0.51100000000E-03 0.  1.
         12    1    3    3    0    0 -0.25278572201E+01 -0.42811642570E+01 -0.83164464709E+00  0.50408394479E+01  0.00000000000E+00 0. -1.
</event>
<event>
 7    1  0.5946946E-013  0.5052872E+02  0.7816164E-02  0.1300439E+00
        -11   -1    0    0    0    0  0.00000000000E+00  0.00000000000E+00  0.45593999997E+02  0.45594000000E+02  0.51100000000E-03 0. -1.
         11   -1    0    0    0    0 -0.00000000000E+00 -0.00000000000E+00 -0.45593999997E+02  0.45594000000E+02  0.51100000000E-03 0.  1.
    9900012    2    1    2    0    0 -0.23860097166E+02 -0.29455561708E+02 -0.14705194004E+02  0.50528719596E+02  0.29999573680E+02 0.  0.
         12    1    1    2    0    0  0.23860097166E+02  0.29455561708E+02  0.14705194004E+02  0.40659280404E+02  0.00000000000E+00 0. -1.
         11    1    3    3    0    0 -0.43277484457E+01  0.44155931822E+01  0.31402680043E+00  0.61907578577E+01  0.51100000000E-03 0. -1.
        -11    1    3    3    0    0 -0.18315771284E+02 -0.20642232315E+02 -0.14180682253E+02  0.31026778468E+02  0.51100000000E-03 0.  1.
        -12    1    3    3    0    0 -0.12165774365E+01 -0.13228922575E+02 -0.83853855137E+00  0.13311183270E+02  0.00000000000E+00 0.  1.
</event>
<event>
 7    1  0.5946946E-013  0.5052886E+02  0.7816164E-02  0.1300439E+00
        -11   -1    0    0    0    0  0.00000000000E+00  0.00000000000E+00  0.45593999997E+02  0.45594000000E+02  0.51100000000E-03 0.  1.
         11   -1    0    0    0    0 -0.00000000000E+00 -0.00000000000E+00 -0.45593999997E+02  0.45594000000E+02  0.51100000000E-03 0. -1.
    9900012    2    1    2    0    0  0.23967097032E+02 -0.13826997007E+02  0.29791913432E+02  0.50528859671E+02  0.29999999455E+02 0.  0.
         12    1    1    2    0    0 -0.23967097032E+02  0.13826997007E+02 -0.29791913432E+02  0.40659140329E+02  0.00000000000E+00 0. -1.
         11    1    3    3    0    0  0.15557434593E+02  0.20324099709E+01  0.17986832592E+02  0.23868192398E+02  0.51100000000E-03 0. -1.
        -11    1    3    3    0    0  0.44217762773E+01 -0.13162529420E+02 -0.28362114760E-01  0.13885427284E+02  0.51100000000E-03 0.  1.
         12    1    3    3    0    0  0.39878861616E+01 -0.26968775577E+01  0.11833442955E+02  0.12775239989E+02  0.00000000000E+00 0. -1.
</event>
<event>
 7    1  0.5946946E-013  0.5052885E+02  0.7816164E-02  0.1300439E+00
        -11   -1    0    0    0    0  0.00000000000E+00  0.00000000000E+00  0.45593999997E+02  0.45594000000E+02  0.51100000000E-03 0. -1.
         11   -1    0    0    0    0 -0.00000000000E+00 -0.00000000000E+00 -0.45593999997E+02  0.45594000000E+02  0.51100000000E-03 0.  1.
    9900012    2    1    2    0    0 -0.28787882053E+02  0.27142516130E+02  0.93652546349E+01  0.50528851837E+02  0.29999975645E+02 0.  0.
         12    1    1    2    0    0  0.28787882053E+02 -0.27142516130E+02 -0.93652546349E+01  0.40659148163E+02  0.00000000000E+00 0. -1.
         11    1    3    3    0    0 -0.50050635834E+01  0.10481368897E+02 -0.94321216694E+01  0.14962442143E+02  0.51100000000E-03 0. -1.
        -11    1    3    3    0    0 -0.33128178278E+01  0.27532170203E+01 -0.28356258851E+00  0.43168708486E+01  0.51100000000E-03 0.  1.
         12    1    3    3    0    0 -0.20470000641E+02  0.13907930212E+02  0.19080938893E+02  0.31249538846E+02  0.00000000000E+00 0. -1.
</event>
<event>
 7    1  0.5946946E-013  0.5052886E+02  0.7816164E-02  0.1300439E+00
        -11   -1    0    0    0    0  0.00000000000E+00  0.00000000000E+00  0.45593999997E+02  0.45594000000E+02  0.51100000000E-03 0.  1.
         11   -1    0    0    0    0 -0.00000000000E+00 -0.00000000000E+00 -0.45593999997E+02  0.45594000000E+02  0.51100000000E-03 0. -1.
    9900012    2    1    2    0    0  0.25991452408E+02  0.27023049359E+02  0.15727830517E+02  0.50528862679E+02  0.30000008600E+02 0.  0.
         12    1    1    2    0    0 -0.25991452408E+02 -0.27023049359E+02 -0.15727830517E+02  0.40659137321E+02  0.00000000000E+00 0. -1.
         11    1    3    3    0    0 -0.11277285817E+01 -0.98315222604E+00 -0.53105150021E+01  0.55172393370E+01  0.51100000000E-03 0. -1.
        -11    1    3    3    0    0  0.32168801925E+01  0.79044189661E+01  0.52043362942E+01  0.99956627538E+01  0.51100000000E-03 0.  1.
         12    1    3    3    0    0  0.23902300797E+02  0.20101782619E+02  0.15834009224E+02  0.35015960589E+02  0.00000000000E+00 0. -1.
</event>
<event>
 7    1  0.5946946E-013  0.5052884E+02  0.7816164E-02  0.1300439E+00
        -11   -1    0    0    0    0  0.00000000000E+00  0.00000000000E+00  0.45593999997E+02  0.45594000000E+02  0.51100000000E-03 0.  1.
         11   -1    0    0    0    0 -0.00000000000E+00 -0.00000000000E+00 -0.45593999997E+02  0.45594000000E+02  0.51100000000E-03 0. -1.
    9900012    2    1    2    0    0 -0.18333168110E+02  0.22672596943E+02  0.28337528036E+02  0.50528841127E+02  0.29999943089E+02 0.  0.
         12    1    1    2    0    0  0.18333168110E+02 -0.22672596943E+02 -0.28337528036E+02  0.40659158873E+02  0.00000000000E+00 0. -1.
         11    1    3    3    0    0  0.19741667610E+01  0.11286895332E+02  0.15038245991E+02  0.18906088526E+02  0.51100000000E-03 0. -1.
        -11    1    3    3    0    0 -0.88008005366E+01 -0.13903155515E+01  0.11184084190E+02  0.14299328895E+02  0.51100000000E-03 0.  1.
         12    1    3    3    0    0 -0.11506534334E+02  0.12776017163E+02  0.21151978557E+01  0.17323423706E+02  0.00000000000E+00 0. -1.
</event>
<event>
 7    1  0.5946946E-013  0.5052887E+02  0.7816164E-02  0.1300439E+00
        -11   -1    0    0    0    0  0.00000000000E+00  0.00000000000E+00  0.45593999997E+02  0.45594000000E+02  0.51100000000E-03 0. -1.
         11   -1    0    0    0    0 -0.00000000000E+00 -0.00000000000E+00 -0.45593999997E+02  0.45594000000E+02  0.51100000000E-03 0.  1.
    9900012    2    1    2    0    0 -0.31439442039E+02 -0.24200411355E+02 -0.88919520014E+01  0.50528865283E+02  0.30000016516E+02 0.  0.
         12    1    1    2    0    0  0.31439442039E+02  0.24200411355E+02  0.88919520014E+01  0.40659134717E+02  0.00000000000E+00 0. -1.
         11    1    3    3    0    0 -0.26506998931E+01  0.79594146913E+00  0.76883642768E+01  0.81713327101E+01  0.51100000000E-03 0. -1.
        -11    1    3    3    0    0 -0.19798869088E+02 -0.15463400338E+02 -0.14736537500E+02  0.29125203946E+02  0.51100000000E-03 0.  1.
         12    1    3    3    0    0 -0.89898730582E+01 -0.95329524865E+01 -0.18437787786E+01  0.13232328627E+02  0.00000000000E+00 0. -1.
</event>
<event>
 7    1  0.5946946E-013  0.5052885E+02  0.7816164E-02  0.1300439E+00
        -11   -1    0    0    0    0  0.00000000000E+00  0.00000000000E+00  0.45593999997E+02  0.45594000000E+02  0.51100000000E-03 0.  1.
         11   -1    0    0    0    0 -0.00000000000E+00 -0.00000000000E+00 -0.45593999997E+02  0.45594000000E+02  0.51100000000E-03 0. -1.
    9900012    2    1    2    0    0  0.14988699444E+02 -0.37479280229E+02  0.48794104186E+01  0.50528853384E+02  0.29999980346E+02 0.  0.
         12    1    1    2    0    0 -0.14988699444E+02  0.37479280229E+02 -0.48794104186E+01  0.40659146616E+02  0.00000000000E+00 0. -1.
         11    1    3    3    0    0  0.15349073506E+02 -0.36979630151E+01  0.64374415448E+00  0.15801373192E+02  0.51100000000E-03 0. -1.
        -11    1    3    3    0    0 -0.11638913875E+01 -0.23390571445E+02 -0.15134632047E+00  0.23419999608E+02  0.51100000000E-03 0.  1.
         12    1    3    3    0    0  0.80351732513E+00 -0.10390745769E+02  0.43870125846E+01  0.11307480584E+02  0.00000000000E+00 0. -1.
</event>
<event>
 7    1  0.5946946E-013  0.5052887E+02  0.7816164E-02  0.1300439E+00
        -11   -1    0    0    0    0  0.00000000000E+00  0.00000000000E+00  0.45593999997E+02  0.45594000000E+02  0.51100000000E-03 0. -1.
         11   -1    0    0    0    0 -0.00000000000E+00 -0.00000000000E+00 -0.45593999997E+02  0.45594000000E+02  0.51100000000E-03 0.  1.
    9900012    2    1    2    0    0 -0.87623418838E+01 -0.36410744474E+02 -0.15831739142E+02  0.50528869258E+02  0.30000028597E+02 0.  0.
         12    1    1    2    0    0  0.87623418838E+01  0.36410744474E+02  0.15831739142E+02  0.40659130742E+02  0.00000000000E+00 0. -1.
         11    1    3    3    0    0  0.36870334488E+01 -0.82534297594E+01 -0.81477315158E+01  0.12169586992E+02  0.51100000000E-03 0. -1.
        -11    1    3    3    0    0 -0.10530462971E+02 -0.13638898427E+01 -0.91677191388E+00  0.10657922729E+02  0.51100000000E-03 0.  1.
        -12    1    3    3    0    0 -0.19189123612E+01 -0.26793424872E+02 -0.67672357125E+01  0.27701359537E+02  0.00000000000E+00 0.  1.
</event>
<event>
 7    1  0.5946946E-013  0.5052886E+02  0.7816164E-02  0.1300439E+00
        -11   -1    0    0    0    0  0.00000000000E+00  0.00000000000E+00  0.45593999997E+02  0.45594000000E+02  0.51100000000E-03 0. -1.
         11   -1    0    0    0    0 -0.00000000000E+00 -0.00000000000E+00 -0.45593999997E+02  0.45594000000E+02  0.51100000000E-03 0.  1.
    9900012    2    1    2    0    0  0.38992602584E+02  0.59351504572E+01 -0.98750589141E+01  0.50528857661E+02  0.29999993346E+02 0.  0.
         12    1    1    2    0    0 -0.38992602584E+02 -0.59351504572E+01  0.98750589141E+01  0.40659142339E+02  0.00000000000E+00 0. -1.
         11    1    3    3    0    0  0.10726209487E+02 -0.32126304716E+01  0.33214326620E+01  0.11679232839E+02  0.51100000000E-03 0. -1.
        -11    1    3    3    0    0  0.14646748942E+02  0.13728695183E+02 -0.13973215881E+02  0.24459253634E+02  0.51100000000E-03 0.  1.
        -12    1    3    3    0    0  0.13619644154E+02 -0.45809142541E+01  0.77672430493E+00  0.14390371188E+02  0.00000000000E+00 0.  1.
</event>
<event>
 7    1  0.5946946E-013  0.5052887E+02  0.7816164E-02  0.1300439E+00
        -11   -1    0    0    0    0  0.00000000000E+00  0.00000000000E+00  0.45593999997E+02  0.45594000000E+02  0.51100000000E-03 0. -1.
         11   -1    0    0    0    0 -0.00000000000E+00 -0.00000000000E+00 -0.45593999997E+02  0.45594000000E+02  0.51100000000E-03 0.  1.
    9900012    2    1    2    0    0  0.26212657258E+02 -0.25613809790E+02 -0.17606643908E+02  0.50528873568E+02  0.30000041698E+02 0.  0.
         12    1    1    2    0    0 -0.26212657258E+02  0.25613809790E+02  0.17606643908E+02  0.40659126432E+02  0.00000000000E+00 0. -1.
         11    1    3    3    0    0  0.31169371158E+01 -0.53373582378E+01  0.81891718473E+01  0.10259884295E+02  0.51100000000E-03 0. -1.
        -11    1    3    3    0    0  0.18313113012E+02 -0.16432980819E+02 -0.22302311443E+02  0.33208523948E+02  0.51100000000E-03 0.  1.
         12    1    3    3    0    0  0.47826071299E+01 -0.38434707334E+01 -0.34935043118E+01  0.70604653256E+01  0.00000000000E+00 0. -1.
</event>
<event>
 7    1  0.5946946E-013  0.5052886E+02  0.7816164E-02  0.1300439E+00
        -11   -1    0    0    0    0  0.00000000000E+00  0.00000000000E+00  0.45593999997E+02  0.45594000000E+02  0.51100000000E-03 0.  1.
         11   -1    0    0    0    0 -0.00000000000E+00 -0.00000000000E+00 -0.45593999997E+02  0.45594000000E+02  0.51100000000E-03 0. -1.
    9900012    2    1    2    0    0 -0.34555262777E+02  0.49805666815E+01  0.20839706368E+02  0.50528860910E+02  0.30000003222E+02 0.  0.
         12    1    1    2    0    0  0.34555262777E+02 -0.49805666815E+01 -0.20839706368E+02  0.40659139090E+02  0.00000000000E+00 0. -1.
         11    1    3    3    0    0 -0.68357381296E+01 -0.11363775734E+02  0.46709230216E+01  0.14059880399E+02  0.51100000000E-03 0. -1.
        -11    1    3    3    0    0 -0.11991708369E+02  0.94466833631E+01  0.53724559113E+01  0.16183453863E+02  0.51100000000E-03 0.  1.
         12    1    3    3    0    0 -0.15727816278E+02  0.68976590519E+01  0.10796327435E+02  0.20285526647E+02  0.00000000000E+00 0. -1.
</event>
<event>
 7    1  0.5946946E-013  0.5052886E+02  0.7816164E-02  0.1300439E+00
        -11   -1    0    0    0    0  0.00000000000E+00  0.00000000000E+00  0.45593999997E+02  0.45594000000E+02  0.51100000000E-03 0.  1.
         11   -1    0    0    0    0 -0.00000000000E+00 -0.00000000000E+00 -0.45593999997E+02  0.45594000000E+02  0.51100000000E-03 0. -1.
    9900012    2    1    2    0    0 -0.29338785186E+01 -0.25968224476E+02  0.31148185385E+02  0.50528858613E+02  0.29999996239E+02 0.  0.
         12    1    1    2    0    0  0.29338785186E+01  0.25968224476E+02 -0.31148185385E+02  0.40659141387E+02  0.00000000000E+00 0. -1.
         11    1    3    3    0    0 -0.10580923568E+02  0.71489664071E+00  0.10878045670E+02  0.15192066964E+02  0.51100000000E-03 0. -1.
        -11    1    3    3    0    0  0.66340028776E+00 -0.16842398602E+02  0.12498156629E+02  0.20983574767E+02  0.51100000000E-03 0.  1.
         12    1    3    3    0    0  0.69836447621E+01 -0.98407225145E+01  0.77719830859E+01  0.14353216882E+02  0.00000000000E+00 0. -1.
</event>
<event>
 7    1  0.5946946E-013  0.5052885E+02  0.7816164E-02  0.1300439E+00
        -11   -1    0    0    0    0  0.00000000000E+00  0.00000000000E+00  0.45593999997E+02  0.45594000000E+02  0.51100000000E-03 0.  1.
         11   -1    0    0    0    0 -0.00000000000E+00 -0.00000000000E+00 -0.45593999997E+02  0.45594000000E+02  0.51100000000E-03 0. -1.
    9900012    2    1    2    0    0  0.88976122801E+01  0.20093030921E+02  0.34209190861E+02  0.50528854224E+02  0.29999982899E+02 0.  0.
         12    1    1    2    0    0 -0.88976122801E+01 -0.20093030921E+02 -0.34209190861E+02  0.40659145776E+02  0.00000000000E+00 0. -1.
         11    1    3    3    0    0  0.12365215753E+02  0.20087230110E+02  0.31342089046E+02  0.39226546115E+02  0.51100000000E-03 0. -1.
        -11    1    3    3    0    0 -0.25203479473E+01  0.49300518009E+00  0.67783867214E+01  0.72485677681E+01  0.51100000000E-03 0.  1.
         12    1    3    3    0    0 -0.94725552557E+00 -0.48720436893E+00 -0.39112849065E+01  0.40537403404E+01  0.00000000000E+00 0. -1.
</event>
<event>
 7    1  0.5946946E-013  0.5052886E+02  0.7816164E-02  0.1300439E+00
        -11   -1    0    0    0    0  0.00000000000E+00  0.00000000000E+00  0.45593999997E+02  0.45594000000E+02  0.51100000000E-03 0.  1.
         11   -1    0    0    0    0 -0.00000000000E+00 -0.00000000000E+00 -0.45593999997E+02  0.45594000000E+02  0.51100000000E-03 0. -1.
    9900012    2    1    2    0    0  0.19606717334E+02 -0.31961640433E+02  0.15722463657E+02  0.50528859734E+02  0.29999999646E+02 0.  0.
         12    1    1    2    0    0 -0.19606717334E+02  0.31961640433E+02 -0.15722463657E+02  0.40659140266E+02  0.00000000000E+00 0. -1.
         11    1    3    3    0    0  0.20595525501E+02 -0.62368541108E+01  0.30877421488E+01  0.21739553163E+02  0.51100000000E-03 0. -1.
        -11    1    3    3    0    0  0.77925171621E+00 -0.12767775599E+02  0.62195539103E+01  0.14223437632E+02  0.51100000000E-03 0.  1.
         12    1    3    3    0    0 -0.17680598834E+01 -0.12957010723E+02  0.64151675979E+01  0.14565868938E+02  0.00000000000E+00 0. -1.
</event>
<event>
 7    1  0.5946946E-013  0.5052888E+02  0.7816164E-02  0.1300439E+00
        -11   -1    0    0    0    0  0.00000000000E+00  0.00000000000E+00  0.45593999997E+02  0.45594000000E+02  0.51100000000E-03 0.  1.
         11   -1    0    0    0    0 -0.00000000000E+00 -0.00000000000E+00 -0.45593999997E+02  0.45594000000E+02  0.51100000000E-03 0. -1.
    9900012    2    1    2    0    0  0.45590754010E+01  0.28945291706E+02  0.28187746686E+02  0.50528878715E+02  0.30000057341E+02 0.  0.
         12    1    1    2    0    0 -0.45590754010E+01 -0.28945291706E+02 -0.28187746686E+02  0.40659121285E+02  0.00000000000E+00 0. -1.
         11    1    3    3    0    0 -0.65235621401E+00 -0.34371970275E+01 -0.77666199169E+00  0.35837265724E+01  0.51100000000E-03 0. -1.
        -11    1    3    3    0    0  0.60471698630E+01  0.29752727686E+02  0.31094907154E+02  0.43459018848E+02  0.51100000000E-03 0.  1.
        -12    1    3    3    0    0 -0.83573824796E+00  0.26297610479E+01 -0.21304984759E+01  0.34861332941E+01  0.00000000000E+00 0.  1.
</event>
<event>
 7    1  0.5946946E-013  0.5052889E+02  0.7816164E-02  0.1300439E+00
        -11   -1    0    0    0    0  0.00000000000E+00  0.00000000000E+00  0.45593999997E+02  0.45594000000E+02  0.51100000000E-03 0. -1.
         11   -1    0    0    0    0 -0.00000000000E+00 -0.00000000000E+00 -0.45593999997E+02  0.45594000000E+02  0.51100000000E-03 0.  1.
    9900012    2    1    2    0    0 -0.32294217913E+02 -0.24116308501E+02 -0.53526208886E+01  0.50528887900E+02  0.30000085262E+02 0.  0.
         12    1    1    2    0    0  0.32294217913E+02  0.24116308501E+02  0.53526208886E+01  0.40659112100E+02  0.00000000000E+00 0. -1.
         11    1    3    3    0    0 -0.16719740707E+02 -0.70662752930E+01 -0.15302936962E+02  0.23741563886E+02  0.51100000000E-03 0. -1.
        -11    1    3    3    0    0 -0.38354333641E+01 -0.28517570087E+01 -0.16036227614E+01  0.50412967924E+01  0.51100000000E-03 0.  1.
         12    1    3    3    0    0 -0.11739043842E+02 -0.14198276199E+02  0.11553938835E+02  0.21746027222E+02  0.00000000000E+00 0. -1.
</event>
<event>
 7    1  0.5946946E-013  0.5052885E+02  0.7816164E-02  0.1300439E+00
        -11   -1    0    0    0    0  0.00000000000E+00  0.00000000000E+00  0.45593999997E+02  0.45594000000E+02  0.51100000000E-03 0. -1.
         11   -1    0    0    0    0 -0.00000000000E+00 -0.00000000000E+00 -0.45593999997E+02  0.45594000000E+02  0.51100000000E-03 0.  1.
    9900012    2    1    2    0    0 -0.36019067638E+02 -0.18803125026E+02 -0.14953376256E+01  0.50528846309E+02  0.29999958841E+02 0.  0.
         12    1    1    2    0    0  0.36019067638E+02  0.18803125026E+02  0.14953376256E+01  0.40659153691E+02  0.00000000000E+00 0. -1.
         11    1    3    3    0    0  0.17089729018E+01  0.36260037458E+01  0.17626244125E+01  0.43789652459E+01  0.51100000000E-03 0. -1.
        -11    1    3    3    0    0 -0.32121488193E+02 -0.14714712373E+02  0.17569792317E+01  0.35375128837E+02  0.51100000000E-03 0.  1.
        -12    1    3    3    0    0 -0.56065523469E+01 -0.77144163991E+01 -0.50149412697E+01  0.10774752226E+02  0.00000000000E+00 0.  1.
</event>
<event>
 7    1  0.5946946E-013  0.5052887E+02  0.7816164E-02  0.1300439E+00
        -11   -1    0    0    0    0  0.00000000000E+00  0.00000000000E+00  0.45593999997E+02  0.45594000000E+02  0.51100000000E-03 0.  1.
         11   -1    0    0    0    0 -0.00000000000E+00 -0.00000000000E+00 -0.45593999997E+02  0.45594000000E+02  0.51100000000E-03 0. -1.
    9900012    2    1    2    0    0 -0.37124834910E+02  0.12143598237E+01  0.16535929931E+02  0.50528867993E+02  0.30000024752E+02 0.  0.
         12    1    1    2    0    0  0.37124834910E+02 -0.12143598237E+01 -0.16535929931E+02  0.40659132007E+02  0.00000000000E+00 0. -1.
         11    1    3    3    0    0 -0.12261532272E+02  0.18004100338E+01  0.17939042547E+02  0.21803575343E+02  0.51100000000E-03 0. -1.
        -11    1    3    3    0    0 -0.16113395599E+02  0.52544937479E+01 -0.48943003292E+01  0.17641014660E+02  0.51100000000E-03 0.  1.
        -12    1    3    3    0    0 -0.87499070386E+01 -0.58405439581E+01  0.34911877124E+01  0.11084277990E+02  0.00000000000E+00 0.  1.
</event>
<event>
 7    1  0.5946946E-013  0.5052886E+02  0.7816164E-02  0.1300439E+00
        -11   -1    0    0    0    0  0.00000000000E+00  0.00000000000E+00  0.45593999997E+02  0.45594000000E+02  0.51100000000E-03 0.  1.
         11   -1    0    0    0    0 -0.00000000000E+00 -0.00000000000E+00 -0.45593999997E+02  0.45594000000E+02  0.51100000000E-03 0. -1.
    9900012    2    1    2    0    0  0.30496064438E+02  0.25727976090E+02 -0.78247491421E+01  0.50528863277E+02  0.30000010418E+02 0.  0.
         12    1    1    2    0    0 -0.30496064438E+02 -0.25727976090E+02  0.78247491421E+01  0.40659136723E+02  0.00000000000E+00 0. -1.
         11    1    3    3    0    0  0.66024400049E+00  0.12906255065E+02 -0.11269287816E+02  0.17146550384E+02  0.51100000000E-03 0. -1.
        -11    1    3    3    0    0  0.26325505793E+02  0.12598002655E+02  0.11990579800E+01  0.29209239402E+02  0.51100000000E-03 0.  1.
        -12    1    3    3    0    0  0.35103146444E+01  0.22371837058E+00  0.22454806943E+01  0.41730734909E+01  0.00000000000E+00 0.  1.
</event>
<event>
 7    1  0.5946946E-013  0.5052886E+02  0.7816164E-02  0.1300439E+00
        -11   -1    0    0    0    0  0.00000000000E+00  0.00000000000E+00  0.45593999997E+02  0.45594000000E+02  0.51100000000E-03 0.  1.
         11   -1    0    0    0    0 -0.00000000000E+00 -0.00000000000E+00 -0.45593999997E+02  0.45594000000E+02  0.51100000000E-03 0. -1.
    9900012    2    1    2    0    0  0.19004279416E+02  0.35490365415E+02  0.56953340050E+01  0.50528862001E+02  0.30000006538E+02 0.  0.
         12    1    1    2    0    0 -0.19004279416E+02 -0.35490365415E+02 -0.56953340050E+01  0.40659137999E+02  0.00000000000E+00 0. -1.
         11    1    3    3    0    0  0.17406088751E+02  0.14615231707E+02  0.13949188178E+01  0.22771094006E+02  0.51100000000E-03 0. -1.
        -11    1    3    3    0    0  0.69113240044E+00  0.13127958916E+02  0.11256189734E+02  0.17306726349E+02  0.51100000000E-03 0.  1.
         12    1    3    3    0    0  0.90705826513E+00  0.77471747914E+01 -0.69557745473E+01  0.10451041647E+02  0.00000000000E+00 0. -1.
</event>
<event>
 7    1  0.5946946E-013  0.5052887E+02  0.7816164E-02  0.1300439E+00
        -11   -1    0    0    0    0  0.00000000000E+00  0.00000000000E+00  0.45593999997E+02  0.45594000000E+02  0.51100000000E-03 0.  1.
         11   -1    0    0    0    0 -0.00000000000E+00 -0.00000000000E+00 -0.45593999997E+02  0.45594000000E+02  0.51100000000E-03 0. -1.
    9900012    2    1    2    0    0 -0.38594952783E+02  0.74868138724E+01  0.10370230908E+02  0.50528874931E+02  0.30000045842E+02 0.  0.
         12    1    1    2    0    0  0.38594952783E+02 -0.74868138724E+01 -0.10370230908E+02  0.40659125069E+02  0.00000000000E+00 0. -1.
         11    1    3    3    0    0 -0.18410775544E+02  0.13335347113E+02 -0.60981177590E+00  0.22741152332E+02  0.51100000000E-03 0. -1.
        -11    1    3    3    0    0  0.18341357849E+01 -0.24294218062E+01  0.25261848778E+01  0.39557242937E+01  0.51100000000E-03 0.  1.
        -12    1    3    3    0    0 -0.22018313024E+02 -0.34191114346E+01  0.84538578059E+01  0.23831998305E+02  0.00000000000E+00 0.  1.
</event>
<event>
 7    1  0.5946946E-013  0.5052886E+02  0.7816164E-02  0.1300439E+00
        -11   -1    0    0    0    0  0.00000000000E+00  0.00000000000E+00  0.45593999997E+02  0.45594000000E+02  0.51100000000E-03 0. -1.
         11   -1    0    0    0    0 -0.00000000000E+00 -0.00000000000E+00 -0.45593999997E+02  0.45594000000E+02  0.51100000000E-03 0.  1.
    9900012    2    1    2    0    0 -0.37834801251E+02 -0.88522641368E+00 -0.14863045905E+02  0.50528856562E+02  0.29999990006E+02 0.  0.
         12    1    1    2    0    0  0.37834801251E+02  0.88522641368E+00  0.14863045905E+02  0.40659143438E+02  0.00000000000E+00 0. -1.
         11    1    3    3    0    0  0.20463850850E+01 -0.44736925325E+01  0.15835569153E+01  0.51681011558E+01  0.51100000000E-03 0. -1.
        -11    1    3    3    0    0 -0.25908511755E+02  0.31360019384E+01 -0.35449632466E+01  0.26337278792E+02  0.51100000000E-03 0.  1.
         12    1    3    3    0    0 -0.13972674581E+02  0.45246418036E+00 -0.12901639574E+02  0.19023476614E+02  0.00000000000E+00 0. -1.
</event>
<event>
 7    1  0.5946946E-013  0.5052886E+02  0.7816164E-02  0.1300439E+00
        -11   -1    0    0    0    0  0.00000000000E+00  0.00000000000E+00  0.45593999997E+02  0.45594000000E+02  0.51100000000E-03 0. -1.
         11   -1    0    0    0    0 -0.00000000000E+00 -0.00000000000E+00 -0.45593999997E+02  0.45594000000E+02  0.51100000000E-03 0.  1.
    9900012    2    1    2    0    0  0.40325906283E+01  0.39123492062E+02  0.10308050844E+02  0.50528864119E+02  0.30000012978E+02 0.  0.
         12    1    1    2    0    0 -0.40325906283E+01 -0.39123492062E+02 -0.10308050844E+02  0.40659135881E+02  0.00000000000E+00 0. -1.
         11    1    3    3    0    0  0.92986222566E+01  0.40115544345E+01  0.12371241233E+01  0.10202324304E+02  0.51100000000E-03 0. -1.
        -11    1    3    3    0    0 -0.10416125555E+02  0.22995834000E+02  0.18537689905E+01  0.25312852717E+02  0.51100000000E-03 0.  1.
        -12    1    3    3    0    0  0.51500939268E+01  0.12116103628E+02  0.72171577306E+01  0.15013687099E+02  0.00000000000E+00 0.  1.
</event>
<event>
 7    1  0.5946946E-013  0.5052875E+02  0.7816164E-02  0.1300439E+00
        -11   -1    0    0    0    0  0.00000000000E+00  0.00000000000E+00  0.45593999997E+02  0.45594000000E+02  0.51100000000E-03 0.  1.
         11   -1    0    0    0    0 -0.00000000000E+00 -0.00000000000E+00 -0.45593999997E+02  0.45594000000E+02  0.51100000000E-03 0. -1.
    9900012    2    1    2    0    0  0.37496459552E+01 -0.25193438905E+02  0.31692355307E+02  0.50528750209E+02  0.29999666734E+02 0.  0.
         12    1    1    2    0    0 -0.37496459552E+01  0.25193438905E+02 -0.31692355307E+02  0.40659249791E+02  0.00000000000E+00 0. -1.
         11    1    3    3    0    0  0.98294410928E+01 -0.99824679896E+01  0.97034897013E+00  0.14043117772E+02  0.51100000000E-03 0. -1.
        -11    1    3    3    0    0 -0.90923903310E+01 -0.94866797378E+01  0.22020501586E+02  0.25643150055E+02  0.51100000000E-03 0.  1.
         12    1    3    3    0    0  0.30125951934E+01 -0.57242911775E+01  0.87015047507E+01  0.10842482382E+02  0.00000000000E+00 0. -1.
</event>
<event>
 7    1  0.5946946E-013  0.5052885E+02  0.7816164E-02  0.1300439E+00
        -11   -1    0    0    0    0  0.00000000000E+00  0.00000000000E+00  0.45593999997E+02  0.45594000000E+02  0.51100000000E-03 0. -1.
         11   -1    0    0    0    0 -0.00000000000E+00 -0.00000000000E+00 -0.45593999997E+02  0.45594000000E+02  0.51100000000E-03 0.  1.
    9900012    2    1    2    0    0  0.33145840425E+02 -0.12287091203E+02 -0.20088481156E+02  0.50528850687E+02  0.29999972148E+02 0.  0.
         12    1    1    2    0    0 -0.33145840425E+02  0.12287091203E+02  0.20088481156E+02  0.40659149313E+02  0.00000000000E+00 0. -1.
         11    1    3    3    0    0 -0.17760383634E+01  0.20348126707E+01  0.17561199283E+01  0.32216040006E+01  0.51100000000E-03 0. -1.
        -11    1    3    3    0    0  0.30454554181E+02 -0.13125311822E+02 -0.25151721670E+02  0.41621662438E+02  0.51100000000E-03 0.  1.
        -12    1    3    3    0    0  0.44673246066E+01 -0.11965920519E+01  0.33071205857E+01  0.56855842486E+01  0.00000000000E+00 0.  1.
</event>
<event>
 7    1  0.5946946E-013  0.5052886E+02  0.7816164E-02  0.1300439E+00
        -11   -1    0    0    0    0  0.00000000000E+00  0.00000000000E+00  0.45593999997E+02  0.45594000000E+02  0.51100000000E-03 0. -1.
         11   -1    0    0    0    0 -0.00000000000E+00 -0.00000000000E+00 -0.45593999997E+02  0.45594000000E+02  0.51100000000E-03 0.  1.
    9900012    2    1    2    0    0  0.20551444292E+02 -0.17712934421E+02 -0.30282933236E+02  0.50528856457E+02  0.29999989687E+02 0.  0.
         12    1    1    2    0    0 -0.20551444292E+02  0.17712934421E+02  0.30282933236E+02  0.40659143543E+02  0.00000000000E+00 0. -1.
         11    1    3    3    0    0  0.14865491750E+01 -0.73735164150E+01 -0.24649657184E+01  0.79154677074E+01  0.51100000000E-03 0. -1.
        -11    1    3    3    0    0  0.74934615123E+01  0.57181224703E+01 -0.18444559190E+02  0.20713537940E+02  0.51100000000E-03 0.  1.
        -12    1    3    3    0    0  0.11571433605E+02 -0.16057540476E+02 -0.93734083274E+01  0.21899850810E+02  0.00000000000E+00 0.  1.
</event>
<event>
 7    1  0.5946946E-013  0.5052887E+02  0.7816164E-02  0.1300439E+00
        -11   -1    0    0    0    0  0.00000000000E+00  0.00000000000E+00  0.45593999997E+02  0.45594000000E+02  0.51100000000E-03 0. -1.
         11   -1    0    0    0    0 -0.00000000000E+00 -0.00000000000E+00 -0.45593999997E+02  0.45594000000E+02  0.51100000000E-03 0.  1.
    9900012    2    1    2    0    0 -0.30528958872E+02  0.56203913828E+01 -0.26259456627E+02  0.50528865830E+02  0.30000018177E+02 0.  0.
         12    1    1    2    0    0  0.30528958872E+02 -0.56203913828E+01  0.26259456627E+02  0.40659134170E+02  0.00000000000E+00 0. -1.
         11    1    3    3    0    0  0.41214706867E+01  0.45006276444E+00 -0.33717598799E+01  0.53439537856E+01  0.51100000000E-03 0. -1.
        -11    1    3    3    0    0 -0.31377977856E+02 -0.32419810173E+00 -0.22801603202E+02  0.38789118417E+02  0.51100000000E-03 0.  1.
        -12    1    3    3    0    0 -0.32724517027E+01  0.54945267201E+01 -0.86093544922E-01  0.63957936273E+01  0.00000000000E+00 0.  1.
</event>
<event>
 7    1  0.5946946E-013  0.5052884E+02  0.7816164E-02  0.1300439E+00
        -11   -1    0    0    0    0  0.00000000000E+00  0.00000000000E+00  0.45593999997E+02  0.45594000000E+02  0.51100000000E-03 0.  1.
         11   -1    0    0    0    0 -0.00000000000E+00 -0.00000000000E+00 -0.45593999997E+02  0.45594000000E+02  0.51100000000E-03 0. -1.
    9900012    2    1    2    0    0  0.25461760545E+02  0.13611683034E+02  0.28628449230E+02  0.50528840265E+02  0.29999940470E+02 0.  0.
         12    1    1    2    0    0 -0.25461760545E+02 -0.13611683034E+02 -0.28628449230E+02  0.40659159735E+02  0.00000000000E+00 0. -1.
         11    1    3    3    0    0 -0.11628645988E+01  0.23094715055E+00  0.18155999476E+02  0.18194667018E+02  0.51100000000E-03 0. -1.
        -11    1    3    3    0    0  0.97931912214E+01  0.14890433943E+01  0.44831565076E+01  0.10873018765E+02  0.51100000000E-03 0.  1.
         12    1    3    3    0    0  0.16831433922E+02  0.11891692489E+02  0.59892932458E+01  0.21461154482E+02  0.00000000000E+00 0. -1.
</event>
<event>
 7    1  0.5946946E-013  0.5052886E+02  0.7816164E-02  0.1300439E+00
        -11   -1    0    0    0    0  0.00000000000E+00  0.00000000000E+00  0.45593999997E+02  0.45594000000E+02  0.51100000000E-03 0. -1.
         11   -1    0    0    0    0 -0.00000000000E+00 -0.00000000000E+00 -0.45593999997E+02  0.45594000000E+02  0.51100000000E-03 0.  1.
    9900012    2    1    2    0    0  0.38348430055E+02  0.38122223808E+01 -0.12962673130E+02  0.50528855619E+02  0.29999987139E+02 0.  0.
         12    1    1    2    0    0 -0.38348430055E+02 -0.38122223808E+01  0.12962673130E+02  0.40659144381E+02  0.00000000000E+00 0. -1.
         11    1    3    3    0    0  0.14000137455E+01  0.65618501444E+01 -0.91180546023E+01  0.11320637606E+02  0.51100000000E-03 0. -1.
        -11    1    3    3    0    0  0.50161515053E+01 -0.47529482719E+01  0.45650969713E+00  0.69253660239E+01  0.51100000000E-03 0.  1.
         12    1    3    3    0    0  0.31932264804E+02  0.20033205084E+01 -0.43011282254E+01  0.32282851989E+02  0.00000000000E+00 0. -1.
</event>
<event>
 7    1  0.5946946E-013  0.5052886E+02  0.7816164E-02  0.1300439E+00
        -11   -1    0    0    0    0  0.00000000000E+00  0.00000000000E+00  0.45593999997E+02  0.45594000000E+02  0.51100000000E-03 0. -1.
         11   -1    0    0    0    0 -0.00000000000E+00 -0.00000000000E+00 -0.45593999997E+02  0.45594000000E+02  0.51100000000E-03 0.  1.
    9900012    2    1    2    0    0 -0.19712196275E+02  0.27313486066E+02 -0.22772102968E+02  0.50528857404E+02  0.29999992565E+02 0.  0.
         12    1    1    2    0    0  0.19712196275E+02 -0.27313486066E+02  0.22772102968E+02  0.40659142596E+02  0.00000000000E+00 0. -1.
         11    1    3    3    0    0  0.50097749931E+01  0.84190666164E+01 -0.12992462937E+02  0.16272142502E+02  0.51100000000E-03 0. -1.
        -11    1    3    3    0    0 -0.72375934747E+01  0.10909654592E+02 -0.10149812017E+01  0.13131394051E+02  0.51100000000E-03 0.  1.
         12    1    3    3    0    0 -0.17484377794E+02  0.79847648577E+01 -0.87646588297E+01  0.21125320851E+02  0.00000000000E+00 0. -1.
</event>
<event>
 7    1  0.5946946E-013  0.5052884E+02  0.7816164E-02  0.1300439E+00
        -11   -1    0    0    0    0  0.00000000000E+00  0.00000000000E+00  0.45593999997E+02  0.45594000000E+02  0.51100000000E-03 0.  1.
         11   -1    0    0    0    0 -0.00000000000E+00 -0.00000000000E+00 -0.45593999997E+02  0.45594000000E+02  0.51100000000E-03 0. -1.
    9900012    2    1    2    0    0 -0.87549845645E+01  0.11391353540E+02  0.38036223953E+02  0.50528843309E+02  0.29999949722E+02 0.  0.
         12    1    1    2    0    0  0.87549845645E+01 -0.11391353540E+02 -0.38036223953E+02  0.40659156691E+02  0.00000000000E+00 0. -1.
         11    1    3    3    0    0  0.27029335244E+01 -0.22041592417E+01 -0.65497485767E+00  0.35486842527E+01  0.51100000000E-03 0. -1.
        -11    1    3    3    0    0 -0.13251201921E+02  0.14694062303E+01  0.26641869806E+02  0.29791655443E+02  0.51100000000E-03 0.  1.
        -12    1    3    3    0    0  0.17932838318E+01  0.12126106551E+02  0.12049329006E+02  0.17188503614E+02  0.00000000000E+00 0.  1.
</event>
<event>
 7    1  0.5946946E-013  0.5052886E+02  0.7816164E-02  0.1300439E+00
        -11   -1    0    0    0    0  0.00000000000E+00  0.00000000000E+00  0.45593999997E+02  0.45594000000E+02  0.51100000000E-03 0.  1.
         11   -1    0    0    0    0 -0.00000000000E+00 -0.00000000000E+00 -0.45593999997E+02  0.45594000000E+02  0.51100000000E-03 0. -1.
    9900012    2    1    2    0    0  0.34786468763E+02 -0.20450926116E+02  0.49826571932E+01  0.50528860059E+02  0.30000000637E+02 0.  0.
         12    1    1    2    0    0 -0.34786468763E+02  0.20450926116E+02 -0.49826571932E+01  0.40659139941E+02  0.00000000000E+00 0. -1.
         11    1    3    3    0    0  0.11112336892E+02 -0.89970807545E+01 -0.95464316397E+01  0.17192028694E+02  0.51100000000E-03 0. -1.
        -11    1    3    3    0    0  0.19519672767E+02 -0.12654563510E+02  0.16564147129E+02  0.28557425881E+02  0.51100000000E-03 0.  1.
        -12    1    3    3    0    0  0.41544591043E+01  0.12007181482E+01 -0.20350582961E+01  0.47794054849E+01  0.00000000000E+00 0.  1.
</event>
<event>
 7    1  0.5946946E-013  0.5052891E+02  0.7816164E-02  0.1300439E+00
        -11   -1    0    0    0    0  0.00000000000E+00  0.00000000000E+00  0.45593999997E+02  0.45594000000E+02  0.51100000000E-03 0.  1.
         11   -1    0    0    0    0 -0.00000000000E+00 -0.00000000000E+00 -0.45593999997E+02  0.45594000000E+02  0.51100000000E-03 0. -1.
    9900012    2    1    2    0    0 -0.30863225790E+02  0.26372620665E+02  0.22600860593E+01  0.50528907340E+02  0.30000144350E+02 0.  0.
         12    1    1    2    0    0  0.30863225790E+02 -0.26372620665E+02 -0.22600860593E+01  0.40659092660E+02  0.00000000000E+00 0. -1.
         11    1    3    3    0    0 -0.82714876207E+01  0.70217361316E+01 -0.75739707534E+01  0.13232056492E+02  0.51100000000E-03 0. -1.
        -11    1    3    3    0    0 -0.94659953632E+01  0.17311718981E+02  0.13016847487E+02  0.23637660651E+02  0.51100000000E-03 0.  1.
        -12    1    3    3    0    0 -0.13125742807E+02  0.20391655529E+01 -0.31827906743E+01  0.13659190198E+02  0.00000000000E+00 0.  1.
</event>
<event>
 7    1  0.5946946E-013  0.5052886E+02  0.7816164E-02  0.1300439E+00
        -11   -1    0    0    0    0  0.00000000000E+00  0.00000000000E+00  0.45593999997E+02  0.45594000000E+02  0.51100000000E-03 0.  1.
         11   -1    0    0    0    0 -0.00000000000E+00 -0.00000000000E+00 -0.45593999997E+02  0.45594000000E+02  0.51100000000E-03 0. -1.
    9900012    2    1    2    0    0  0.17898956259E+02 -0.19797041577E+02  0.30673609464E+02  0.50528858249E+02  0.29999995134E+02 0.  0.
         12    1    1    2    0    0 -0.17898956259E+02  0.19797041577E+02 -0.30673609464E+02  0.40659141751E+02  0.00000000000E+00 0. -1.
         11    1    3    3    0    0  0.18122985152E+02  0.56887462366E+00  0.14417781562E+02  0.23165462106E+02  0.51100000000E-03 0. -1.
        -11    1    3    3    0    0 -0.31042577233E+01 -0.43369034661E+01  0.63864105293E+01  0.83205400904E+01  0.51100000000E-03 0.  1.
         12    1    3    3    0    0  0.28802288305E+01 -0.16029012735E+02  0.98694173722E+01  0.19042856053E+02  0.00000000000E+00 0. -1.
</event>
<event>
 7    1  0.5946946E-013  0.5052886E+02  0.7816164E-02  0.1300439E+00
        -11   -1    0    0    0    0  0.00000000000E+00  0.00000000000E+00  0.45593999997E+02  0.45594000000E+02  0.51100000000E-03 0. -1.
         11   -1    0    0    0    0 -0.00000000000E+00 -0.00000000000E+00 -0.45593999997E+02  0.45594000000E+02  0.51100000000E-03 0.  1.
    9900012    2    1    2    0    0  0.33303242410E+01  0.40521243657E+02  0.32144325117E+00  0.50528861140E+02  0.30000003921E+02 0.  0.
         12    1    1    2    0    0 -0.33303242410E+01 -0.40521243657E+02 -0.32144325117E+00  0.40659138860E+02  0.00000000000E+00 0. -1.
         11    1    3    3    0    0  0.75550954145E+01  0.45202224407E+01 -0.89577933354E+00  0.88495366269E+01  0.51100000000E-03 0.  1.
        -11    1    3    3    0    0  0.33112241146E+00  0.32179906797E+02  0.74841148372E+01  0.33040399796E+02  0.51100000000E-03 0. -1.
        -12    1    3    3    0    0 -0.45558935849E+01  0.38211144192E+01 -0.62668922525E+01  0.86389247170E+01  0.00000000000E+00 0.  1.
</event>
<event>
 7    1  0.5946946E-013  0.5052885E+02  0.7816164E-02  0.1300439E+00
        -11   -1    0    0    0    0  0.00000000000E+00  0.00000000000E+00  0.45593999997E+02  0.45594000000E+02  0.51100000000E-03 0.  1.
         11   -1    0    0    0    0 -0.00000000000E+00 -0.00000000000E+00 -0.45593999997E+02  0.45594000000E+02  0.51100000000E-03 0. -1.
    9900012    2    1    2    0    0 -0.22484343843E+02 -0.60122646099E+01  0.33338764536E+02  0.50528852634E+02  0.29999978066E+02 0.  0.
         12    1    1    2    0    0  0.22484343843E+02  0.60122646099E+01 -0.33338764536E+02  0.40659147366E+02  0.00000000000E+00 0. -1.
         11    1    3    3    0    0 -0.41228526205E+00 -0.29704344681E+01 -0.20879085935E+01  0.36541514230E+01  0.51100000000E-03 0. -1.
        -11    1    3    3    0    0 -0.19459743606E+02 -0.56760192331E+01  0.37497624561E+02  0.42625938858E+02  0.51100000000E-03 0.  1.
        -12    1    3    3    0    0 -0.26123149744E+01  0.26341890913E+01 -0.20709514320E+01  0.42487623525E+01  0.00000000000E+00 0.  1.
</event>
<event>
 7    1  0.5946946E-013  0.5052885E+02  0.7816164E-02  0.1300439E+00
        -11   -1    0    0    0    0  0.00000000000E+00  0.00000000000E+00  0.45593999997E+02  0.45594000000E+02  0.51100000000E-03 0.  1.
         11   -1    0    0    0    0 -0.00000000000E+00 -0.00000000000E+00 -0.45593999997E+02  0.45594000000E+02  0.51100000000E-03 0. -1.
    9900012    2    1    2    0    0  0.27102108869E+02  0.23731977348E+02  0.18852989993E+02  0.50528852374E+02  0.29999977276E+02 0.  0.
         12    1    1    2    0    0 -0.27102108869E+02 -0.23731977348E+02 -0.18852989993E+02  0.40659147626E+02  0.00000000000E+00 0. -1.
         11    1    3    3    0    0 -0.16773026525E+01  0.11305633668E+01 -0.30276747910E+00  0.20452838732E+01  0.51100000000E-03 0. -1.
        -11    1    3    3    0    0  0.31782307419E+02  0.12938697149E+02  0.16167231177E+02  0.37932892230E+02  0.51100000000E-03 0.  1.
        -12    1    3    3    0    0 -0.30028958971E+01  0.96627168320E+01  0.29885262951E+01  0.10550676270E+02  0.00000000000E+00 0.  1.
</event>
<event>
 7    1  0.5946946E-013  0.5052885E+02  0.7816164E-02  0.1300439E+00
        -11   -1    0    0    0    0  0.00000000000E+00  0.00000000000E+00  0.45593999997E+02  0.45594000000E+02  0.51100000000E-03 0.  1.
         11   -1    0    0    0    0 -0.00000000000E+00 -0.00000000000E+00 -0.45593999997E+02  0.45594000000E+02  0.51100000000E-03 0. -1.
    9900012    2    1    2    0    0  0.34297389222E+02  0.45106589284E+01  0.21366092301E+02  0.50528845414E+02  0.29999956121E+02 0.  0.
         12    1    1    2    0    0 -0.34297389222E+02 -0.45106589284E+01 -0.21366092301E+02  0.40659154586E+02  0.00000000000E+00 0. -1.
         11    1    3    3    0    0  0.12619617152E+02 -0.23563549474E+01 -0.29322799616E+01  0.13168348862E+02  0.51100000000E-03 0. -1.
        -11    1    3    3    0    0  0.19788036276E+02  0.72262328205E+01  0.26873464267E+02  0.34146272160E+02  0.51100000000E-03 0.  1.
        -12    1    3    3    0    0  0.18897357932E+01 -0.35921894462E+00 -0.25750920038E+01  0.32142243926E+01  0.00000000000E+00 0.  1.
</event>
<event>
 7    1  0.5946946E-013  0.5052886E+02  0.7816164E-02  0.1300439E+00
        -11   -1    0    0    0    0  0.00000000000E+00  0.00000000000E+00  0.45593999997E+02  0.45594000000E+02  0.51100000000E-03 0.  1.
         11   -1    0    0    0    0 -0.00000000000E+00 -0.00000000000E+00 -0.45593999997E+02  0.45594000000E+02  0.51100000000E-03 0. -1.
    9900012    2    1    2    0    0 -0.39627369327E+02  0.71470274601E+01  0.56353729879E+01  0.50528857978E+02  0.29999994310E+02 0.  0.
         12    1    1    2    0    0  0.39627369327E+02 -0.71470274601E+01 -0.56353729879E+01  0.40659142022E+02  0.00000000000E+00 0. -1.
         11    1    3    3    0    0 -0.12497883351E+02 -0.98675622671E+00  0.14664526227E+02  0.19292980740E+02  0.51100000000E-03 0. -1.
        -11    1    3    3    0    0 -0.76365356186E+00  0.16669100698E+01  0.12375158774E+01  0.22120582613E+01  0.51100000000E-03 0.  1.
         12    1    3    3    0    0 -0.26365832413E+02  0.64668736169E+01 -0.10266669117E+02  0.29023818976E+02  0.00000000000E+00 0. -1.
</event>
<event>
 7    1  0.5946946E-013  0.5052886E+02  0.7816164E-02  0.1300439E+00
        -11   -1    0    0    0    0  0.00000000000E+00  0.00000000000E+00  0.45593999997E+02  0.45594000000E+02  0.51100000000E-03 0. -1.
         11   -1    0    0    0    0 -0.00000000000E+00 -0.00000000000E+00 -0.45593999997E+02  0.45594000000E+02  0.51100000000E-03 0.  1.
    9900012    2    1    2    0    0 -0.13756070822E+02  0.36691287639E+01 -0.38085081093E+02  0.50528863361E+02  0.30000010672E+02 0.  0.
         12    1    1    2    0    0  0.13756070822E+02 -0.36691287639E+01  0.38085081093E+02  0.40659136639E+02  0.00000000000E+00 0. -1.
         11    1    3    3    0    0  0.12847189572E+01 -0.96943141995E+01 -0.93778422063E+01  0.13548954030E+02  0.51100000000E-03 0. -1.
        -11    1    3    3    0    0 -0.96254013051E+01  0.50906046430E+01 -0.65257091599E+01  0.12694387981E+02  0.51100000000E-03 0.  1.
         12    1    3    3    0    0 -0.54153884745E+01  0.82728383204E+01 -0.22181529727E+02  0.24285521350E+02  0.00000000000E+00 0. -1.
</event>
<event>
 7    1  0.5946946E-013  0.5052885E+02  0.7816164E-02  0.1300439E+00
        -11   -1    0    0    0    0  0.00000000000E+00  0.00000000000E+00  0.45593999997E+02  0.45594000000E+02  0.51100000000E-03 0. -1.
         11   -1    0    0    0    0 -0.00000000000E+00 -0.00000000000E+00 -0.45593999997E+02  0.45594000000E+02  0.51100000000E-03 0.  1.
    9900012    2    1    2    0    0 -0.24658095333E+02  0.23663476833E+02 -0.22026900359E+02  0.50528854157E+02  0.29999982695E+02 0.  0.
         12    1    1    2    0    0  0.24658095333E+02 -0.23663476833E+02  0.22026900359E+02  0.40659145843E+02  0.00000000000E+00 0. -1.
         11    1    3    3    0    0  0.30871398622E+00  0.10068684072E+02 -0.12926782070E+02  0.16388270141E+02  0.51100000000E-03 0. -1.
        -11    1    3    3    0    0 -0.64911510434E+01 -0.31221408071E+01 -0.52857882607E+01  0.89343361749E+01  0.51100000000E-03 0.  1.
        -12    1    3    3    0    0 -0.18475658276E+02  0.16716933568E+02 -0.38143300278E+01  0.25206247841E+02  0.00000000000E+00 0.  1.
</event>
<event>
 7    1  0.5946946E-013  0.5052886E+02  0.7816164E-02  0.1300439E+00
        -11   -1    0    0    0    0  0.00000000000E+00  0.00000000000E+00  0.45593999997E+02  0.45594000000E+02  0.51100000000E-03 0. -1.
         11   -1    0    0    0    0 -0.00000000000E+00 -0.00000000000E+00 -0.45593999997E+02  0.45594000000E+02  0.51100000000E-03 0.  1.
    9900012    2    1    2    0    0 -0.32781081646E+02 -0.14549759395E+02 -0.19153867493E+02  0.50528862622E+02  0.30000008426E+02 0.  0.
         12    1    1    2    0    0  0.32781081646E+02  0.14549759395E+02  0.19153867493E+02  0.40659137378E+02  0.00000000000E+00 0. -1.
         11    1    3    3    0    0 -0.25955544341E+01 -0.23040900863E+01 -0.12399765129E+01  0.36855496144E+01  0.51100000000E-03 0. -1.
        -11    1    3    3    0    0 -0.18906593743E+02 -0.15074791593E+02  0.14848510227E+01  0.24226295866E+02  0.51100000000E-03 0.  1.
        -12    1    3    3    0    0 -0.11278933469E+02  0.28291222842E+01 -0.19398742003E+02  0.22617017142E+02  0.00000000000E+00 0.  1.
</event>
<event>
 7    1  0.5946946E-013  0.5052885E+02  0.7816164E-02  0.1300439E+00
        -11   -1    0    0    0    0  0.00000000000E+00  0.00000000000E+00  0.45593999997E+02  0.45594000000E+02  0.51100000000E-03 0. -1.
         11   -1    0    0    0    0 -0.00000000000E+00 -0.00000000000E+00 -0.45593999997E+02  0.45594000000E+02  0.51100000000E-03 0.  1.
    9900012    2    1    2    0    0  0.37414071441E+02  0.15737530529E+02 -0.23840028371E+01  0.50528854921E+02  0.29999985019E+02 0.  0.
         12    1    1    2    0    0 -0.37414071441E+02 -0.15737530529E+02  0.23840028371E+01  0.40659145079E+02  0.00000000000E+00 0. -1.
         11    1    3    3    0    0 -0.26165996571E+01 -0.39911194676E+00 -0.50315275603E+01  0.56852575986E+01  0.51100000000E-03 0. -1.
        -11    1    3    3    0    0  0.37204261298E+02  0.16345420213E+02 -0.45816000134E+00  0.40639140388E+02  0.51100000000E-03 0.  1.
         12    1    3    3    0    0  0.28264098009E+01 -0.20877773723E+00  0.31056847245E+01  0.42044569345E+01  0.00000000000E+00 0. -1.
</event>
<event>
 7    1  0.5946946E-013  0.5052885E+02  0.7816164E-02  0.1300439E+00
        -11   -1    0    0    0    0  0.00000000000E+00  0.00000000000E+00  0.45593999997E+02  0.45594000000E+02  0.51100000000E-03 0.  1.
         11   -1    0    0    0    0 -0.00000000000E+00 -0.00000000000E+00 -0.45593999997E+02  0.45594000000E+02  0.51100000000E-03 0. -1.
    9900012    2    1    2    0    0 -0.26656767708E+02 -0.12518241576E+02  0.28033494984E+02  0.50528850011E+02  0.29999970093E+02 0.  0.
         12    1    1    2    0    0  0.26656767708E+02  0.12518241576E+02 -0.28033494984E+02  0.40659149989E+02  0.00000000000E+00 0. -1.
         11    1    3    3    0    0  0.46094197894E+01 -0.66205298749E+01  0.10761217541E+02  0.13449236776E+02  0.51100000000E-03 0. -1.
        -11    1    3    3    0    0 -0.23170178019E+02 -0.47594108718E+01  0.86198636183E+01  0.25175607050E+02  0.51100000000E-03 0.  1.
        -12    1    3    3    0    0 -0.80960094784E+01 -0.11383008294E+01  0.86524138245E+01  0.11904006185E+02  0.00000000000E+00 0.  1.
</event>
<event>
 7    1  0.5946946E-013  0.5052886E+02  0.7816164E-02  0.1300439E+00
        -11   -1    0    0    0    0  0.00000000000E+00  0.00000000000E+00  0.45593999997E+02  0.45594000000E+02  0.51100000000E-03 0.  1.
         11   -1    0    0    0    0 -0.00000000000E+00 -0.00000000000E+00 -0.45593999997E+02  0.45594000000E+02  0.51100000000E-03 0. -1.
    9900012    2    1    2    0    0 -0.36872752733E+02  0.12657436926E+02  0.11547950895E+02  0.50528858672E+02  0.29999996419E+02 0.  0.
         12    1    1    2    0    0  0.36872752733E+02 -0.12657436926E+02 -0.11547950895E+02  0.40659141328E+02  0.00000000000E+00 0. -1.
         11    1    3    3    0    0 -0.62810207470E+00  0.70788068401E+01  0.10898812363E+02  0.13011077191E+02  0.51100000000E-03 0. -1.
        -11    1    3    3    0    0 -0.29924044356E+02  0.14650415236E+01  0.15513883479E+00  0.29960287809E+02  0.51100000000E-03 0.  1.
         12    1    3    3    0    0 -0.63206063031E+01  0.41135885623E+01  0.49399969744E+00  0.75574936719E+01  0.00000000000E+00 0. -1.
</event>
<event>
 7    1  0.5946946E-013  0.5052886E+02  0.7816164E-02  0.1300439E+00
        -11   -1    0    0    0    0  0.00000000000E+00  0.00000000000E+00  0.45593999997E+02  0.45594000000E+02  0.51100000000E-03 0.  1.
         11   -1    0    0    0    0 -0.00000000000E+00 -0.00000000000E+00 -0.45593999997E+02  0.45594000000E+02  0.51100000000E-03 0. -1.
    9900012    2    1    2    0    0  0.24053475107E+02 -0.32589686696E+02  0.35367338111E+01  0.50528857981E+02  0.29999994320E+02 0.  0.
         12    1    1    2    0    0 -0.24053475107E+02  0.32589686696E+02 -0.35367338111E+01  0.40659142019E+02  0.00000000000E+00 0. -1.
         11    1    3    3    0    0 -0.23832345840E+01 -0.49492864875E+01 -0.47974429719E+01  0.72931956746E+01  0.51100000000E-03 0. -1.
        -11    1    3    3    0    0  0.12456480873E+02 -0.23643184563E+02  0.10141223153E+02  0.28583360532E+02  0.51100000000E-03 0.  1.
        -12    1    3    3    0    0  0.13980228818E+02 -0.39972156456E+01 -0.18070463696E+01  0.14652301775E+02  0.00000000000E+00 0.  1.
</event>
<event>
 7    1  0.5946946E-013  0.5052887E+02  0.7816164E-02  0.1300439E+00
        -11   -1    0    0    0    0  0.00000000000E+00  0.00000000000E+00  0.45593999997E+02  0.45594000000E+02  0.51100000000E-03 0.  1.
         11   -1    0    0    0    0 -0.00000000000E+00 -0.00000000000E+00 -0.45593999997E+02  0.45594000000E+02  0.51100000000E-03 0. -1.
    9900012    2    1    2    0    0 -0.63087111309E+01 -0.21562138680E+02  0.33888633695E+02  0.50528866287E+02  0.30000019567E+02 0.  0.
         12    1    1    2    0    0  0.63087111309E+01  0.21562138680E+02 -0.33888633695E+02  0.40659133713E+02  0.00000000000E+00 0. -1.
         11    1    3    3    0    0 -0.18305027130E+01  0.39437294017E+01 -0.21791860110E+01  0.48633932298E+01  0.51100000000E-03 0. -1.
        -11    1    3    3    0    0 -0.37521230604E+01 -0.10086322030E+02  0.23179359715E+02  0.25555724145E+02  0.51100000000E-03 0.  1.
         12    1    3    3    0    0 -0.72608535745E+00 -0.15419546051E+02  0.12888459991E+02  0.20109748912E+02  0.00000000000E+00 0. -1.
</event>
<event>
 7    1  0.5946946E-013  0.5052886E+02  0.7816164E-02  0.1300439E+00
        -11   -1    0    0    0    0  0.00000000000E+00  0.00000000000E+00  0.45593999997E+02  0.45594000000E+02  0.51100000000E-03 0. -1.
         11   -1    0    0    0    0 -0.00000000000E+00 -0.00000000000E+00 -0.45593999997E+02  0.45594000000E+02  0.51100000000E-03 0.  1.
    9900012    2    1    2    0    0  0.19611905643E+02  0.33984581036E+02 -0.10657730707E+02  0.50528858162E+02  0.29999994870E+02 0.  0.
         12    1    1    2    0    0 -0.19611905643E+02 -0.33984581036E+02  0.10657730707E+02  0.40659141838E+02  0.00000000000E+00 0. -1.
         11    1    3    3    0    0 -0.52776671490E+01  0.15488057003E+02 -0.94081471966E+01  0.18874504343E+02  0.51100000000E-03 0. -1.
        -11    1    3    3    0    0  0.96282864937E+01  0.10867553854E+02 -0.14486297709E+01  0.14591304124E+02  0.51100000000E-03 0.  1.
         12    1    3    3    0    0  0.15261286299E+02  0.76289701794E+01  0.19904626019E+00  0.17063049695E+02  0.00000000000E+00 0. -1.
</event>
<event>
 7    1  0.5946946E-013  0.5052886E+02  0.7816164E-02  0.1300439E+00
        -11   -1    0    0    0    0  0.00000000000E+00  0.00000000000E+00  0.45593999997E+02  0.45594000000E+02  0.51100000000E-03 0. -1.
         11   -1    0    0    0    0 -0.00000000000E+00 -0.00000000000E+00 -0.45593999997E+02  0.45594000000E+02  0.51100000000E-03 0.  1.
    9900012    2    1    2    0    0  0.15696342140E+02 -0.15504020464E+02 -0.34152828367E+02  0.50528862127E+02  0.30000006921E+02 0.  0.
         12    1    1    2    0    0 -0.15696342140E+02  0.15504020464E+02  0.34152828367E+02  0.40659137873E+02  0.00000000000E+00 0. -1.
         11    1    3    3    0    0 -0.51909565351E+01 -0.11176908677E+02 -0.16964508137E+02  0.20968162864E+02  0.51100000000E-03 0.  1.
        -11    1    3    3    0    0  0.12643007304E+02  0.10049258892E+01 -0.14732935252E+02  0.19440033208E+02  0.51100000000E-03 0. -1.
         12    1    3    3    0    0  0.82442913708E+01 -0.53320376764E+01 -0.24553849780E+01  0.10120666054E+02  0.00000000000E+00 0. -1.
</event>
<event>
 7    1  0.5946946E-013  0.5052886E+02  0.7816164E-02  0.1300439E+00
        -11   -1    0    0    0    0  0.00000000000E+00  0.00000000000E+00  0.45593999997E+02  0.45594000000E+02  0.51100000000E-03 0.  1.
         11   -1    0    0    0    0 -0.00000000000E+00 -0.00000000000E+00 -0.45593999997E+02  0.45594000000E+02  0.51100000000E-03 0. -1.
    9900012    2    1    2    0    0 -0.26687547690E+02 -0.18858132003E+02  0.24193216139E+02  0.50528855254E+02  0.29999986029E+02 0.  0.
         12    1    1    2    0    0  0.26687547690E+02  0.18858132003E+02 -0.24193216139E+02  0.40659144746E+02  0.00000000000E+00 0. -1.
         11    1    3    3    0    0 -0.14265993575E+02 -0.12824164798E+02  0.20277491553E+02  0.27913338019E+02  0.51100000000E-03 0. -1.
        -11    1    3    3    0    0  0.25860098301E+01  0.24589982474E+01  0.40144055968E+01  0.53711797381E+01  0.51100000000E-03 0.  1.
         12    1    3    3    0    0 -0.15007563945E+02 -0.84929654527E+01 -0.98681010295E-01  0.17244337496E+02  0.00000000000E+00 0. -1.
</event>
<event>
 7    1  0.5946946E-013  0.5052885E+02  0.7816164E-02  0.1300439E+00
        -11   -1    0    0    0    0  0.00000000000E+00  0.00000000000E+00  0.45593999997E+02  0.45594000000E+02  0.51100000000E-03 0.  1.
         11   -1    0    0    0    0 -0.00000000000E+00 -0.00000000000E+00 -0.45593999997E+02  0.45594000000E+02  0.51100000000E-03 0. -1.
    9900012    2    1    2    0    0  0.56222722078E+01  0.36367027381E+02  0.17291486536E+02  0.50528854265E+02  0.29999983024E+02 0.  0.
         12    1    1    2    0    0 -0.56222722078E+01 -0.36367027381E+02 -0.17291486536E+02  0.40659145735E+02  0.00000000000E+00 0. -1.
         11    1    3    3    0    0 -0.81231126472E+00 -0.10715963244E+00  0.11554626189E+02  0.11583640162E+02  0.51100000000E-03 0. -1.
        -11    1    3    3    0    0  0.31433880933E+00  0.26439389184E+02  0.62870371033E+01  0.27178427937E+02  0.51100000000E-03 0.  1.
         12    1    3    3    0    0  0.61202446632E+01  0.10034797829E+02 -0.55017675694E+00  0.11766786166E+02  0.00000000000E+00 0. -1.
</event>
<event>
 7    1  0.6010352E-013  0.5052886E+02  0.7816164E-02  0.1300439E+00
        -11   -1    0    0    0    0  0.00000000000E+00  0.00000000000E+00  0.45593999997E+02  0.45594000000E+02  0.51100000000E-03 0. -1.
         11   -1    0    0    0    0 -0.00000000000E+00 -0.00000000000E+00 -0.45593999997E+02  0.45594000000E+02  0.51100000000E-03 0.  1.
    9900012    2    1    2    0    0 -0.13359973859E+02 -0.34104484297E+02 -0.17651091950E+02  0.50528858374E+02  0.29999995514E+02 0.  0.
         12    1    1    2    0    0  0.13359973859E+02  0.34104484297E+02  0.17651091950E+02  0.40659141626E+02  0.00000000000E+00 0. -1.
         11    1    3    3    0    0  0.56732279537E+01 -0.14943122355E+01 -0.20615682065E+01  0.62184039917E+01  0.51100000000E-03 0. -1.
        -11    1    3    3    0    0 -0.17122495944E+02 -0.18303062196E+02 -0.16234307696E+02  0.29861927261E+02  0.51100000000E-03 0.  1.
        -12    1    3    3    0    0 -0.19107058690E+01 -0.14307109866E+02  0.64478395260E+00  0.14448527122E+02  0.00000000000E+00 0.  1.
</event>
<event>
 7    1  0.5946946E-013  0.5052886E+02  0.7816164E-02  0.1300439E+00
        -11   -1    0    0    0    0  0.00000000000E+00  0.00000000000E+00  0.45593999997E+02  0.45594000000E+02  0.51100000000E-03 0.  1.
         11   -1    0    0    0    0 -0.00000000000E+00 -0.00000000000E+00 -0.45593999997E+02  0.45594000000E+02  0.51100000000E-03 0. -1.
    9900012    2    1    2    0    0 -0.18145956648E+02 -0.84903488137E+01  0.35380844340E+02  0.50528856971E+02  0.29999991248E+02 0.  0.
         12    1    1    2    0    0  0.18145956648E+02  0.84903488137E+01 -0.35380844340E+02  0.40659143029E+02  0.00000000000E+00 0. -1.
         11    1    3    3    0    0 -0.18971575671E+01  0.75797067936E+01 -0.26950915292E+00  0.78181709726E+01  0.51100000000E-03 0. -1.
        -11    1    3    3    0    0 -0.21659718916E+01 -0.51703451458E+01  0.10363853421E+02  0.11782756942E+02  0.51100000000E-03 0.  1.
         12    1    3    3    0    0 -0.14082827189E+02 -0.10899710462E+02  0.25286500073E+02  0.30927929056E+02  0.00000000000E+00 0. -1.
</event>
<event>
 7    1  0.5946946E-013  0.5052888E+02  0.7816164E-02  0.1300439E+00
        -11   -1    0    0    0    0  0.00000000000E+00  0.00000000000E+00  0.45593999997E+02  0.45594000000E+02  0.51100000000E-03 0. -1.
         11   -1    0    0    0    0 -0.00000000000E+00 -0.00000000000E+00 -0.45593999997E+02  0.45594000000E+02  0.51100000000E-03 0.  1.
    9900012    2    1    2    0    0  0.17992731843E+02 -0.32733709878E+02 -0.16060205895E+02  0.50528875871E+02  0.30000048697E+02 0.  0.
         12    1    1    2    0    0 -0.17992731843E+02  0.32733709878E+02  0.16060205895E+02  0.40659124129E+02  0.00000000000E+00 0. -1.
         11    1    3    3    0    0  0.67550941438E+01  0.22751378400E+01  0.13858511635E+01  0.72614139664E+01  0.51100000000E-03 0. -1.
        -11    1    3    3    0    0  0.12370127471E+02 -0.31592013515E+02 -0.10620614748E+02  0.35550989149E+02  0.51100000000E-03 0.  1.
        -12    1    3    3    0    0 -0.11324897720E+01 -0.34168342031E+01 -0.68254423104E+01  0.77164727555E+01  0.00000000000E+00 0.  1.
</event>
<event>
 7    1  0.5946946E-013  0.5052885E+02  0.7816164E-02  0.1300439E+00
        -11   -1    0    0    0    0  0.00000000000E+00  0.00000000000E+00  0.45593999997E+02  0.45594000000E+02  0.51100000000E-03 0. -1.
         11   -1    0    0    0    0 -0.00000000000E+00 -0.00000000000E+00 -0.45593999997E+02  0.45594000000E+02  0.51100000000E-03 0.  1.
    9900012    2    1    2    0    0 -0.19775750437E+02 -0.26562749211E+02 -0.23590382673E+02  0.50528854588E+02  0.29999984005E+02 0.  0.
         12    1    1    2    0    0  0.19775750437E+02  0.26562749211E+02  0.23590382673E+02  0.40659145412E+02  0.00000000000E+00 0. -1.
         11    1    3    3    0    0 -0.85790324664E+00 -0.13872181791E+01  0.30651839830E+01  0.34721355629E+01  0.51100000000E-03 0. -1.
        -11    1    3    3    0    0 -0.12769697033E+02 -0.16561096829E+02 -0.29441452899E+02  0.36112798834E+02  0.51100000000E-03 0.  1.
        -12    1    3    3    0    0 -0.61481501572E+01 -0.86144342028E+01  0.27858862435E+01  0.10943920191E+02  0.00000000000E+00 0.  1.
</event>
<event>
 7    1  0.5946946E-013  0.5052886E+02  0.7816164E-02  0.1300439E+00
        -11   -1    0    0    0    0  0.00000000000E+00  0.00000000000E+00  0.45593999997E+02  0.45594000000E+02  0.51100000000E-03 0.  1.
         11   -1    0    0    0    0 -0.00000000000E+00 -0.00000000000E+00 -0.45593999997E+02  0.45594000000E+02  0.51100000000E-03 0. -1.
    9900012    2    1    2    0    0  0.26808432179E+02  0.29912513416E+02 -0.63019911425E+01  0.50528860965E+02  0.30000003388E+02 0.  0.
         12    1    1    2    0    0 -0.26808432179E+02 -0.29912513416E+02  0.63019911425E+01  0.40659139035E+02  0.00000000000E+00 0. -1.
         11    1    3    3    0    0  0.14995560769E+02  0.15594316053E+02  0.57012344945E+01  0.22373055468E+02  0.51100000000E-03 0. -1.
        -11    1    3    3    0    0 -0.13168641410E+01  0.25992855475E+01 -0.10032246000E+02  0.10446835721E+02  0.51100000000E-03 0.  1.
        -12    1    3    3    0    0  0.13129735551E+02  0.11718911815E+02 -0.19709796369E+01  0.17708969775E+02  0.00000000000E+00 0.  1.
</event>
<event>
 7    1  0.5946946E-013  0.5052886E+02  0.7816164E-02  0.1300439E+00
        -11   -1    0    0    0    0  0.00000000000E+00  0.00000000000E+00  0.45593999997E+02  0.45594000000E+02  0.51100000000E-03 0.  1.
         11   -1    0    0    0    0 -0.00000000000E+00 -0.00000000000E+00 -0.45593999997E+02  0.45594000000E+02  0.51100000000E-03 0. -1.
    9900012    2    1    2    0    0  0.22291057877E+02 -0.25374601882E+02 -0.22636340630E+02  0.50528860818E+02  0.30000002941E+02 0.  0.
         12    1    1    2    0    0 -0.22291057877E+02  0.25374601882E+02  0.22636340630E+02  0.40659139182E+02  0.00000000000E+00 0. -1.
         11    1    3    3    0    0  0.12945499567E+01  0.19232473776E+01 -0.52214366906E+01  0.57129800841E+01  0.51100000000E-03 0. -1.
        -11    1    3    3    0    0  0.24684144733E+02 -0.27390528337E+02 -0.18082232801E+02  0.41067203302E+02  0.51100000000E-03 0.  1.
        -12    1    3    3    0    0 -0.36876368126E+01  0.92679077325E-01  0.66732886165E+00  0.37486774311E+01  0.00000000000E+00 0.  1.
</event>
<event>
 7    1  0.5946946E-013  0.5052890E+02  0.7816164E-02  0.1300439E+00
        -11   -1    0    0    0    0  0.00000000000E+00  0.00000000000E+00  0.45593999997E+02  0.45594000000E+02  0.51100000000E-03 0.  1.
         11   -1    0    0    0    0 -0.00000000000E+00 -0.00000000000E+00 -0.45593999997E+02  0.45594000000E+02  0.51100000000E-03 0. -1.
    9900012    2    1    2    0    0  0.61029710816E+01 -0.33249880628E+02  0.22591179879E+02  0.50528902296E+02  0.30000129018E+02 0.  0.
         12    1    1    2    0    0 -0.61029710816E+01  0.33249880628E+02 -0.22591179879E+02  0.40659097704E+02  0.00000000000E+00 0. -1.
         11    1    3    3    0    0 -0.45416175973E+01 -0.23006018050E+02  0.22487255325E+02  0.32489687737E+02  0.51100000000E-03 0. -1.
        -11    1    3    3    0    0  0.56978195019E+01  0.88876493170E+00  0.87460042882E+00  0.58326646013E+01  0.51100000000E-03 0.  1.
        -12    1    3    3    0    0  0.49467691771E+01 -0.11132627510E+02 -0.77067587476E+00  0.12206549957E+02  0.00000000000E+00 0.  1.
</event>
<event>
 7    1  0.5946946E-013  0.5052886E+02  0.7816164E-02  0.1300439E+00
        -11   -1    0    0    0    0  0.00000000000E+00  0.00000000000E+00  0.45593999997E+02  0.45594000000E+02  0.51100000000E-03 0.  1.
         11   -1    0    0    0    0 -0.00000000000E+00 -0.00000000000E+00 -0.45593999997E+02  0.45594000000E+02  0.51100000000E-03 0. -1.
    9900012    2    1    2    0    0  0.11498410121E+02  0.28446298353E+02  0.26678841796E+02  0.50528856811E+02  0.29999990763E+02 0.  0.
         12    1    1    2    0    0 -0.11498410121E+02 -0.28446298353E+02 -0.26678841796E+02  0.40659143189E+02  0.00000000000E+00 0. -1.
         11    1    3    3    0    0  0.90602865803E+01  0.16818502214E+02  0.21629697043E+02  0.28858180887E+02  0.51100000000E-03 0.  1.
        -11    1    3    3    0    0 -0.64405812310E+01  0.48538965536E+01  0.65669810771E+01  0.10400319181E+02  0.51100000000E-03 0. -1.
         12    1    3    3    0    0  0.88787047714E+01  0.67738995854E+01 -0.15178363247E+01  0.11270356743E+02  0.00000000000E+00 0. -1.
</event>
<event>
 7    1  0.5946946E-013  0.5052886E+02  0.7816164E-02  0.1300439E+00
        -11   -1    0    0    0    0  0.00000000000E+00  0.00000000000E+00  0.45593999997E+02  0.45594000000E+02  0.51100000000E-03 0.  1.
         11   -1    0    0    0    0 -0.00000000000E+00 -0.00000000000E+00 -0.45593999997E+02  0.45594000000E+02  0.51100000000E-03 0. -1.
    9900012    2    1    2    0    0  0.10894781226E+02  0.36277259550E+02  0.14779366196E+02  0.50528862237E+02  0.30000007257E+02 0.  0.
         12    1    1    2    0    0 -0.10894781226E+02 -0.36277259550E+02 -0.14779366196E+02  0.40659137763E+02  0.00000000000E+00 0. -1.
         11    1    3    3    0    0  0.72245882509E+00 -0.17689487943E+01 -0.16699392266E+01  0.25376808059E+01  0.51100000000E-03 0. -1.
        -11    1    3    3    0    0  0.12003567169E+02  0.36186071187E+02  0.20412455556E+02  0.43245643883E+02  0.51100000000E-03 0.  1.
        -12    1    3    3    0    0 -0.18312447681E+01  0.18601371574E+01 -0.39631501335E+01  0.47455375486E+01  0.00000000000E+00 0.  1.
</event>
<event>
 7    1  0.5946946E-013  0.5052886E+02  0.7816164E-02  0.1300439E+00
        -11   -1    0    0    0    0  0.00000000000E+00  0.00000000000E+00  0.45593999997E+02  0.45594000000E+02  0.51100000000E-03 0. -1.
         11   -1    0    0    0    0 -0.00000000000E+00 -0.00000000000E+00 -0.45593999997E+02  0.45594000000E+02  0.51100000000E-03 0.  1.
    9900012    2    1    2    0    0  0.16737986539E+02 -0.36327675683E+02  0.73010555532E+01  0.50528860485E+02  0.30000001931E+02 0.  0.
         12    1    1    2    0    0 -0.16737986539E+02  0.36327675683E+02 -0.73010555532E+01  0.40659139515E+02  0.00000000000E+00 0. -1.
         11    1    3    3    0    0 -0.22448677259E+01 -0.38483808939E+01  0.66834460837E+01  0.80323046771E+01  0.51100000000E-03 0. -1.
        -11    1    3    3    0    0  0.15814767772E+02 -0.97212535086E+01 -0.41684083694E+01  0.19025910702E+02  0.51100000000E-03 0.  1.
         12    1    3    3    0    0  0.31680864930E+01 -0.22758041280E+02  0.47860178389E+01  0.23470645106E+02  0.00000000000E+00 0. -1.
</event>
<event>
 7    1  0.5946946E-013  0.5052885E+02  0.7816164E-02  0.1300439E+00
        -11   -1    0    0    0    0  0.00000000000E+00  0.00000000000E+00  0.45593999997E+02  0.45594000000E+02  0.51100000000E-03 0.  1.
         11   -1    0    0    0    0 -0.00000000000E+00 -0.00000000000E+00 -0.45593999997E+02  0.45594000000E+02  0.51100000000E-03 0. -1.
    9900012    2    1    2    0    0 -0.11317373945E+02  0.72226383565E+01  0.38378596344E+02  0.50528854471E+02  0.29999983649E+02 0.  0.
         12    1    1    2    0    0  0.11317373945E+02 -0.72226383565E+01 -0.38378596344E+02  0.40659145529E+02  0.00000000000E+00 0. -1.
         11    1    3    3    0    0 -0.11186487091E+02  0.17170889799E+01  0.30870960978E+02  0.32880117396E+02  0.51100000000E-03 0. -1.
        -11    1    3    3    0    0 -0.29856263226E+01  0.44127284815E+01 -0.34003905467E+01  0.63205057805E+01  0.51100000000E-03 0.  1.
        -12    1    3    3    0    0  0.28547394682E+01  0.10928208950E+01  0.10908025913E+02  0.11328231294E+02  0.00000000000E+00 0.  1.
</event>
<event>
 7    1  0.5946946E-013  0.5052886E+02  0.7816164E-02  0.1300439E+00
        -11   -1    0    0    0    0  0.00000000000E+00  0.00000000000E+00  0.45593999997E+02  0.45594000000E+02  0.51100000000E-03 0.  1.
         11   -1    0    0    0    0 -0.00000000000E+00 -0.00000000000E+00 -0.45593999997E+02  0.45594000000E+02  0.51100000000E-03 0. -1.
    9900012    2    1    2    0    0  0.28466284190E+02  0.28371559708E+02  0.61555561841E+01  0.50528860710E+02  0.30000002615E+02 0.  0.
         12    1    1    2    0    0 -0.28466284190E+02 -0.28371559708E+02 -0.61555561841E+01  0.40659139290E+02  0.00000000000E+00 0. -1.
         11    1    3    3    0    0  0.14846684705E+02  0.86341898060E+01 -0.96156432328E+01  0.19683340047E+02  0.51100000000E-03 0. -1.
        -11    1    3    3    0    0 -0.90520067349E+00  0.72088123690E+01  0.34094398740E+01  0.80256242466E+01  0.51100000000E-03 0.  1.
         12    1    3    3    0    0  0.14524800158E+02  0.12528557533E+02  0.12361759543E+02  0.22819896417E+02  0.00000000000E+00 0. -1.
</event>
<event>
 7    1  0.5946946E-013  0.5052887E+02  0.7816164E-02  0.1300439E+00
        -11   -1    0    0    0    0  0.00000000000E+00  0.00000000000E+00  0.45593999997E+02  0.45594000000E+02  0.51100000000E-03 0.  1.
         11   -1    0    0    0    0 -0.00000000000E+00 -0.00000000000E+00 -0.45593999997E+02  0.45594000000E+02  0.51100000000E-03 0. -1.
    9900012    2    1    2    0    0 -0.36258943884E+02  0.15295501027E+02 -0.10222614508E+02  0.50528865595E+02  0.30000017461E+02 0.  0.
         12    1    1    2    0    0  0.36258943884E+02 -0.15295501027E+02  0.10222614508E+02  0.40659134405E+02  0.00000000000E+00 0. -1.
         11    1    3    3    0    0 -0.16690354946E+02 -0.18846258627E+01 -0.99395880899E+01  0.19517048304E+02  0.51100000000E-03 0. -1.
        -11    1    3    3    0    0 -0.14174174826E+02  0.16301418338E+02 -0.66674562363E+01  0.22607486476E+02  0.51100000000E-03 0.  1.
         12    1    3    3    0    0 -0.53944141120E+01  0.87870855148E+00  0.63844298183E+01  0.84043308142E+01  0.00000000000E+00 0. -1.
</event>
<event>
 7    1  0.5946946E-013  0.5052885E+02  0.7816164E-02  0.1300439E+00
        -11   -1    0    0    0    0  0.00000000000E+00  0.00000000000E+00  0.45593999997E+02  0.45594000000E+02  0.51100000000E-03 0. -1.
         11   -1    0    0    0    0 -0.00000000000E+00 -0.00000000000E+00 -0.45593999997E+02  0.45594000000E+02  0.51100000000E-03 0.  1.
    9900012    2    1    2    0    0 -0.27211657940E+02  0.10949399410E+02 -0.28156754070E+02  0.50528850046E+02  0.29999970199E+02 0.  0.
         12    1    1    2    0    0  0.27211657940E+02 -0.10949399410E+02  0.28156754070E+02  0.40659149954E+02  0.00000000000E+00 0. -1.
         11    1    3    3    0    0 -0.10358422990E+02  0.98855461328E+01 -0.51221789759E+00  0.14327711493E+02  0.51100000000E-03 0. -1.
        -11    1    3    3    0    0 -0.13177718919E+02 -0.55352653274E+01 -0.11386881565E+02  0.18274367573E+02  0.51100000000E-03 0.  1.
         12    1    3    3    0    0 -0.36755160306E+01  0.65991186044E+01 -0.16257654607E+02  0.17926770980E+02  0.00000000000E+00 0. -1.
</event>
<event>
 7    1  0.5946946E-013  0.5052884E+02  0.7816164E-02  0.1300439E+00
        -11   -1    0    0    0    0  0.00000000000E+00  0.00000000000E+00  0.45593999997E+02  0.45594000000E+02  0.51100000000E-03 0.  1.
         11   -1    0    0    0    0 -0.00000000000E+00 -0.00000000000E+00 -0.45593999997E+02  0.45594000000E+02  0.51100000000E-03 0. -1.
    9900012    2    1    2    0    0  0.30948938061E+02 -0.97960790826E+01  0.24481982099E+02  0.50528838916E+02  0.29999936370E+02 0.  0.
         12    1    1    2    0    0 -0.30948938061E+02  0.97960790826E+01 -0.24481982099E+02  0.40659161084E+02  0.00000000000E+00 0. -1.
         11    1    3    3    0    0  0.36269780273E+01  0.73554024449E+01 -0.32611666974E+00  0.82075128437E+01  0.51100000000E-03 0. -1.
        -11    1    3    3    0    0  0.28445838464E+02 -0.16635023111E+02  0.23237113913E+02  0.40321869787E+02  0.51100000000E-03 0.  1.
        -12    1    3    3    0    0 -0.11238784301E+01 -0.51645841664E+00  0.15709848560E+01  0.19994562860E+01  0.00000000000E+00 0.  1.
</event>
<event>
 7    1  0.5946946E-013  0.5052887E+02  0.7816164E-02  0.1300439E+00
        -11   -1    0    0    0    0  0.00000000000E+00  0.00000000000E+00  0.45593999997E+02  0.45594000000E+02  0.51100000000E-03 0.  1.
         11   -1    0    0    0    0 -0.00000000000E+00 -0.00000000000E+00 -0.45593999997E+02  0.45594000000E+02  0.51100000000E-03 0. -1.
    9900012    2    1    2    0    0 -0.21328115422E+02 -0.34608888825E+02  0.70810740991E+00  0.50528866841E+02  0.30000021249E+02 0.  0.
         12    1    1    2    0    0  0.21328115422E+02  0.34608888825E+02 -0.70810740991E+00  0.40659133159E+02  0.00000000000E+00 0. -1.
         11    1    3    3    0    0  0.54029890946E+01 -0.20902919815E+01 -0.22914538779E+01  0.62299576933E+01  0.51100000000E-03 0. -1.
        -11    1    3    3    0    0 -0.28000672107E+02 -0.32320148499E+02  0.22732418176E+01  0.42822859153E+02  0.51100000000E-03 0.  1.
        -12    1    3    3    0    0  0.12695675907E+01 -0.19844834479E+00  0.72631947012E+00  0.14760499942E+01  0.00000000000E+00 0.  1.
</event>
<event>
 7    1  0.5946946E-013  0.5052886E+02  0.7816164E-02  0.1300439E+00
        -11   -1    0    0    0    0  0.00000000000E+00  0.00000000000E+00  0.45593999997E+02  0.45594000000E+02  0.51100000000E-03 0.  1.
         11   -1    0    0    0    0 -0.00000000000E+00 -0.00000000000E+00 -0.45593999997E+02  0.45594000000E+02  0.51100000000E-03 0. -1.
    9900012    2    1    2    0    0 -0.12979532333E+02 -0.28386831737E+02  0.26055419222E+02  0.50528863924E+02  0.30000012383E+02 0.  0.
         12    1    1    2    0    0  0.12979532333E+02  0.28386831737E+02 -0.26055419222E+02  0.40659136076E+02  0.00000000000E+00 0. -1.
         11    1    3    3    0    0  0.79834930109E+01 -0.17725686622E+02  0.11135738524E+02  0.22404035342E+02  0.51100000000E-03 0. -1.
        -11    1    3    3    0    0 -0.67281798674E+01 -0.54134247190E+01  0.61439907706E+01  0.10598216565E+02  0.51100000000E-03 0.  1.
         12    1    3    3    0    0 -0.14234845476E+02 -0.52477203961E+01  0.87756899268E+01  0.17526612016E+02  0.00000000000E+00 0. -1.
</event>
<event>
 7    1  0.5946946E-013  0.5052885E+02  0.7816164E-02  0.1300439E+00
        -11   -1    0    0    0    0  0.00000000000E+00  0.00000000000E+00  0.45593999997E+02  0.45594000000E+02  0.51100000000E-03 0.  1.
         11   -1    0    0    0    0 -0.00000000000E+00 -0.00000000000E+00 -0.45593999997E+02  0.45594000000E+02  0.51100000000E-03 0. -1.
    9900012    2    1    2    0    0  0.36770899064E+02  0.11820098665E+02  0.12702459721E+02  0.50528853017E+02  0.29999979231E+02 0.  0.
         12    1    1    2    0    0 -0.36770899064E+02 -0.11820098665E+02 -0.12702459721E+02  0.40659146983E+02  0.00000000000E+00 0. -1.
         11    1    3    3    0    0  0.11289443726E+02 -0.19805240514E+00 -0.70148997368E+01  0.13292839537E+02  0.51100000000E-03 0. -1.
        -11    1    3    3    0    0  0.24188253439E+02  0.80194002694E+01  0.11399038848E+02  0.27916311935E+02  0.51100000000E-03 0.  1.
         12    1    3    3    0    0  0.12932018988E+01  0.39987508012E+01  0.83183206098E+01  0.93197015450E+01  0.00000000000E+00 0. -1.
</event>
<event>
 7    1  0.7944929E-013  0.5052893E+02  0.7816164E-02  0.1300439E+00
        -11   -1    0    0    0    0  0.00000000000E+00  0.00000000000E+00  0.45593999997E+02  0.45594000000E+02  0.51100000000E-03 0. -1.
         11   -1    0    0    0    0 -0.00000000000E+00 -0.00000000000E+00 -0.45593999997E+02  0.45594000000E+02  0.51100000000E-03 0.  1.
    9900012    2    1    2    0    0  0.18681459941E+02 -0.18216305966E+02 -0.31182195346E+02  0.50528928993E+02  0.30000210167E+02 0.  0.
         12    1    1    2    0    0 -0.18681459941E+02  0.18216305966E+02  0.31182195346E+02  0.40659071007E+02  0.00000000000E+00 0. -1.
         11    1    3    3    0    0  0.65025152326E-01  0.56535791221E+01 -0.93688253097E+01  0.10942672119E+02  0.51100000000E-03 0. -1.
        -11    1    3    3    0    0  0.12766397710E+02 -0.10205692905E+02 -0.17851320533E+02  0.24203444449E+02  0.51100000000E-03 0.  1.
         12    1    3    3    0    0  0.58500370782E+01 -0.13664192183E+02 -0.39620495030E+01  0.15382812425E+02  0.00000000000E+00 0. -1.
</event>
<event>
 7    1  0.5946946E-013  0.5052885E+02  0.7816164E-02  0.1300439E+00
        -11   -1    0    0    0    0  0.00000000000E+00  0.00000000000E+00  0.45593999997E+02  0.45594000000E+02  0.51100000000E-03 0.  1.
         11   -1    0    0    0    0 -0.00000000000E+00 -0.00000000000E+00 -0.45593999997E+02  0.45594000000E+02  0.51100000000E-03 0. -1.
    9900012    2    1    2    0    0 -0.35533321867E+01 -0.16056743534E+02  0.37184960557E+02  0.50528850056E+02  0.29999970230E+02 0.  0.
         12    1    1    2    0    0  0.35533321867E+01  0.16056743534E+02 -0.37184960557E+02  0.40659149944E+02  0.00000000000E+00 0. -1.
         11    1    3    3    0    0 -0.89062859281E+01 -0.72567102369E+01  0.99060453057E+01  0.15169426698E+02  0.51100000000E-03 0. -1.
        -11    1    3    3    0    0  0.56878054549E+01  0.39689389158E+01  0.18772699652E+02  0.20012942300E+02  0.51100000000E-03 0.  1.
        -12    1    3    3    0    0 -0.33485171353E+00 -0.12768972213E+02  0.85062155993E+01  0.15346481058E+02  0.00000000000E+00 0.  1.
</event>
<event>
 7    1  0.5946946E-013  0.5052886E+02  0.7816164E-02  0.1300439E+00
        -11   -1    0    0    0    0  0.00000000000E+00  0.00000000000E+00  0.45593999997E+02  0.45594000000E+02  0.51100000000E-03 0.  1.
         11   -1    0    0    0    0 -0.00000000000E+00 -0.00000000000E+00 -0.45593999997E+02  0.45594000000E+02  0.51100000000E-03 0. -1.
    9900012    2    1    2    0    0 -0.23234337534E+02  0.28060517776E+02  0.18053775592E+02  0.50528856974E+02  0.29999991257E+02 0.  0.
         12    1    1    2    0    0  0.23234337534E+02 -0.28060517776E+02 -0.18053775592E+02  0.40659143026E+02  0.00000000000E+00 0. -1.
         11    1    3    3    0    0 -0.94673341750E+01  0.22783810172E+02  0.44782386204E+01  0.25075626488E+02  0.51100000000E-03 0. -1.
        -11    1    3    3    0    0 -0.14952904398E+02  0.75725488515E+01  0.15008366270E+02  0.22498531160E+02  0.51100000000E-03 0.  1.
         12    1    3    3    0    0  0.11859010386E+01 -0.22958412474E+01 -0.14328292980E+01  0.29546993254E+01  0.00000000000E+00 0. -1.
</event>
<event>
 7    1  0.5946946E-013  0.5052886E+02  0.7816164E-02  0.1300439E+00
        -11   -1    0    0    0    0  0.00000000000E+00  0.00000000000E+00  0.45593999997E+02  0.45594000000E+02  0.51100000000E-03 0.  1.
         11   -1    0    0    0    0 -0.00000000000E+00 -0.00000000000E+00 -0.45593999997E+02  0.45594000000E+02  0.51100000000E-03 0. -1.
    9900012    2    1    2    0    0 -0.72618540434E+01 -0.13094648226E+02  0.37801604938E+02  0.50528859918E+02  0.30000000207E+02 0.  0.
         12    1    1    2    0    0  0.72618540434E+01  0.13094648226E+02 -0.37801604938E+02  0.40659140082E+02  0.00000000000E+00 0. -1.
         11    1    3    3    0    0  0.25658246014E+01 -0.15919335128E+02  0.29112668470E+02  0.33279966234E+02  0.51100000000E-03 0. -1.
        -11    1    3    3    0    0 -0.10029986960E+01  0.38497842322E+01 -0.10014774459E+01  0.41024142105E+01  0.51100000000E-03 0.  1.
        -12    1    3    3    0    0 -0.88246799489E+01 -0.10250973304E+01  0.96904139135E+01  0.13146479474E+02  0.00000000000E+00 0.  1.
</event>
<event>
 7    1  0.5946946E-013  0.5052885E+02  0.7816164E-02  0.1300439E+00
        -11   -1    0    0    0    0  0.00000000000E+00  0.00000000000E+00  0.45593999997E+02  0.45594000000E+02  0.51100000000E-03 0. -1.
         11   -1    0    0    0    0 -0.00000000000E+00 -0.00000000000E+00 -0.45593999997E+02  0.45594000000E+02  0.51100000000E-03 0.  1.
    9900012    2    1    2    0    0  0.13510565728E+02  0.35128107510E+02  0.15383331639E+02  0.50528853233E+02  0.29999979886E+02 0.  0.
         12    1    1    2    0    0 -0.13510565728E+02 -0.35128107510E+02 -0.15383331639E+02  0.40659146767E+02  0.00000000000E+00 0. -1.
         11    1    3    3    0    0  0.64814469199E+01  0.10482473272E+01 -0.99031636127E+00  0.66399324839E+01  0.51100000000E-03 0. -1.
        -11    1    3    3    0    0  0.93862943454E+00  0.31350968813E+02  0.65965957103E+01  0.32051198822E+02  0.51100000000E-03 0.  1.
        -12    1    3    3    0    0  0.60904893737E+01  0.27288913699E+01  0.97770522903E+01  0.11837721926E+02  0.00000000000E+00 0.  1.
</event>
<event>
 7    1  0.5946946E-013  0.5052887E+02  0.7816164E-02  0.1300439E+00
        -11   -1    0    0    0    0  0.00000000000E+00  0.00000000000E+00  0.45593999997E+02  0.45594000000E+02  0.51100000000E-03 0. -1.
         11   -1    0    0    0    0 -0.00000000000E+00 -0.00000000000E+00 -0.45593999997E+02  0.45594000000E+02  0.51100000000E-03 0.  1.
    9900012    2    1    2    0    0  0.26440513734E+02 -0.30378021099E+02 -0.55892708561E+01  0.50528869646E+02  0.30000029775E+02 0.  0.
         12    1    1    2    0    0 -0.26440513734E+02  0.30378021099E+02  0.55892708561E+01  0.40659130354E+02  0.00000000000E+00 0. -1.
         11    1    3    3    0    0 -0.24393079565E+01 -0.39695873106E+01  0.42251031442E+01  0.62896218935E+01  0.51100000000E-03 0. -1.
        -11    1    3    3    0    0  0.18408172211E+02 -0.26907646857E+02 -0.83475518414E+01  0.33653586518E+02  0.51100000000E-03 0.  1.
         12    1    3    3    0    0  0.10471649480E+02  0.49921306813E+00 -0.14668221589E+01  0.10585661234E+02  0.00000000000E+00 0. -1.
</event>
<event>
 7    1  0.5946946E-013  0.5052887E+02  0.7816164E-02  0.1300439E+00
        -11   -1    0    0    0    0  0.00000000000E+00  0.00000000000E+00  0.45593999997E+02  0.45594000000E+02  0.51100000000E-03 0. -1.
         11   -1    0    0    0    0 -0.00000000000E+00 -0.00000000000E+00 -0.45593999997E+02  0.45594000000E+02  0.51100000000E-03 0.  1.
    9900012    2    1    2    0    0  0.16720894847E+02  0.11795575855E+02 -0.35134613726E+02  0.50528867989E+02  0.30000024739E+02 0.  0.
         12    1    1    2    0    0 -0.16720894847E+02 -0.11795575855E+02  0.35134613726E+02  0.40659132011E+02  0.00000000000E+00 0. -1.
         11    1    3    3    0    0  0.10553229006E+02  0.52628386132E+01 -0.24529664947E+01  0.12045130037E+02  0.51100000000E-03 0. -1.
        -11    1    3    3    0    0  0.98376864246E+00 -0.21878278346E+01 -0.26490344719E+02  0.26598735966E+02  0.51100000000E-03 0.  1.
        -12    1    3    3    0    0  0.51838971988E+01  0.87205650764E+01 -0.61913025118E+01  0.11885001986E+02  0.00000000000E+00 0.  1.
</event>
<event>
 7    1  0.5946946E-013  0.5052886E+02  0.7816164E-02  0.1300439E+00
        -11   -1    0    0    0    0  0.00000000000E+00  0.00000000000E+00  0.45593999997E+02  0.45594000000E+02  0.51100000000E-03 0. -1.
         11   -1    0    0    0    0 -0.00000000000E+00 -0.00000000000E+00 -0.45593999997E+02  0.45594000000E+02  0.51100000000E-03 0.  1.
    9900012    2    1    2    0    0 -0.80603269379E+01 -0.29049346063E+02 -0.27282448129E+02  0.50528863844E+02  0.30000012140E+02 0.  0.
         12    1    1    2    0    0  0.80603269379E+01  0.29049346063E+02  0.27282448129E+02  0.40659136156E+02  0.00000000000E+00 0. -1.
         11    1    3    3    0    0 -0.12877100386E+02 -0.12365214078E+02 -0.24127731869E+02  0.30014424515E+02  0.51100000000E-03 0. -1.
        -11    1    3    3    0    0  0.26022242569E+01 -0.14097937176E+02 -0.65003657931E+01  0.15740970727E+02  0.51100000000E-03 0.  1.
         12    1    3    3    0    0  0.22145491915E+01 -0.25861948084E+01  0.33456495324E+01  0.47734686028E+01  0.00000000000E+00 0. -1.
</event>
<event>
 7    1  0.5946946E-013  0.5052887E+02  0.7816164E-02  0.1300439E+00
        -11   -1    0    0    0    0  0.00000000000E+00  0.00000000000E+00  0.45593999997E+02  0.45594000000E+02  0.51100000000E-03 0.  1.
         11   -1    0    0    0    0 -0.00000000000E+00 -0.00000000000E+00 -0.45593999997E+02  0.45594000000E+02  0.51100000000E-03 0. -1.
    9900012    2    1    2    0    0  0.10364283076E+02 -0.36771919125E+02  0.13913038258E+02  0.50528867774E+02  0.30000024085E+02 0.  0.
         12    1    1    2    0    0 -0.10364283076E+02  0.36771919125E+02 -0.13913038258E+02  0.40659132226E+02  0.00000000000E+00 0. -1.
         11    1    3    3    0    0 -0.13864609559E+01 -0.15181223296E+01 -0.39571141884E+01  0.44593410220E+01  0.51100000000E-03 0. -1.
        -11    1    3    3    0    0  0.14101630112E+02 -0.34342340399E+02  0.20514498973E+02  0.42415763394E+02  0.51100000000E-03 0.  1.
        -12    1    3    3    0    0 -0.23508860796E+01 -0.91145639611E+00 -0.26443465268E+01  0.36537633579E+01  0.00000000000E+00 0.  1.
</event>
<event>
 7    1  0.5946946E-013  0.5052886E+02  0.7816164E-02  0.1300439E+00
        -11   -1    0    0    0    0  0.00000000000E+00  0.00000000000E+00  0.45593999997E+02  0.45594000000E+02  0.51100000000E-03 0.  1.
         11   -1    0    0    0    0 -0.00000000000E+00 -0.00000000000E+00 -0.45593999997E+02  0.45594000000E+02  0.51100000000E-03 0. -1.
    9900012    2    1    2    0    0  0.27580132437E+02  0.17950124319E+01  0.29820793554E+02  0.50528861998E+02  0.30000006529E+02 0.  0.
         12    1    1    2    0    0 -0.27580132437E+02 -0.17950124319E+01 -0.29820793554E+02  0.40659138002E+02  0.00000000000E+00 0. -1.
         11    1    3    3    0    0  0.30009116118E+01  0.13217172790E+01 -0.25505932317E+01  0.41542668621E+01  0.51100000000E-03 0. -1.
        -11    1    3    3    0    0  0.19304430502E+02 -0.42651575787E+01  0.33785133022E+02  0.39144448134E+02  0.51100000000E-03 0.  1.
        -12    1    3    3    0    0  0.52747903233E+01  0.47384527315E+01 -0.14137462358E+01  0.72301470015E+01  0.00000000000E+00 0.  1.
</event>
<event>
 7    1  0.5946946E-013  0.5052886E+02  0.7816164E-02  0.1300439E+00
        -11   -1    0    0    0    0  0.00000000000E+00  0.00000000000E+00  0.45593999997E+02  0.45594000000E+02  0.51100000000E-03 0. -1.
         11   -1    0    0    0    0 -0.00000000000E+00 -0.00000000000E+00 -0.45593999997E+02  0.45594000000E+02  0.51100000000E-03 0.  1.
    9900012    2    1    2    0    0  0.19286129728E+02 -0.26099038711E+01 -0.35698733326E+02  0.50528856389E+02  0.29999989481E+02 0.  0.
         12    1    1    2    0    0 -0.19286129728E+02  0.26099038711E+01  0.35698733326E+02  0.40659143611E+02  0.00000000000E+00 0. -1.
         11    1    3    3    0    0 -0.12723884680E+01 -0.73349904359E+01 -0.73929904527E+00  0.74811510109E+01  0.51100000000E-03 0. -1.
        -11    1    3    3    0    0  0.15421373355E+02  0.33848496929E+01 -0.12988698171E+02  0.20444614059E+02  0.51100000000E-03 0.  1.
         12    1    3    3    0    0  0.51371448411E+01  0.13402368719E+01 -0.21970736109E+02  0.22603091319E+02  0.00000000000E+00 0. -1.
</event>
<event>
 7    1  0.5946946E-013  0.5052886E+02  0.7816164E-02  0.1300439E+00
        -11   -1    0    0    0    0  0.00000000000E+00  0.00000000000E+00  0.45593999997E+02  0.45594000000E+02  0.51100000000E-03 0. -1.
         11   -1    0    0    0    0 -0.00000000000E+00 -0.00000000000E+00 -0.45593999997E+02  0.45594000000E+02  0.51100000000E-03 0.  1.
    9900012    2    1    2    0    0  0.11486710733E+02  0.38934097169E+02 -0.23146138898E+01  0.50528857322E+02  0.29999992317E+02 0.  0.
         12    1    1    2    0    0 -0.11486710733E+02 -0.38934097169E+02  0.23146138898E+01  0.40659142678E+02  0.00000000000E+00 0. -1.
         11    1    3    3    0    0  0.91127100386E+01  0.67926720076E+01  0.79463352214E+01  0.13868169344E+02  0.51100000000E-03 0. -1.
        -11    1    3    3    0    0  0.53610178285E-01  0.28035306553E+02 -0.13320368153E+02  0.31038902937E+02  0.51100000000E-03 0.  1.
        -12    1    3    3    0    0  0.23203905162E+01  0.41061186084E+01  0.30594190415E+01  0.56217850409E+01  0.00000000000E+00 0.  1.
</event>
<event>
 7    1  0.5946946E-013  0.5052886E+02  0.7816164E-02  0.1300439E+00
        -11   -1    0    0    0    0  0.00000000000E+00  0.00000000000E+00  0.45593999997E+02  0.45594000000E+02  0.51100000000E-03 0. -1.
         11   -1    0    0    0    0 -0.00000000000E+00 -0.00000000000E+00 -0.45593999997E+02  0.45594000000E+02  0.51100000000E-03 0.  1.
    9900012    2    1    2    0    0 -0.33793542260E+02  0.16235425455E+02 -0.15734468036E+02  0.50528855610E+02  0.29999987111E+02 0.  0.
         12    1    1    2    0    0  0.33793542260E+02 -0.16235425455E+02  0.15734468036E+02  0.40659144390E+02  0.00000000000E+00 0. -1.
         11    1    3    3    0    0 -0.10819128163E+01  0.73054397774E+00  0.10359747633E+01  0.16665754759E+01  0.51100000000E-03 0. -1.
        -11    1    3    3    0    0 -0.16263688207E+02 -0.61570114746E+01 -0.99248564161E+00  0.17418420491E+02  0.51100000000E-03 0.  1.
        -12    1    3    3    0    0 -0.16447941237E+02  0.21661892952E+02 -0.15777957158E+02  0.31443859643E+02  0.00000000000E+00 0.  1.
</event>
<event>
 7    1  0.5946946E-013  0.5052882E+02  0.7816164E-02  0.1300439E+00
        -11   -1    0    0    0    0  0.00000000000E+00  0.00000000000E+00  0.45593999997E+02  0.45594000000E+02  0.51100000000E-03 0. -1.
         11   -1    0    0    0    0 -0.00000000000E+00 -0.00000000000E+00 -0.45593999997E+02  0.45594000000E+02  0.51100000000E-03 0.  1.
    9900012    2    1    2    0    0 -0.39331143375E+02 -0.88215969787E+01  0.53300797797E+01  0.50528816992E+02  0.29999869727E+02 0.  0.
         12    1    1    2    0    0  0.39331143375E+02  0.88215969787E+01 -0.53300797797E+01  0.40659183008E+02  0.00000000000E+00 0. -1.
         11    1    3    3    0    0 -0.77007638517E+01  0.68029500026E+01  0.49303621311E+01  0.11396945365E+02  0.51100000000E-03 0. -1.
        -11    1    3    3    0    0 -0.18496486268E+02 -0.16241233198E+02  0.51568904584E+01  0.25149377319E+02  0.51100000000E-03 0.  1.
        -12    1    3    3    0    0 -0.13133893255E+02  0.61668621704E+00 -0.47571728098E+01  0.13982494308E+02  0.00000000000E+00 0.  1.
</event>
<event>
 7    1  0.5946946E-013  0.5052887E+02  0.7816164E-02  0.1300439E+00
        -11   -1    0    0    0    0  0.00000000000E+00  0.00000000000E+00  0.45593999997E+02  0.45594000000E+02  0.51100000000E-03 0.  1.
         11   -1    0    0    0    0 -0.00000000000E+00 -0.00000000000E+00 -0.45593999997E+02  0.45594000000E+02  0.51100000000E-03 0. -1.
    9900012    2    1    2    0    0 -0.77053636253E+01  0.36566383709E+02  0.16021602895E+02  0.50528870577E+02  0.30000032605E+02 0.  0.
         12    1    1    2    0    0  0.77053636253E+01 -0.36566383709E+02 -0.16021602895E+02  0.40659129423E+02  0.00000000000E+00 0. -1.
         11    1    3    3    0    0 -0.73954671152E+01  0.74802589386E+01 -0.27411846444E+01  0.10870202443E+02  0.51100000000E-03 0. -1.
        -11    1    3    3    0    0  0.70628019070E+01  0.19848366317E+02  0.52608627227E+01  0.21714453552E+02  0.51100000000E-03 0.  1.
        -12    1    3    3    0    0 -0.73726984171E+01  0.92377584534E+01  0.13501924816E+02  0.17944214581E+02  0.00000000000E+00 0.  1.
</event>
<event>
 7    1  0.5946946E-013  0.5052884E+02  0.7816164E-02  0.1300439E+00
        -11   -1    0    0    0    0  0.00000000000E+00  0.00000000000E+00  0.45593999997E+02  0.45594000000E+02  0.51100000000E-03 0.  1.
         11   -1    0    0    0    0 -0.00000000000E+00 -0.00000000000E+00 -0.45593999997E+02  0.45594000000E+02  0.51100000000E-03 0. -1.
    9900012    2    1    2    0    0  0.21215043183E+02  0.19424135998E+02  0.28736596236E+02  0.50528842609E+02  0.29999947593E+02 0.  0.
         12    1    1    2    0    0 -0.21215043183E+02 -0.19424135998E+02 -0.28736596236E+02  0.40659157391E+02  0.00000000000E+00 0. -1.
         11    1    3    3    0    0  0.62005816701E+00  0.14638113800E+02  0.15573279724E+02  0.21381905654E+02  0.51100000000E-03 0. -1.
        -11    1    3    3    0    0  0.13919821968E+02  0.22703375784E+01  0.16125342045E+02  0.21422944071E+02  0.51100000000E-03 0.  1.
         12    1    3    3    0    0  0.66751630479E+01  0.25156846194E+01 -0.29620255325E+01  0.77239928842E+01  0.00000000000E+00 0. -1.
</event>
<event>
 7    1  0.5946946E-013  0.5052886E+02  0.7816164E-02  0.1300439E+00
        -11   -1    0    0    0    0  0.00000000000E+00  0.00000000000E+00  0.45593999997E+02  0.45594000000E+02  0.51100000000E-03 0.  1.
         11   -1    0    0    0    0 -0.00000000000E+00 -0.00000000000E+00 -0.45593999997E+02  0.45594000000E+02  0.51100000000E-03 0. -1.
    9900012    2    1    2    0    0 -0.28304948592E+01 -0.10804280859E+02  0.39095032050E+02  0.50528859367E+02  0.29999998530E+02 0.  0.
         12    1    1    2    0    0  0.28304948592E+01  0.10804280859E+02 -0.39095032050E+02  0.40659140633E+02  0.00000000000E+00 0. -1.
         11    1    3    3    0    0 -0.12119143299E+02 -0.71796453998E+01  0.18523028573E+02  0.23270658138E+02  0.51100000000E-03 0. -1.
        -11    1    3    3    0    0  0.58327672882E+01  0.23364130941E+01  0.19240346533E+02  0.20240329428E+02  0.51100000000E-03 0.  1.
        -12    1    3    3    0    0  0.34558811518E+01 -0.59610485537E+01  0.13316569440E+01  0.70178718007E+01  0.00000000000E+00 0.  1.
</event>
<event>
 7    1  0.5946946E-013  0.5052886E+02  0.7816164E-02  0.1300439E+00
        -11   -1    0    0    0    0  0.00000000000E+00  0.00000000000E+00  0.45593999997E+02  0.45594000000E+02  0.51100000000E-03 0.  1.
         11   -1    0    0    0    0 -0.00000000000E+00 -0.00000000000E+00 -0.45593999997E+02  0.45594000000E+02  0.51100000000E-03 0. -1.
    9900012    2    1    2    0    0 -0.16044202102E+02 -0.41103401943E+01  0.37132926703E+02  0.50528861259E+02  0.30000004284E+02 0.  0.
         12    1    1    2    0    0  0.16044202102E+02  0.41103401943E+01 -0.37132926703E+02  0.40659138741E+02  0.00000000000E+00 0. -1.
         11    1    3    3    0    0  0.40393785067E+01 -0.31853951390E+01  0.12976167594E+02  0.13958662063E+02  0.51100000000E-03 0. -1.
        -11    1    3    3    0    0 -0.15170887960E+02 -0.84295139366E+01  0.10669835676E+02  0.20372970827E+02  0.51100000000E-03 0.  1.
        -12    1    3    3    0    0 -0.49126926487E+01  0.75045688813E+01  0.13486923433E+02  0.16197228369E+02  0.00000000000E+00 0.  1.
</event>
<event>
 7    1  0.5946946E-013  0.5052892E+02  0.7816164E-02  0.1300439E+00
        -11   -1    0    0    0    0  0.00000000000E+00  0.00000000000E+00  0.45593999997E+02  0.45594000000E+02  0.51100000000E-03 0.  1.
         11   -1    0    0    0    0 -0.00000000000E+00 -0.00000000000E+00 -0.45593999997E+02  0.45594000000E+02  0.51100000000E-03 0. -1.
    9900012    2    1    2    0    0 -0.14937893899E+01 -0.13037574061E+02  0.38483131719E+02  0.50528915271E+02  0.30000168457E+02 0.  0.
         12    1    1    2    0    0  0.14937893899E+01  0.13037574061E+02 -0.38483131719E+02  0.40659084729E+02  0.00000000000E+00 0. -1.
         11    1    3    3    0    0  0.67617689613E+01 -0.13823337927E+01  0.35870718246E+01  0.77781392850E+01  0.51100000000E-03 0. -1.
        -11    1    3    3    0    0 -0.86194368688E+01 -0.88310867176E+01  0.37132929648E+02  0.39129748901E+02  0.51100000000E-03 0.  1.
        -12    1    3    3    0    0  0.36387851760E+00 -0.28241535504E+01 -0.22368697543E+01  0.36210270849E+01  0.00000000000E+00 0.  1.
</event>
<event>
 7    1  0.5946946E-013  0.5052886E+02  0.7816164E-02  0.1300439E+00
        -11   -1    0    0    0    0  0.00000000000E+00  0.00000000000E+00  0.45593999997E+02  0.45594000000E+02  0.51100000000E-03 0.  1.
         11   -1    0    0    0    0 -0.00000000000E+00 -0.00000000000E+00 -0.45593999997E+02  0.45594000000E+02  0.51100000000E-03 0. -1.
    9900012    2    1    2    0    0 -0.18727724954E+01  0.82684986214E+01  0.39765440507E+02  0.50528860745E+02  0.30000002719E+02 0.  0.
         12    1    1    2    0    0  0.18727724954E+01 -0.82684986214E+01 -0.39765440507E+02  0.40659139255E+02  0.00000000000E+00 0. -1.
         11    1    3    3    0    0  0.62124356993E+01  0.14433453497E+02  0.33561406153E+02  0.37057886076E+02  0.51100000000E-03 0. -1.
        -11    1    3    3    0    0 -0.66509841704E+01 -0.64945299948E+01  0.71447245876E+01  0.11724401903E+02  0.51100000000E-03 0.  1.
        -12    1    3    3    0    0 -0.14342240242E+01  0.32957511917E+00 -0.94069023373E+00  0.17465727659E+01  0.00000000000E+00 0.  1.
</event>
<event>
 7    1  0.5946946E-013  0.5052885E+02  0.7816164E-02  0.1300439E+00
        -11   -1    0    0    0    0  0.00000000000E+00  0.00000000000E+00  0.45593999997E+02  0.45594000000E+02  0.51100000000E-03 0. -1.
         11   -1    0    0    0    0 -0.00000000000E+00 -0.00000000000E+00 -0.45593999997E+02  0.45594000000E+02  0.51100000000E-03 0.  1.
    9900012    2    1    2    0    0  0.15680946193E+02 -0.14346316995E+02 -0.34662044443E+02  0.50528853307E+02  0.29999980112E+02 0.  0.
         12    1    1    2    0    0 -0.15680946193E+02  0.14346316995E+02  0.34662044443E+02  0.40659146693E+02  0.00000000000E+00 0. -1.
         11    1    3    3    0    0  0.10001960127E+02 -0.60903761340E+01 -0.10721553381E+00  0.11710823338E+02  0.51100000000E-03 0. -1.
        -11    1    3    3    0    0  0.80311384442E+01 -0.10765421940E+02 -0.21780339192E+02  0.25588604296E+02  0.51100000000E-03 0.  1.
        -12    1    3    3    0    0 -0.23521523774E+01  0.25094810793E+01 -0.12774489717E+02  0.13229425673E+02  0.00000000000E+00 0.  1.
</event>
<event>
 7    1  0.5946946E-013  0.5052887E+02  0.7816164E-02  0.1300439E+00
        -11   -1    0    0    0    0  0.00000000000E+00  0.00000000000E+00  0.45593999997E+02  0.45594000000E+02  0.51100000000E-03 0.  1.
         11   -1    0    0    0    0 -0.00000000000E+00 -0.00000000000E+00 -0.45593999997E+02  0.45594000000E+02  0.51100000000E-03 0. -1.
    9900012    2    1    2    0    0  0.10178966546E+02 -0.22682623200E+02  0.32172231385E+02  0.50528865387E+02  0.30000016831E+02 0.  0.
         12    1    1    2    0    0 -0.10178966546E+02  0.22682623200E+02 -0.32172231385E+02  0.40659134613E+02  0.00000000000E+00 0. -1.
         11    1    3    3    0    0  0.10452594519E+02 -0.59669922646E+01  0.53279356209E+01  0.13162394429E+02  0.51100000000E-03 0. -1.
        -11    1    3    3    0    0 -0.19308160174E+00 -0.15285164831E+02  0.30127804604E+02  0.33783992584E+02  0.51100000000E-03 0.  1.
        -12    1    3    3    0    0 -0.80546371321E-01 -0.14304661044E+01 -0.32835088401E+01  0.35824783736E+01  0.00000000000E+00 0.  1.
</event>
<event>
 7    1  0.5946946E-013  0.5052885E+02  0.7816164E-02  0.1300439E+00
        -11   -1    0    0    0    0  0.00000000000E+00  0.00000000000E+00  0.45593999997E+02  0.45594000000E+02  0.51100000000E-03 0.  1.
         11   -1    0    0    0    0 -0.00000000000E+00 -0.00000000000E+00 -0.45593999997E+02  0.45594000000E+02  0.51100000000E-03 0. -1.
    9900012    2    1    2    0    0 -0.36273986343E+02 -0.15740020107E+02 -0.94665689480E+01  0.50528852864E+02  0.29999978767E+02 0.  0.
         12    1    1    2    0    0  0.36273986343E+02  0.15740020107E+02  0.94665689480E+01  0.40659147136E+02  0.00000000000E+00 0. -1.
         11    1    3    3    0    0 -0.17716581806E+02 -0.38202886812E-01  0.62165252883E+01  0.18775620290E+02  0.51100000000E-03 0. -1.
        -11    1    3    3    0    0 -0.73239677888E+01 -0.76748223106E+01 -0.14401790961E+02  0.17887285563E+02  0.51100000000E-03 0.  1.
         12    1    3    3    0    0 -0.11233436747E+02 -0.80269949095E+01 -0.12813032755E+01  0.13865947011E+02  0.00000000000E+00 0. -1.
</event>
<event>
 7    1  0.5946946E-013  0.5052887E+02  0.7816164E-02  0.1300439E+00
        -11   -1    0    0    0    0  0.00000000000E+00  0.00000000000E+00  0.45593999997E+02  0.45594000000E+02  0.51100000000E-03 0. -1.
         11   -1    0    0    0    0 -0.00000000000E+00 -0.00000000000E+00 -0.45593999997E+02  0.45594000000E+02  0.51100000000E-03 0.  1.
    9900012    2    1    2    0    0  0.37939455946E+02  0.13909402978E+02 -0.45045428189E+01  0.50528871693E+02  0.30000035998E+02 0.  0.
         12    1    1    2    0    0 -0.37939455946E+02 -0.13909402978E+02  0.45045428189E+01  0.40659128307E+02  0.00000000000E+00 0. -1.
         11    1    3    3    0    0  0.36030532616E+01  0.90047956582E+01 -0.32654479311E+01  0.10233840340E+02  0.51100000000E-03 0. -1.
        -11    1    3    3    0    0  0.33922830426E+02  0.44899104525E+01 -0.66446496175E+01  0.34857841138E+02  0.51100000000E-03 0.  1.
        -12    1    3    3    0    0  0.41357225847E+00  0.41469686763E+00  0.54055547297E+01  0.54371902156E+01  0.00000000000E+00 0.  1.
</event>
<event>
 7    1  0.5946946E-013  0.5052886E+02  0.7816164E-02  0.1300439E+00
        -11   -1    0    0    0    0  0.00000000000E+00  0.00000000000E+00  0.45593999997E+02  0.45594000000E+02  0.51100000000E-03 0.  1.
         11   -1    0    0    0    0 -0.00000000000E+00 -0.00000000000E+00 -0.45593999997E+02  0.45594000000E+02  0.51100000000E-03 0. -1.
    9900012    2    1    2    0    0 -0.22751245626E+02  0.24168915209E+02  0.23482128158E+02  0.50528856099E+02  0.29999988600E+02 0.  0.
         12    1    1    2    0    0  0.22751245626E+02 -0.24168915209E+02 -0.23482128158E+02  0.40659143901E+02  0.00000000000E+00 0. -1.
         11    1    3    3    0    0 -0.69456153952E+01  0.11060507507E+02 -0.40547547140E+00  0.13066782701E+02  0.51100000000E-03 0.  1.
        -11    1    3    3    0    0 -0.94811487672E+00  0.39729959556E+01  0.18878980171E+02  0.19315783993E+02  0.51100000000E-03 0. -1.
         12    1    3    3    0    0 -0.14857515354E+02  0.91354117470E+01  0.50086234578E+01  0.18146289406E+02  0.00000000000E+00 0. -1.
</event>
<event>
 7    1  0.5946946E-013  0.5052885E+02  0.7816164E-02  0.1300439E+00
        -11   -1    0    0    0    0  0.00000000000E+00  0.00000000000E+00  0.45593999997E+02  0.45594000000E+02  0.51100000000E-03 0. -1.
         11   -1    0    0    0    0 -0.00000000000E+00 -0.00000000000E+00 -0.45593999997E+02  0.45594000000E+02  0.51100000000E-03 0.  1.
    9900012    2    1    2    0    0 -0.15920794291E+02 -0.17971431455E+02 -0.32813454799E+02  0.50528845370E+02  0.29999955987E+02 0.  0.
         12    1    1    2    0    0  0.15920794291E+02  0.17971431455E+02  0.32813454799E+02  0.40659154630E+02  0.00000000000E+00 0. -1.
         11    1    3    3    0    0 -0.22551936852E+01  0.46581530622E+01 -0.10240285352E+02  0.11473784592E+02  0.51100000000E-03 0. -1.
        -11    1    3    3    0    0 -0.16027086454E+02 -0.23008129196E+02 -0.16515429159E+02  0.32542294171E+02  0.51100000000E-03 0.  1.
        -12    1    3    3    0    0  0.23614858487E+01  0.37854467936E+00 -0.60577402875E+01  0.65127666072E+01  0.00000000000E+00 0.  1.
</event>
<event>
 7    1  0.5946946E-013  0.5052885E+02  0.7816164E-02  0.1300439E+00
        -11   -1    0    0    0    0  0.00000000000E+00  0.00000000000E+00  0.45593999997E+02  0.45594000000E+02  0.51100000000E-03 0.  1.
         11   -1    0    0    0    0 -0.00000000000E+00 -0.00000000000E+00 -0.45593999997E+02  0.45594000000E+02  0.51100000000E-03 0. -1.
    9900012    2    1    2    0    0 -0.15881713650E+02 -0.32856129200E+02  0.17927975161E+02  0.50528851609E+02  0.29999974952E+02 0.  0.
         12    1    1    2    0    0  0.15881713650E+02  0.32856129200E+02 -0.17927975161E+02  0.40659148391E+02  0.00000000000E+00 0. -1.
         11    1    3    3    0    0  0.16384639813E+01 -0.16856129492E+01  0.67012783944E+01  0.71016186615E+01  0.51100000000E-03 0. -1.
        -11    1    3    3    0    0 -0.22091403052E+02 -0.29950552602E+02  0.10132246165E+02  0.38571078577E+02  0.51100000000E-03 0.  1.
        -12    1    3    3    0    0  0.45712254212E+01 -0.12199636497E+01  0.10944506015E+01  0.48561543713E+01  0.00000000000E+00 0.  1.
</event>
<event>
 7    1  0.5946946E-013  0.5052886E+02  0.7816164E-02  0.1300439E+00
        -11   -1    0    0    0    0  0.00000000000E+00  0.00000000000E+00  0.45593999997E+02  0.45594000000E+02  0.51100000000E-03 0.  1.
         11   -1    0    0    0    0 -0.00000000000E+00 -0.00000000000E+00 -0.45593999997E+02  0.45594000000E+02  0.51100000000E-03 0. -1.
    9900012    2    1    2    0    0 -0.38121544136E+02 -0.13976784241E+02  0.21361497799E+01  0.50528858827E+02  0.29999996889E+02 0.  0.
         12    1    1    2    0    0  0.38121544136E+02  0.13976784241E+02 -0.21361497799E+01  0.40659141173E+02  0.00000000000E+00 0. -1.
         11    1    3    3    0    0 -0.27401319650E+02 -0.21531925333E+02  0.81559574235E+00  0.34858590387E+02  0.51100000000E-03 0. -1.
        -11    1    3    3    0    0 -0.11824890656E+02  0.60658665059E+01  0.24288151756E+01  0.13510067317E+02  0.51100000000E-03 0.  1.
         12    1    3    3    0    0  0.11046661699E+01  0.14892745855E+01 -0.11082611381E+01  0.21602011221E+01  0.00000000000E+00 0. -1.
</event>
<event>
 7    1  0.5946946E-013  0.5052886E+02  0.7816164E-02  0.1300439E+00
        -11   -1    0    0    0    0  0.00000000000E+00  0.00000000000E+00  0.45593999997E+02  0.45594000000E+02  0.51100000000E-03 0.  1.
         11   -1    0    0    0    0 -0.00000000000E+00 -0.00000000000E+00 -0.45593999997E+02  0.45594000000E+02  0.51100000000E-03 0. -1.
    9900012    2    1    2    0    0  0.13805858435E+02 -0.37626808500E+02  0.68400950313E+01  0.50528863942E+02  0.30000012437E+02 0.  0.
         12    1    1    2    0    0 -0.13805858435E+02  0.37626808500E+02 -0.68400950313E+01  0.40659136058E+02  0.00000000000E+00 0. -1.
         11    1    3    3    0    0  0.45055909885E+01 -0.19927601355E+01 -0.91882900854E+00  0.50115556588E+01  0.51100000000E-03 0.  1.
        -11    1    3    3    0    0 -0.68372719629E+01 -0.97607961341E+01 -0.43798812218E+01  0.12696644787E+02  0.51100000000E-03 0. -1.
        -12    1    3    3    0    0  0.16137539409E+02 -0.25873252230E+02  0.12138805262E+02  0.32820663496E+02  0.00000000000E+00 0.  1.
</event>
<event>
 7    1  0.5946946E-013  0.5052886E+02  0.7816164E-02  0.1300439E+00
        -11   -1    0    0    0    0  0.00000000000E+00  0.00000000000E+00  0.45593999997E+02  0.45594000000E+02  0.51100000000E-03 0. -1.
         11   -1    0    0    0    0 -0.00000000000E+00 -0.00000000000E+00 -0.45593999997E+02  0.45594000000E+02  0.51100000000E-03 0.  1.
    9900012    2    1    2    0    0  0.33527986181E+01  0.40345295206E+02  0.37658059047E+01  0.50528863290E+02  0.30000010458E+02 0.  0.
         12    1    1    2    0    0 -0.33527986181E+01 -0.40345295206E+02 -0.37658059047E+01  0.40659136710E+02  0.00000000000E+00 0. -1.
         11    1    3    3    0    0  0.10097215256E+02  0.38455906023E+01  0.54489920208E+01  0.12100984973E+02  0.51100000000E-03 0. -1.
        -11    1    3    3    0    0  0.22672975172E+01  0.34900822811E+01  0.10940786549E+00  0.41633259183E+01  0.51100000000E-03 0.  1.
         12    1    3    3    0    0 -0.90117141555E+01  0.33009622323E+02 -0.17925939816E+01  0.34264552399E+02  0.00000000000E+00 0. -1.
</event>
<event>
 7    1  0.5946946E-013  0.5052885E+02  0.7816164E-02  0.1300439E+00
        -11   -1    0    0    0    0  0.00000000000E+00  0.00000000000E+00  0.45593999997E+02  0.45594000000E+02  0.51100000000E-03 0. -1.
         11   -1    0    0    0    0 -0.00000000000E+00 -0.00000000000E+00 -0.45593999997E+02  0.45594000000E+02  0.51100000000E-03 0.  1.
    9900012    2    1    2    0    0 -0.70360013888E+01 -0.23235710688E+02 -0.32615383597E+02  0.50528845878E+02  0.29999957532E+02 0.  0.
         12    1    1    2    0    0  0.70360013888E+01  0.23235710688E+02  0.32615383597E+02  0.40659154122E+02  0.00000000000E+00 0. -1.
         11    1    3    3    0    0  0.95900362092E+01 -0.10983677032E+02 -0.63315171007E+01  0.15896479632E+02  0.51100000000E-03 0. -1.
        -11    1    3    3    0    0  0.21364223808E+00 -0.62772668230E+00 -0.52346000367E+01  0.52764307632E+01  0.51100000000E-03 0.  1.
         12    1    3    3    0    0 -0.16839679836E+02 -0.11624306974E+02 -0.21049266459E+02  0.29355935483E+02  0.00000000000E+00 0. -1.
</event>
<event>
 7    1  0.5946946E-013  0.5052886E+02  0.7816164E-02  0.1300439E+00
        -11   -1    0    0    0    0  0.00000000000E+00  0.00000000000E+00  0.45593999997E+02  0.45594000000E+02  0.51100000000E-03 0.  1.
         11   -1    0    0    0    0 -0.00000000000E+00 -0.00000000000E+00 -0.45593999997E+02  0.45594000000E+02  0.51100000000E-03 0. -1.
    9900012    2    1    2    0    0 -0.22617608166E+02 -0.23658230367E+02  0.24122549254E+02  0.50528862702E+02  0.30000008670E+02 0.  0.
         12    1    1    2    0    0  0.22617608166E+02  0.23658230367E+02 -0.24122549254E+02  0.40659137298E+02  0.00000000000E+00 0. -1.
         11    1    3    3    0    0 -0.47683040842E+01  0.22330963191E+01  0.13385954239E+02  0.14384269678E+02  0.51100000000E-03 0. -1.
        -11    1    3    3    0    0 -0.18899789946E+02 -0.16751814619E+02  0.87905172205E+01  0.26741326562E+02  0.51100000000E-03 0.  1.
         12    1    3    3    0    0  0.10504858644E+01 -0.91395120675E+01  0.19460777944E+01  0.94032664625E+01  0.00000000000E+00 0. -1.
</event>
<event>
 7    1  0.5946946E-013  0.5052886E+02  0.7816164E-02  0.1300439E+00
        -11   -1    0    0    0    0  0.00000000000E+00  0.00000000000E+00  0.45593999997E+02  0.45594000000E+02  0.51100000000E-03 0.  1.
         11   -1    0    0    0    0 -0.00000000000E+00 -0.00000000000E+00 -0.45593999997E+02  0.45594000000E+02  0.51100000000E-03 0. -1.
    9900012    2    1    2    0    0  0.18402460557E+02 -0.14279226468E+02  0.33325942574E+02  0.50528864354E+02  0.30000013690E+02 0.  0.
         12    1    1    2    0    0 -0.18402460557E+02  0.14279226468E+02 -0.33325942574E+02  0.40659135646E+02  0.00000000000E+00 0. -1.
         11    1    3    3    0    0  0.17890593492E+02  0.26128623379E+01  0.11974400734E+02  0.21686093661E+02  0.51100000000E-03 0. -1.
        -11    1    3    3    0    0 -0.22835075892E+01 -0.98300125052E+01  0.60668087980E+01  0.11774961657E+02  0.51100000000E-03 0.  1.
         12    1    3    3    0    0  0.27953746543E+01 -0.70620763010E+01  0.15284733042E+02  0.17067809036E+02  0.00000000000E+00 0. -1.
</event>
<event>
 7    1  0.5946946E-013  0.5052886E+02  0.7816164E-02  0.1300439E+00
        -11   -1    0    0    0    0  0.00000000000E+00  0.00000000000E+00  0.45593999997E+02  0.45594000000E+02  0.51100000000E-03 0.  1.
         11   -1    0    0    0    0 -0.00000000000E+00 -0.00000000000E+00 -0.45593999997E+02  0.45594000000E+02  0.51100000000E-03 0. -1.
    9900012    2    1    2    0    0 -0.93824668309E+01  0.32645973941E+02  0.22346715767E+02  0.50528855838E+02  0.29999987806E+02 0.  0.
         12    1    1    2    0    0  0.93824668309E+01 -0.32645973941E+02 -0.22346715767E+02  0.40659144162E+02  0.00000000000E+00 0. -1.
         11    1    3    3    0    0 -0.10532700112E+02  0.31784187184E+01  0.40970659513E+01  0.11739934705E+02  0.51100000000E-03 0. -1.
        -11    1    3    3    0    0  0.43522876859E+01  0.29812711709E+02  0.18812196080E+02  0.35519556714E+02  0.51100000000E-03 0.  1.
        -12    1    3    3    0    0 -0.32020544047E+01 -0.34515648584E+00 -0.56254626424E+00  0.32693644199E+01  0.00000000000E+00 0.  1.
</event>
<event>
 7    1  0.5946946E-013  0.5052885E+02  0.7816164E-02  0.1300439E+00
        -11   -1    0    0    0    0  0.00000000000E+00  0.00000000000E+00  0.45593999997E+02  0.45594000000E+02  0.51100000000E-03 0.  1.
         11   -1    0    0    0    0 -0.00000000000E+00 -0.00000000000E+00 -0.45593999997E+02  0.45594000000E+02  0.51100000000E-03 0. -1.
    9900012    2    1    2    0    0 -0.17875108658E+02 -0.17545556927E+02  0.32028119995E+02  0.50528849150E+02  0.29999967477E+02 0.  0.
         12    1    1    2    0    0  0.17875108658E+02  0.17545556927E+02 -0.32028119995E+02  0.40659150850E+02  0.00000000000E+00 0. -1.
         11    1    3    3    0    0 -0.33987654304E+01 -0.28776122772E+01  0.33834749374E+01  0.55928670448E+01  0.51100000000E-03 0. -1.
        -11    1    3    3    0    0 -0.15379003071E+02 -0.10863684270E+01  0.27202448699E+01  0.15655467551E+02  0.51100000000E-03 0.  1.
        -12    1    3    3    0    0  0.90265984366E+00 -0.13581576223E+02  0.25924400188E+02  0.29280514555E+02  0.00000000000E+00 0.  1.
</event>
<event>
 7    1  0.5946946E-013  0.5052884E+02  0.7816164E-02  0.1300439E+00
        -11   -1    0    0    0    0  0.00000000000E+00  0.00000000000E+00  0.45593999997E+02  0.45594000000E+02  0.51100000000E-03 0. -1.
         11   -1    0    0    0    0 -0.00000000000E+00 -0.00000000000E+00 -0.45593999997E+02  0.45594000000E+02  0.51100000000E-03 0.  1.
    9900012    2    1    2    0    0  0.30412327502E+02  0.32669399278E+01 -0.26787768968E+02  0.50528842029E+02  0.29999945832E+02 0.  0.
         12    1    1    2    0    0 -0.30412327502E+02 -0.32669399278E+01  0.26787768968E+02  0.40659157971E+02  0.00000000000E+00 0. -1.
         11    1    3    3    0    0 -0.35569035992E+01  0.26008502197E+01 -0.69996629610E+01  0.82711103794E+01  0.51100000000E-03 0. -1.
        -11    1    3    3    0    0  0.31407332931E+02  0.34686587755E+01 -0.12387134339E+02  0.33939552928E+02  0.51100000000E-03 0.  1.
        -12    1    3    3    0    0  0.25618981702E+01 -0.28025690673E+01 -0.74009716684E+01  0.83181787218E+01  0.00000000000E+00 0.  1.
</event>
<event>
 7    1  0.5946946E-013  0.5052886E+02  0.7816164E-02  0.1300439E+00
        -11   -1    0    0    0    0  0.00000000000E+00  0.00000000000E+00  0.45593999997E+02  0.45594000000E+02  0.51100000000E-03 0.  1.
         11   -1    0    0    0    0 -0.00000000000E+00 -0.00000000000E+00 -0.45593999997E+02  0.45594000000E+02  0.51100000000E-03 0. -1.
    9900012    2    1    2    0    0  0.47948539291E+01  0.33962723236E+01  0.40232333590E+02  0.50528856428E+02  0.29999989600E+02 0.  0.
         12    1    1    2    0    0 -0.47948539291E+01 -0.33962723236E+01 -0.40232333590E+02  0.40659143572E+02  0.00000000000E+00 0. -1.
         11    1    3    3    0    0  0.44463116302E+01 -0.97115169829E+01  0.18810245542E+02  0.21631194762E+02  0.51100000000E-03 0. -1.
        -11    1    3    3    0    0 -0.68156235131E+01  0.83582408994E+01  0.12477645808E+02  0.16492560747E+02  0.51100000000E-03 0.  1.
         12    1    3    3    0    0  0.71641658119E+01  0.47495484071E+01  0.89444422388E+01  0.12405100919E+02  0.00000000000E+00 0. -1.
</event>
<event>
 7    1  0.5946946E-013  0.5052886E+02  0.7816164E-02  0.1300439E+00
        -11   -1    0    0    0    0  0.00000000000E+00  0.00000000000E+00  0.45593999997E+02  0.45594000000E+02  0.51100000000E-03 0. -1.
         11   -1    0    0    0    0 -0.00000000000E+00 -0.00000000000E+00 -0.45593999997E+02  0.45594000000E+02  0.51100000000E-03 0.  1.
    9900012    2    1    2    0    0  0.42316909120E+01 -0.34455788671E+01 -0.40291266368E+02  0.50528863669E+02  0.30000011607E+02 0.  0.
         12    1    1    2    0    0 -0.42316909120E+01  0.34455788671E+01  0.40291266368E+02  0.40659136331E+02  0.00000000000E+00 0. -1.
         11    1    3    3    0    0  0.10217346591E+02  0.78724644245E+01 -0.12004688638E+02  0.17620511259E+02  0.51100000000E-03 0. -1.
        -11    1    3    3    0    0 -0.91004452205E-01 -0.68542788439E+01 -0.22494520238E+02  0.23515800247E+02  0.51100000000E-03 0.  1.
         12    1    3    3    0    0 -0.58946512267E+01 -0.44637644477E+01 -0.57920574919E+01  0.93925521621E+01  0.00000000000E+00 0. -1.
</event>
<event>
 7    1  0.5946946E-013  0.5052886E+02  0.7816164E-02  0.1300439E+00
        -11   -1    0    0    0    0  0.00000000000E+00  0.00000000000E+00  0.45593999997E+02  0.45594000000E+02  0.51100000000E-03 0.  1.
         11   -1    0    0    0    0 -0.00000000000E+00 -0.00000000000E+00 -0.45593999997E+02  0.45594000000E+02  0.51100000000E-03 0. -1.
    9900012    2    1    2    0    0  0.10479902220E+02  0.23057433524E+02  0.31807101555E+02  0.50528864488E+02  0.30000014098E+02 0.  0.
         12    1    1    2    0    0 -0.10479902220E+02 -0.23057433524E+02 -0.31807101555E+02  0.40659135512E+02  0.00000000000E+00 0. -1.
         11    1    3    3    0    0 -0.98231404416E+01  0.59320334774E+01  0.60779019667E+01  0.12985530482E+02  0.51100000000E-03 0. -1.
        -11    1    3    3    0    0  0.78605366541E+01  0.70028105197E+01  0.14685591047E+02  0.18069144316E+02  0.51100000000E-03 0.  1.
         12    1    3    3    0    0  0.12442506008E+02  0.10122589526E+02  0.11043608542E+02  0.19474189691E+02  0.00000000000E+00 0. -1.
</event>
<event>
 7    1  0.5946946E-013  0.5052886E+02  0.7816164E-02  0.1300439E+00
        -11   -1    0    0    0    0  0.00000000000E+00  0.00000000000E+00  0.45593999997E+02  0.45594000000E+02  0.51100000000E-03 0.  1.
         11   -1    0    0    0    0 -0.00000000000E+00 -0.00000000000E+00 -0.45593999997E+02  0.45594000000E+02  0.51100000000E-03 0. -1.
    9900012    2    1    2    0    0 -0.12250308782E+02  0.20828644710E+02  0.32699593086E+02  0.50528857195E+02  0.29999991929E+02 0.  0.
         12    1    1    2    0    0  0.12250308782E+02 -0.20828644710E+02 -0.32699593086E+02  0.40659142805E+02  0.00000000000E+00 0. -1.
         11    1    3    3    0    0  0.12841840748E+01 -0.56611610356E+00  0.11745708671E+02  0.11829255625E+02  0.51100000000E-03 0.  1.
        -11    1    3    3    0    0 -0.69491769214E+01  0.89522455781E+01 -0.22548722989E+01  0.11555008010E+02  0.51100000000E-03 0. -1.
         12    1    3    3    0    0 -0.65853159350E+01  0.12442515236E+02  0.23208756713E+02  0.27144593560E+02  0.00000000000E+00 0. -1.
</event>
<event>
 7    1  0.5946946E-013  0.5052885E+02  0.7816164E-02  0.1300439E+00
        -11   -1    0    0    0    0  0.00000000000E+00  0.00000000000E+00  0.45593999997E+02  0.45594000000E+02  0.51100000000E-03 0. -1.
         11   -1    0    0    0    0 -0.00000000000E+00 -0.00000000000E+00 -0.45593999997E+02  0.45594000000E+02  0.51100000000E-03 0.  1.
    9900012    2    1    2    0    0  0.52207455287E+00  0.52548314130E+01 -0.40314767992E+02  0.50528851789E+02  0.29999975498E+02 0.  0.
         12    1    1    2    0    0 -0.52207455287E+00 -0.52548314130E+01  0.40314767992E+02  0.40659148211E+02  0.00000000000E+00 0. -1.
         11    1    3    3    0    0 -0.47658610940E+00 -0.11028264783E+02 -0.15701081329E+02  0.19193064206E+02  0.51100000000E-03 0. -1.
        -11    1    3    3    0    0 -0.15315427307E+00  0.11812412805E+02 -0.23905466851E+02  0.26665106378E+02  0.51100000000E-03 0.  1.
         12    1    3    3    0    0  0.11518149353E+01  0.44706833904E+01 -0.70821981129E+00  0.46706812055E+01  0.00000000000E+00 0. -1.
</event>
<event>
 7    1  0.5946946E-013  0.5052886E+02  0.7816164E-02  0.1300439E+00
        -11   -1    0    0    0    0  0.00000000000E+00  0.00000000000E+00  0.45593999997E+02  0.45594000000E+02  0.51100000000E-03 0. -1.
         11   -1    0    0    0    0 -0.00000000000E+00 -0.00000000000E+00 -0.45593999997E+02  0.45594000000E+02  0.51100000000E-03 0.  1.
    9900012    2    1    2    0    0  0.53755130312E+01  0.36527711809E+02 -0.17029259739E+02  0.50528861328E+02  0.30000004492E+02 0.  0.
         12    1    1    2    0    0 -0.53755130312E+01 -0.36527711809E+02  0.17029259739E+02  0.40659138672E+02  0.00000000000E+00 0. -1.
         11    1    3    3    0    0  0.90790604872E+01  0.75634484680E+01 -0.22369136298E-01  0.11816750514E+02  0.51100000000E-03 0. -1.
        -11    1    3    3    0    0 -0.50221220832E+01  0.26233276487E+02 -0.61079982972E+01  0.27399163288E+02  0.51100000000E-03 0.  1.
         12    1    3    3    0    0  0.13185746271E+01  0.27309868539E+01 -0.10898892305E+02  0.11312947526E+02  0.00000000000E+00 0. -1.
</event>
<event>
 7    1  0.5946946E-013  0.5052886E+02  0.7816164E-02  0.1300439E+00
        -11   -1    0    0    0    0  0.00000000000E+00  0.00000000000E+00  0.45593999997E+02  0.45594000000E+02  0.51100000000E-03 0. -1.
         11   -1    0    0    0    0 -0.00000000000E+00 -0.00000000000E+00 -0.45593999997E+02  0.45594000000E+02  0.51100000000E-03 0.  1.
    9900012    2    1    2    0    0  0.89352799923E+01 -0.27460716872E+02 -0.28622291269E+02  0.50528858873E+02  0.29999997032E+02 0.  0.
         12    1    1    2    0    0 -0.89352799923E+01  0.27460716872E+02  0.28622291269E+02  0.40659141127E+02  0.00000000000E+00 0. -1.
         11    1    3    3    0    0 -0.24685844979E+01 -0.80422546054E+01 -0.42172755075E+01  0.94104825343E+01  0.51100000000E-03 0. -1.
        -11    1    3    3    0    0  0.26424109878E+01  0.55069337778E+01 -0.18563380054E+01  0.63839366000E+01  0.51100000000E-03 0.  1.
        -12    1    3    3    0    0  0.87614535025E+01 -0.24925396044E+02 -0.22548677756E+02  0.34734439739E+02  0.00000000000E+00 0.  1.
</event>
<event>
 7    1  0.5946946E-013  0.5052886E+02  0.7816164E-02  0.1300439E+00
        -11   -1    0    0    0    0  0.00000000000E+00  0.00000000000E+00  0.45593999997E+02  0.45594000000E+02  0.51100000000E-03 0.  1.
         11   -1    0    0    0    0 -0.00000000000E+00 -0.00000000000E+00 -0.45593999997E+02  0.45594000000E+02  0.51100000000E-03 0. -1.
    9900012    2    1    2    0    0  0.11051943717E+02  0.21982714896E+02  0.32369436974E+02  0.50528860018E+02  0.30000000511E+02 0.  0.
         12    1    1    2    0    0 -0.11051943717E+02 -0.21982714896E+02 -0.32369436974E+02  0.40659139982E+02  0.00000000000E+00 0. -1.
         11    1    3    3    0    0 -0.70372395923E+01  0.67342719311E+01  0.22912099686E+01  0.10006138261E+02  0.51100000000E-03 0. -1.
        -11    1    3    3    0    0  0.15562915711E+02  0.17649427381E+02  0.24704278431E+02  0.34117561538E+02  0.51100000000E-03 0.  1.
        -12    1    3    3    0    0  0.25262675982E+01 -0.24009844160E+01  0.53739485744E+01  0.64051602184E+01  0.00000000000E+00 0.  1.
</event>
<event>
 7    1  0.5946946E-013  0.5052886E+02  0.7816164E-02  0.1300439E+00
        -11   -1    0    0    0    0  0.00000000000E+00  0.00000000000E+00  0.45593999997E+02  0.45594000000E+02  0.51100000000E-03 0.  1.
         11   -1    0    0    0    0 -0.00000000000E+00 -0.00000000000E+00 -0.45593999997E+02  0.45594000000E+02  0.51100000000E-03 0. -1.
    9900012    2    1    2    0    0 -0.24091496689E+01 -0.25335577474E+02  0.31709156113E+02  0.50528855033E+02  0.29999985358E+02 0.  0.
         12    1    1    2    0    0  0.24091496689E+01  0.25335577474E+02 -0.31709156113E+02  0.40659144967E+02  0.00000000000E+00 0. -1.
         11    1    3    3    0    0 -0.75027506510E+01 -0.42043781498E+00  0.15501723267E+02  0.17227056040E+02  0.51100000000E-03 0. -1.
        -11    1    3    3    0    0 -0.29508858741E+01 -0.18675010386E+02  0.10797741286E+02  0.21772803161E+02  0.51100000000E-03 0.  1.
        -12    1    3    3    0    0  0.80444868562E+01 -0.62401292731E+01  0.54096915600E+01  0.11528995832E+02  0.00000000000E+00 0.  1.
</event>
<event>
 7    1  0.5946946E-013  0.5052885E+02  0.7816164E-02  0.1300439E+00
        -11   -1    0    0    0    0  0.00000000000E+00  0.00000000000E+00  0.45593999997E+02  0.45594000000E+02  0.51100000000E-03 0.  1.
         11   -1    0    0    0    0 -0.00000000000E+00 -0.00000000000E+00 -0.45593999997E+02  0.45594000000E+02  0.51100000000E-03 0. -1.
    9900012    2    1    2    0    0 -0.29882508946E+02 -0.23070331480E+02  0.15098401729E+02  0.50528852564E+02  0.29999977853E+02 0.  0.
         12    1    1    2    0    0  0.29882508946E+02  0.23070331480E+02 -0.15098401729E+02  0.40659147436E+02  0.00000000000E+00 0. -1.
         11    1    3    3    0    0 -0.22165868121E+02 -0.15855487057E+02  0.16379788158E+02  0.31796535027E+02  0.51100000000E-03 0.  1.
        -11    1    3    3    0    0  0.30832297549E+01 -0.67203885109E+01 -0.26072586679E+01  0.78401355525E+01  0.51100000000E-03 0. -1.
        -12    1    3    3    0    0 -0.10799870580E+02 -0.49445591185E+00  0.13258722386E+01  0.10892181984E+02  0.00000000000E+00 0.  1.
</event>
<event>
 7    1  0.5946946E-013  0.5052886E+02  0.7816164E-02  0.1300439E+00
        -11   -1    0    0    0    0  0.00000000000E+00  0.00000000000E+00  0.45593999997E+02  0.45594000000E+02  0.51100000000E-03 0. -1.
         11   -1    0    0    0    0 -0.00000000000E+00 -0.00000000000E+00 -0.45593999997E+02  0.45594000000E+02  0.51100000000E-03 0.  1.
    9900012    2    1    2    0    0  0.26012033218E+02 -0.25994111074E+02 -0.17344916464E+02  0.50528858226E+02  0.29999995063E+02 0.  0.
         12    1    1    2    0    0 -0.26012033218E+02  0.25994111074E+02  0.17344916464E+02  0.40659141774E+02  0.00000000000E+00 0. -1.
         11    1    3    3    0    0 -0.19967801581E+01 -0.27224028225E+01  0.27975603146E+01  0.43846267917E+01  0.51100000000E-03 0. -1.
        -11    1    3    3    0    0  0.22744858603E+02 -0.86211583386E+01 -0.18359415457E+02  0.30474925761E+02  0.51100000000E-03 0.  1.
        -12    1    3    3    0    0  0.52639547733E+01 -0.14650549913E+02 -0.17830613221E+01  0.15669305674E+02  0.00000000000E+00 0.  1.
</event>
<event>
 7    1  0.5946946E-013  0.5052890E+02  0.7816164E-02  0.1300439E+00
        -11   -1    0    0    0    0  0.00000000000E+00  0.00000000000E+00  0.45593999997E+02  0.45594000000E+02  0.51100000000E-03 0.  1.
         11   -1    0    0    0    0 -0.00000000000E+00 -0.00000000000E+00 -0.45593999997E+02  0.45594000000E+02  0.51100000000E-03 0. -1.
    9900012    2    1    2    0    0  0.30172363614E+02 -0.27110386032E+02  0.27960657978E+01  0.50528898426E+02  0.30000117256E+02 0.  0.
         12    1    1    2    0    0 -0.30172363614E+02  0.27110386032E+02 -0.27960657978E+01  0.40659101574E+02  0.00000000000E+00 0. -1.
         11    1    3    3    0    0  0.10139462955E+02  0.24377798938E+01 -0.59682389308E+01  0.12015463205E+02  0.51100000000E-03 0. -1.
        -11    1    3    3    0    0  0.66892232886E+01 -0.16573311528E+02  0.87551731345E+01  0.19901593406E+02  0.51100000000E-03 0.  1.
         12    1    3    3    0    0  0.13343677370E+02 -0.12974854397E+02  0.91315941469E-02  0.18611841816E+02  0.00000000000E+00 0. -1.
</event>
<event>
 7    1  0.5946946E-013  0.5052886E+02  0.7816164E-02  0.1300439E+00
        -11   -1    0    0    0    0  0.00000000000E+00  0.00000000000E+00  0.45593999997E+02  0.45594000000E+02  0.51100000000E-03 0.  1.
         11   -1    0    0    0    0 -0.00000000000E+00 -0.00000000000E+00 -0.45593999997E+02  0.45594000000E+02  0.51100000000E-03 0. -1.
    9900012    2    1    2    0    0  0.31847567648E+02 -0.59789370456E+01  0.24559113721E+02  0.50528864249E+02  0.30000013370E+02 0.  0.
         12    1    1    2    0    0 -0.31847567648E+02  0.59789370456E+01 -0.24559113721E+02  0.40659135751E+02  0.00000000000E+00 0. -1.
         11    1    3    3    0    0 -0.23060978952E+01 -0.47224504828E+01  0.96686486399E+01  0.11004653236E+02  0.51100000000E-03 0. -1.
        -11    1    3    3    0    0  0.26612310035E+02 -0.89632654346E+00  0.17114874422E+02  0.31653394343E+02  0.51100000000E-03 0.  1.
         12    1    3    3    0    0  0.75413555079E+01 -0.36016001930E+00 -0.22244093402E+01  0.78708166698E+01  0.00000000000E+00 0. -1.
</event>
<event>
 7    1  0.5946946E-013  0.5052886E+02  0.7816164E-02  0.1300439E+00
        -11   -1    0    0    0    0  0.00000000000E+00  0.00000000000E+00  0.45593999997E+02  0.45594000000E+02  0.51100000000E-03 0.  1.
         11   -1    0    0    0    0 -0.00000000000E+00 -0.00000000000E+00 -0.45593999997E+02  0.45594000000E+02  0.51100000000E-03 0. -1.
    9900012    2    1    2    0    0 -0.18546996550E+02  0.83092622693E+01  0.35215490695E+02  0.50528859510E+02  0.29999998968E+02 0.  0.
         12    1    1    2    0    0  0.18546996550E+02 -0.83092622693E+01 -0.35215490695E+02  0.40659140490E+02  0.00000000000E+00 0. -1.
         11    1    3    3    0    0 -0.26135528706E+01  0.11471689793E+01  0.39085219151E+00  0.28808715645E+01  0.51100000000E-03 0. -1.
        -11    1    3    3    0    0  0.61985028088E+01 -0.29485806012E+00  0.62777622819E+00  0.62371853908E+01  0.51100000000E-03 0.  1.
        -12    1    3    3    0    0 -0.22131946488E+02  0.74569513501E+01  0.34196862275E+02  0.41410802555E+02  0.00000000000E+00 0.  1.
</event>
<event>
 7    1  0.5946946E-013  0.5052886E+02  0.7816164E-02  0.1300439E+00
        -11   -1    0    0    0    0  0.00000000000E+00  0.00000000000E+00  0.45593999997E+02  0.45594000000E+02  0.51100000000E-03 0.  1.
         11   -1    0    0    0    0 -0.00000000000E+00 -0.00000000000E+00 -0.45593999997E+02  0.45594000000E+02  0.51100000000E-03 0. -1.
    9900012    2    1    2    0    0 -0.27246290162E+02 -0.29828615850E+02  0.45889894659E+01  0.50528862338E+02  0.30000007562E+02 0.  0.
         12    1    1    2    0    0  0.27246290162E+02  0.29828615850E+02 -0.45889894659E+01  0.40659137662E+02  0.00000000000E+00 0. -1.
         11    1    3    3    0    0  0.71644750082E+00 -0.52901749894E+00 -0.73406729081E+01  0.73945003577E+01  0.51100000000E-03 0. -1.
        -11    1    3    3    0    0 -0.25339254355E+02 -0.26675685897E+02  0.13381233094E+02  0.39150062946E+02  0.51100000000E-03 0.  1.
         12    1    3    3    0    0 -0.26234833085E+01 -0.26239124539E+01 -0.14515707199E+01  0.39842990338E+01  0.00000000000E+00 0. -1.
</event>
<event>
 7    1  0.5946946E-013  0.5052887E+02  0.7816164E-02  0.1300439E+00
        -11   -1    0    0    0    0  0.00000000000E+00  0.00000000000E+00  0.45593999997E+02  0.45594000000E+02  0.51100000000E-03 0.  1.
         11   -1    0    0    0    0 -0.00000000000E+00 -0.00000000000E+00 -0.45593999997E+02  0.45594000000E+02  0.51100000000E-03 0. -1.
    9900012    2    1    2    0    0  0.59109197295E+01 -0.25804139044E+02  0.30860532441E+02  0.50528867860E+02  0.30000024347E+02 0.  0.
         12    1    1    2    0    0 -0.59109197295E+01  0.25804139044E+02 -0.30860532441E+02  0.40659132140E+02  0.00000000000E+00 0. -1.
         11    1    3    3    0    0  0.50276092887E+01  0.47304084136E+01  0.31808726311E+01  0.76007611379E+01  0.51100000000E-03 0. -1.
        -11    1    3    3    0    0  0.48247420984E+01 -0.11785151998E+02  0.16151934656E+02  0.20568250711E+02  0.51100000000E-03 0.  1.
         12    1    3    3    0    0 -0.39414316575E+01 -0.18749395459E+02  0.11527725154E+02  0.22359856011E+02  0.00000000000E+00 0. -1.
</event>
<event>
 7    1  0.5946946E-013  0.5052886E+02  0.7816164E-02  0.1300439E+00
        -11   -1    0    0    0    0  0.00000000000E+00  0.00000000000E+00  0.45593999997E+02  0.45594000000E+02  0.51100000000E-03 0.  1.
         11   -1    0    0    0    0 -0.00000000000E+00 -0.00000000000E+00 -0.45593999997E+02  0.45594000000E+02  0.51100000000E-03 0. -1.
    9900012    2    1    2    0    0  0.25795343398E+02 -0.26567960406E+02  0.16790161375E+02  0.50528858591E+02  0.29999996172E+02 0.  0.
         12    1    1    2    0    0 -0.25795343398E+02  0.26567960406E+02 -0.16790161375E+02  0.40659141409E+02  0.00000000000E+00 0. -1.
         11    1    3    3    0    0  0.28425223529E+01 -0.20982781979E+02  0.14010013626E+02  0.25389713566E+02  0.51100000000E-03 0. -1.
        -11    1    3    3    0    0  0.48625955608E+01  0.14060633068E+01  0.27169352940E+01  0.57448748693E+01  0.51100000000E-03 0.  1.
         12    1    3    3    0    0  0.18090225484E+02 -0.69912417339E+01  0.63212454833E-01  0.19394270155E+02  0.00000000000E+00 0. -1.
</event>
<event>
 7    1  0.5946946E-013  0.5052886E+02  0.7816164E-02  0.1300439E+00
        -11   -1    0    0    0    0  0.00000000000E+00  0.00000000000E+00  0.45593999997E+02  0.45594000000E+02  0.51100000000E-03 0.  1.
         11   -1    0    0    0    0 -0.00000000000E+00 -0.00000000000E+00 -0.45593999997E+02  0.45594000000E+02  0.51100000000E-03 0. -1.
    9900012    2    1    2    0    0 -0.40491305908E+02 -0.19041903129E+00  0.36856229863E+01  0.50528856743E+02  0.29999990557E+02 0.  0.
         12    1    1    2    0    0  0.40491305908E+02  0.19041903129E+00 -0.36856229863E+01  0.40659143257E+02  0.00000000000E+00 0. -1.
         11    1    3    3    0    0 -0.33369259999E+02  0.92250075055E+01  0.20896129673E+01  0.34683926522E+02  0.51100000000E-03 0. -1.
        -11    1    3    3    0    0 -0.93893764297E+01 -0.68798971226E+01 -0.82580738835E+00  0.11669418677E+02  0.51100000000E-03 0.  1.
         12    1    3    3    0    0  0.22673305207E+01 -0.25355294142E+01  0.24218174073E+01  0.41755115441E+01  0.00000000000E+00 0. -1.
</event>
<event>
 7    1  0.5946946E-013  0.5052886E+02  0.7816164E-02  0.1300439E+00
        -11   -1    0    0    0    0  0.00000000000E+00  0.00000000000E+00  0.45593999997E+02  0.45594000000E+02  0.51100000000E-03 0.  1.
         11   -1    0    0    0    0 -0.00000000000E+00 -0.00000000000E+00 -0.45593999997E+02  0.45594000000E+02  0.51100000000E-03 0. -1.
    9900012    2    1    2    0    0  0.15641422919E+02 -0.25932058025E+02  0.27130055210E+02  0.50528860313E+02  0.30000001409E+02 0.  0.
         12    1    1    2    0    0 -0.15641422919E+02  0.25932058025E+02 -0.27130055210E+02  0.40659139687E+02  0.00000000000E+00 0. -1.
         11    1    3    3    0    0  0.32017902975E+01 -0.13137991966E+01 -0.55457104170E+01  0.65370049509E+01  0.51100000000E-03 0. -1.
        -11    1    3    3    0    0  0.81160749661E+00 -0.12877943447E+02  0.15267212300E+02  0.19989694991E+02  0.51100000000E-03 0.  1.
         12    1    3    3    0    0  0.11628025125E+02 -0.11740315381E+02  0.17408553327E+02  0.24002160372E+02  0.00000000000E+00 0. -1.
</event>
<event>
 7    1  0.5946946E-013  0.5052884E+02  0.7816164E-02  0.1300439E+00
        -11   -1    0    0    0    0  0.00000000000E+00  0.00000000000E+00  0.45593999997E+02  0.45594000000E+02  0.51100000000E-03 0. -1.
         11   -1    0    0    0    0 -0.00000000000E+00 -0.00000000000E+00 -0.45593999997E+02  0.45594000000E+02  0.51100000000E-03 0.  1.
    9900012    2    1    2    0    0  0.10632380505E+02 -0.25139722414E+02 -0.30134937758E+02  0.50528835818E+02  0.29999926954E+02 0.  0.
         12    1    1    2    0    0 -0.10632380505E+02  0.25139722414E+02  0.30134937758E+02  0.40659164182E+02  0.00000000000E+00 0. -1.
         11    1    3    3    0    0  0.97349683824E+01 -0.93070676127E+01 -0.62902358607E+01  0.14864662270E+02  0.51100000000E-03 0. -1.
        -11    1    3    3    0    0 -0.13050925170E+01 -0.62964971284E+01 -0.24995652604E+02  0.25809529091E+02  0.51100000000E-03 0.  1.
        -12    1    3    3    0    0  0.22025046393E+01 -0.95361576732E+01  0.11509507063E+01  0.98546444575E+01  0.00000000000E+00 0.  1.
</event>
<event>
 7    1  0.5946946E-013  0.5052885E+02  0.7816164E-02  0.1300439E+00
        -11   -1    0    0    0    0  0.00000000000E+00  0.00000000000E+00  0.45593999997E+02  0.45594000000E+02  0.51100000000E-03 0.  1.
         11   -1    0    0    0    0 -0.00000000000E+00 -0.00000000000E+00 -0.45593999997E+02  0.45594000000E+02  0.51100000000E-03 0. -1.
    9900012    2    1    2    0    0  0.40544905280E+02 -0.50974095045E+00  0.30028402945E+01  0.50528853061E+02  0.29999979363E+02 0.  0.
         12    1    1    2    0    0 -0.40544905280E+02  0.50974095045E+00 -0.30028402945E+01  0.40659146939E+02  0.00000000000E+00 0. -1.
         11    1    3    3    0    0  0.29475217828E+02 -0.72404211797E+01  0.45315343168E+01  0.30687896122E+02  0.51100000000E-03 0.  1.
        -11    1    3    3    0    0  0.11921235930E+01  0.11611181314E+01 -0.70392754376E+01  0.72333085738E+01  0.51100000000E-03 0. -1.
         12    1    3    3    0    0  0.98775638588E+01  0.55695620978E+01  0.55105814154E+01  0.12607648364E+02  0.00000000000E+00 0. -1.
</event>
<event>
 7    1  0.5946946E-013  0.5052886E+02  0.7816164E-02  0.1300439E+00
        -11   -1    0    0    0    0  0.00000000000E+00  0.00000000000E+00  0.45593999997E+02  0.45594000000E+02  0.51100000000E-03 0. -1.
         11   -1    0    0    0    0 -0.00000000000E+00 -0.00000000000E+00 -0.45593999997E+02  0.45594000000E+02  0.51100000000E-03 0.  1.
    9900012    2    1    2    0    0  0.63327389169E+01  0.40124966249E+02 -0.17461181383E+01  0.50528862931E+02  0.30000009364E+02 0.  0.
         12    1    1    2    0    0 -0.63327389169E+01 -0.40124966249E+02  0.17461181383E+01  0.40659137069E+02  0.00000000000E+00 0. -1.
         11    1    3    3    0    0 -0.47306560167E+01  0.10769091167E+02  0.72493496983E+01  0.13816855728E+02  0.51100000000E-03 0. -1.
        -11    1    3    3    0    0  0.10063144888E+02  0.30676350397E+02 -0.11003932962E+02  0.34108531185E+02  0.51100000000E-03 0.  1.
         12    1    3    3    0    0  0.10002500452E+01 -0.13204753148E+01  0.20084651258E+01  0.26034760171E+01  0.00000000000E+00 0. -1.
</event>
<event>
 7    1  0.5946946E-013  0.5052886E+02  0.7816164E-02  0.1300439E+00
        -11   -1    0    0    0    0  0.00000000000E+00  0.00000000000E+00  0.45593999997E+02  0.45594000000E+02  0.51100000000E-03 0.  1.
         11   -1    0    0    0    0 -0.00000000000E+00 -0.00000000000E+00 -0.45593999997E+02  0.45594000000E+02  0.51100000000E-03 0. -1.
    9900012    2    1    2    0    0  0.22963755870E+02 -0.76741608490E+01  0.32664027945E+02  0.50528861421E+02  0.30000004776E+02 0.  0.
         12    1    1    2    0    0 -0.22963755870E+02  0.76741608490E+01 -0.32664027945E+02  0.40659138579E+02  0.00000000000E+00 0. -1.
         11    1    3    3    0    0  0.84580211158E+01  0.76061937088E+01  0.88836669127E+01  0.14433012229E+02  0.51100000000E-03 0. -1.
        -11    1    3    3    0    0  0.10104205856E+02 -0.17559530276E+02  0.23645401387E+02  0.31137390490E+02  0.51100000000E-03 0.  1.
        -12    1    3    3    0    0  0.44015288986E+01  0.22791757177E+01  0.13495964459E+00  0.49584587024E+01  0.00000000000E+00 0.  1.
</event>
<event>
 7    1  0.5946946E-013  0.5052884E+02  0.7816164E-02  0.1300439E+00
        -11   -1    0    0    0    0  0.00000000000E+00  0.00000000000E+00  0.45593999997E+02  0.45594000000E+02  0.51100000000E-03 0.  1.
         11   -1    0    0    0    0 -0.00000000000E+00 -0.00000000000E+00 -0.45593999997E+02  0.45594000000E+02  0.51100000000E-03 0. -1.
    9900012    2    1    2    0    0 -0.24712839129E+02  0.26235577831E+02  0.18818546916E+02  0.50528835351E+02  0.29999925533E+02 0.  0.
         12    1    1    2    0    0  0.24712839129E+02 -0.26235577831E+02 -0.18818546916E+02  0.40659164649E+02  0.00000000000E+00 0. -1.
         11    1    3    3    0    0 -0.10091747665E+02  0.38551061626E+01 -0.69765291119E+00  0.10825522357E+02  0.51100000000E-03 0. -1.
        -11    1    3    3    0    0 -0.12579349788E+01 -0.12078551183E+01  0.11215753687E+02  0.11350526218E+02  0.51100000000E-03 0.  1.
        -12    1    3    3    0    0 -0.13363156485E+02  0.23588326786E+02  0.83004461401E+01  0.28352786776E+02  0.00000000000E+00 0.  1.
</event>
<event>
 7    1  0.5946946E-013  0.5052886E+02  0.7816164E-02  0.1300439E+00
        -11   -1    0    0    0    0  0.00000000000E+00  0.00000000000E+00  0.45593999997E+02  0.45594000000E+02  0.51100000000E-03 0. -1.
         11   -1    0    0    0    0 -0.00000000000E+00 -0.00000000000E+00 -0.45593999997E+02  0.45594000000E+02  0.51100000000E-03 0.  1.
    9900012    2    1    2    0    0 -0.57015221924E+00 -0.12754817587E+02 -0.38602525073E+02  0.50528863423E+02  0.30000010860E+02 0.  0.
         12    1    1    2    0    0  0.57015221924E+00  0.12754817587E+02  0.38602525073E+02  0.40659136577E+02  0.00000000000E+00 0. -1.
         11    1    3    3    0    0  0.71086581559E+00 -0.41620383430E+01  0.53097067157E+00  0.42555638277E+01  0.51100000000E-03 0. -1.
        -11    1    3    3    0    0  0.49493480707E+01 -0.72539057906E+01 -0.38918654183E+02  0.39897078078E+02  0.51100000000E-03 0.  1.
        -12    1    3    3    0    0 -0.62303661055E+01 -0.13388734532E+01 -0.21484156140E+00  0.63762215166E+01  0.00000000000E+00 0.  1.
</event>
<event>
 7    1  0.5946946E-013  0.5052884E+02  0.7816164E-02  0.1300439E+00
        -11   -1    0    0    0    0  0.00000000000E+00  0.00000000000E+00  0.45593999997E+02  0.45594000000E+02  0.51100000000E-03 0.  1.
         11   -1    0    0    0    0 -0.00000000000E+00 -0.00000000000E+00 -0.45593999997E+02  0.45594000000E+02  0.51100000000E-03 0. -1.
    9900012    2    1    2    0    0  0.24604777528E+02 -0.32248403033E+02  0.27951546802E+01  0.50528837871E+02  0.29999933192E+02 0.  0.
         12    1    1    2    0    0 -0.24604777528E+02  0.32248403033E+02 -0.27951546802E+01  0.40659162129E+02  0.00000000000E+00 0. -1.
         11    1    3    3    0    0  0.12666860255E+02 -0.33335510015E+02  0.67027842708E+01  0.36285436389E+02  0.51100000000E-03 0.  1.
        -11    1    3    3    0    0  0.58844283812E+01  0.30072489022E+01 -0.42940720472E+01  0.78809325807E+01  0.51100000000E-03 0. -1.
        -12    1    3    3    0    0  0.60534888913E+01 -0.19201419199E+01  0.38644245664E+00  0.63624689015E+01  0.00000000000E+00 0.  1.
</event>
<event>
 7    1  0.5946946E-013  0.5052886E+02  0.7816164E-02  0.1300439E+00
        -11   -1    0    0    0    0  0.00000000000E+00  0.00000000000E+00  0.45593999997E+02  0.45594000000E+02  0.51100000000E-03 0. -1.
         11   -1    0    0    0    0 -0.00000000000E+00 -0.00000000000E+00 -0.45593999997E+02  0.45594000000E+02  0.51100000000E-03 0.  1.
    9900012    2    1    2    0    0  0.34436447364E+02  0.19938472249E+02 -0.83519123079E+01  0.50528855618E+02  0.29999987137E+02 0.  0.
         12    1    1    2    0    0 -0.34436447364E+02 -0.19938472249E+02  0.83519123079E+01  0.40659144382E+02  0.00000000000E+00 0. -1.
         11    1    3    3    0    0  0.10677572237E+02 -0.40876063312E+01  0.31117956198E+01  0.11849149616E+02  0.51100000000E-03 0. -1.
        -11    1    3    3    0    0  0.23454909490E+02  0.18400345696E+02 -0.13451365681E+02  0.32705423707E+02  0.51100000000E-03 0.  1.
         12    1    3    3    0    0  0.30396563666E+00  0.56257328840E+01  0.19876577531E+01  0.59742822945E+01  0.00000000000E+00 0. -1.
</event>
<event>
 7    1  0.5946946E-013  0.5052886E+02  0.7816164E-02  0.1300439E+00
        -11   -1    0    0    0    0  0.00000000000E+00  0.00000000000E+00  0.45593999997E+02  0.45594000000E+02  0.51100000000E-03 0. -1.
         11   -1    0    0    0    0 -0.00000000000E+00 -0.00000000000E+00 -0.45593999997E+02  0.45594000000E+02  0.51100000000E-03 0.  1.
    9900012    2    1    2    0    0 -0.87307364233E+01 -0.10550780672E+02 -0.38283428687E+02  0.50528860273E+02  0.30000001287E+02 0.  0.
         12    1    1    2    0    0  0.87307364233E+01  0.10550780672E+02  0.38283428687E+02  0.40659139727E+02  0.00000000000E+00 0. -1.
         11    1    3    3    0    0  0.35384377181E+01 -0.33661812902E+01  0.19093203110E+01  0.52437793885E+01  0.51100000000E-03 0. -1.
        -11    1    3    3    0    0 -0.14997333083E+02 -0.58392823451E+01 -0.38665786880E+02  0.41881502996E+02  0.51100000000E-03 0.  1.
        -12    1    3    3    0    0  0.27281589412E+01 -0.13453170362E+01 -0.15269621180E+01  0.34035778889E+01  0.00000000000E+00 0.  1.
</event>
<event>
 7    1  0.5946946E-013  0.5052885E+02  0.7816164E-02  0.1300439E+00
        -11   -1    0    0    0    0  0.00000000000E+00  0.00000000000E+00  0.45593999997E+02  0.45594000000E+02  0.51100000000E-03 0.  1.
         11   -1    0    0    0    0 -0.00000000000E+00 -0.00000000000E+00 -0.45593999997E+02  0.45594000000E+02  0.51100000000E-03 0. -1.
    9900012    2    1    2    0    0  0.21086780119E+02 -0.34418365375E+02  0.48877909848E+01  0.50528847628E+02  0.29999962850E+02 0.  0.
         12    1    1    2    0    0 -0.21086780119E+02  0.34418365375E+02 -0.48877909848E+01  0.40659152372E+02  0.00000000000E+00 0. -1.
         11    1    3    3    0    0  0.26656475270E+02 -0.25234935813E+02  0.43436716932E+01  0.36962645242E+02  0.51100000000E-03 0. -1.
        -11    1    3    3    0    0 -0.29589388465E+01 -0.91103704758E+01  0.29421600983E+01  0.10020502762E+02  0.51100000000E-03 0.  1.
         12    1    3    3    0    0 -0.26107563040E+01 -0.73059086927E-01 -0.23980408067E+01  0.35456996234E+01  0.00000000000E+00 0. -1.
</event>
<event>
 7    1  0.5946946E-013  0.5052887E+02  0.7816164E-02  0.1300439E+00
        -11   -1    0    0    0    0  0.00000000000E+00  0.00000000000E+00  0.45593999997E+02  0.45594000000E+02  0.51100000000E-03 0.  1.
         11   -1    0    0    0    0 -0.00000000000E+00 -0.00000000000E+00 -0.45593999997E+02  0.45594000000E+02  0.51100000000E-03 0. -1.
    9900012    2    1    2    0    0 -0.31777131376E+02  0.21339738689E+02 -0.13711087609E+02  0.50528874957E+02  0.30000045919E+02 0.  0.
         12    1    1    2    0    0  0.31777131376E+02 -0.21339738689E+02  0.13711087609E+02  0.40659125043E+02  0.00000000000E+00 0. -1.
         11    1    3    3    0    0 -0.15381708808E+01 -0.13951729516E+01 -0.99012151868E+01  0.10116646661E+02  0.51100000000E-03 0. -1.
        -11    1    3    3    0    0 -0.17881493926E+02  0.18315670410E+02 -0.76890813795E+01  0.26727019667E+02  0.51100000000E-03 0.  1.
         12    1    3    3    0    0 -0.12357466570E+02  0.44192412315E+01  0.38792089570E+01  0.13685208629E+02  0.00000000000E+00 0. -1.
</event>
<event>
 7    1  0.5946946E-013  0.5052887E+02  0.7816164E-02  0.1300439E+00
        -11   -1    0    0    0    0  0.00000000000E+00  0.00000000000E+00  0.45593999997E+02  0.45594000000E+02  0.51100000000E-03 0. -1.
         11   -1    0    0    0    0 -0.00000000000E+00 -0.00000000000E+00 -0.45593999997E+02  0.45594000000E+02  0.51100000000E-03 0.  1.
    9900012    2    1    2    0    0  0.20940690468E+02 -0.51082516574E+01 -0.34475472444E+02  0.50528868768E+02  0.30000027108E+02 0.  0.
         12    1    1    2    0    0 -0.20940690468E+02  0.51082516574E+01  0.34475472444E+02  0.40659131232E+02  0.00000000000E+00 0. -1.
         11    1    3    3    0    0  0.10093002794E+01  0.24745338137E+01 -0.18452983300E+02  0.18645498051E+02  0.51100000000E-03 0.  1.
        -11    1    3    3    0    0 -0.73548346296E+00 -0.32453581289E+01  0.22014239975E+01  0.39899314765E+01  0.51100000000E-03 0. -1.
        -12    1    3    3    0    0  0.20666873652E+02 -0.43374273422E+01 -0.18223913142E+02  0.27893439241E+02  0.00000000000E+00 0.  1.
</event>
<event>
 7    1  0.5946946E-013  0.5052886E+02  0.7816164E-02  0.1300439E+00
        -11   -1    0    0    0    0  0.00000000000E+00  0.00000000000E+00  0.45593999997E+02  0.45594000000E+02  0.51100000000E-03 0. -1.
         11   -1    0    0    0    0 -0.00000000000E+00 -0.00000000000E+00 -0.45593999997E+02  0.45594000000E+02  0.51100000000E-03 0.  1.
    9900012    2    1    2    0    0  0.13589841724E+02  0.17761348481E+02 -0.33956090076E+02  0.50528863865E+02  0.30000012205E+02 0.  0.
         12    1    1    2    0    0 -0.13589841724E+02 -0.17761348481E+02  0.33956090076E+02  0.40659136135E+02  0.00000000000E+00 0. -1.
         11    1    3    3    0    0 -0.18502279437E+00 -0.14353565539E+01 -0.12511925872E+00  0.14526310478E+01  0.51100000000E-03 0. -1.
        -11    1    3    3    0    0  0.11628132628E+02  0.19666804553E+02 -0.38013717561E+02  0.44351317825E+02  0.51100000000E-03 0.  1.
        -12    1    3    3    0    0  0.21467318903E+01 -0.47009951886E+00  0.41827467433E+01  0.47249149924E+01  0.00000000000E+00 0.  1.
</event>
<event>
 7    1  0.5946946E-013  0.5052887E+02  0.7816164E-02  0.1300439E+00
        -11   -1    0    0    0    0  0.00000000000E+00  0.00000000000E+00  0.45593999997E+02  0.45594000000E+02  0.51100000000E-03 0.  1.
         11   -1    0    0    0    0 -0.00000000000E+00 -0.00000000000E+00 -0.45593999997E+02  0.45594000000E+02  0.51100000000E-03 0. -1.
    9900012    2    1    2    0    0 -0.68052925588E+01  0.13947211922E+02  0.37580956145E+02  0.50528868283E+02  0.30000025632E+02 0.  0.
         12    1    1    2    0    0  0.68052925588E+01 -0.13947211922E+02 -0.37580956145E+02  0.40659131717E+02  0.00000000000E+00 0. -1.
         11    1    3    3    0    0 -0.27180736225E+01 -0.22056651936E+01  0.16647830531E+02  0.17011853068E+02  0.51100000000E-03 0. -1.
        -11    1    3    3    0    0  0.34816822967E+00  0.19899929961E+02  0.13347284411E+02  0.23964107222E+02  0.51100000000E-03 0.  1.
        -12    1    3    3    0    0 -0.44353871661E+01 -0.37470528451E+01  0.75858412032E+01  0.95529079917E+01  0.00000000000E+00 0.  1.
</event>
<event>
 7    1  0.5946946E-013  0.5052887E+02  0.7816164E-02  0.1300439E+00
        -11   -1    0    0    0    0  0.00000000000E+00  0.00000000000E+00  0.45593999997E+02  0.45594000000E+02  0.51100000000E-03 0.  1.
         11   -1    0    0    0    0 -0.00000000000E+00 -0.00000000000E+00 -0.45593999997E+02  0.45594000000E+02  0.51100000000E-03 0. -1.
    9900012    2    1    2    0    0  0.40057165355E+02  0.68897653517E+01 -0.10581018675E+01  0.50528868892E+02  0.30000027485E+02 0.  0.
         12    1    1    2    0    0 -0.40057165355E+02 -0.68897653517E+01  0.10581018675E+01  0.40659131108E+02  0.00000000000E+00 0. -1.
         11    1    3    3    0    0 -0.32988477716E+01  0.79669377885E+00  0.42160426067E+01  0.54122207198E+01  0.51100000000E-03 0. -1.
        -11    1    3    3    0    0  0.33534098442E+02  0.79940719919E+01 -0.63536541745E+01  0.35054384418E+02  0.51100000000E-03 0.  1.
         12    1    3    3    0    0  0.98219146848E+01 -0.19010004191E+01  0.10795097003E+01  0.10062263754E+02  0.00000000000E+00 0. -1.
</event>
<event>
 7    1  0.5946946E-013  0.5052886E+02  0.7816164E-02  0.1300439E+00
        -11   -1    0    0    0    0  0.00000000000E+00  0.00000000000E+00  0.45593999997E+02  0.45594000000E+02  0.51100000000E-03 0. -1.
         11   -1    0    0    0    0 -0.00000000000E+00 -0.00000000000E+00 -0.45593999997E+02  0.45594000000E+02  0.51100000000E-03 0.  1.
    9900012    2    1    2    0    0  0.36651803495E+02 -0.17448576887E+02 -0.23147681823E+01  0.50528859741E+02  0.29999999669E+02 0.  0.
         12    1    1    2    0    0 -0.36651803495E+02  0.17448576887E+02  0.23147681823E+01  0.40659140259E+02  0.00000000000E+00 0. -1.
         11    1    3    3    0    0  0.35010570237E+02 -0.24338319758E+02 -0.40901652780E+01  0.42834837332E+02  0.51100000000E-03 0. -1.
        -11    1    3    3    0    0 -0.61365043928E+00  0.16972660000E+01  0.67642522696E+00  0.19273894482E+01  0.51100000000E-03 0.  1.
         12    1    3    3    0    0  0.22548836973E+01  0.51924768705E+01  0.10989718688E+01  0.57666329611E+01  0.00000000000E+00 0. -1.
</event>
<event>
 7    1  0.5946946E-013  0.5052886E+02  0.7816164E-02  0.1300439E+00
        -11   -1    0    0    0    0  0.00000000000E+00  0.00000000000E+00  0.45593999997E+02  0.45594000000E+02  0.51100000000E-03 0. -1.
         11   -1    0    0    0    0 -0.00000000000E+00 -0.00000000000E+00 -0.45593999997E+02  0.45594000000E+02  0.51100000000E-03 0.  1.
    9900012    2    1    2    0    0  0.57662974748E+01  0.39431531018E+02 -0.80665834196E+01  0.50528860891E+02  0.30000003165E+02 0.  0.
         12    1    1    2    0    0 -0.57662974748E+01 -0.39431531018E+02  0.80665834196E+01  0.40659139109E+02  0.00000000000E+00 0. -1.
         11    1    3    3    0    0  0.16500955990E+01 -0.17310124412E+00 -0.38638185939E+01  0.42049820349E+01  0.51100000000E-03 0. -1.
        -11    1    3    3    0    0  0.67623681511E+01  0.19845901855E+02  0.85674000128E+01  0.22649277840E+02  0.51100000000E-03 0.  1.
        -12    1    3    3    0    0 -0.26461662753E+01  0.19758730408E+02 -0.12770164838E+02  0.23674601016E+02  0.00000000000E+00 0.  1.
</event>
<event>
 7    1  0.5946946E-013  0.5052886E+02  0.7816164E-02  0.1300439E+00
        -11   -1    0    0    0    0  0.00000000000E+00  0.00000000000E+00  0.45593999997E+02  0.45594000000E+02  0.51100000000E-03 0. -1.
         11   -1    0    0    0    0 -0.00000000000E+00 -0.00000000000E+00 -0.45593999997E+02  0.45594000000E+02  0.51100000000E-03 0.  1.
    9900012    2    1    2    0    0  0.89210353234E+01 -0.21380166313E+02 -0.33413606152E+02  0.50528862541E+02  0.30000008179E+02 0.  0.
         12    1    1    2    0    0 -0.89210353234E+01  0.21380166313E+02  0.33413606152E+02  0.40659137459E+02  0.00000000000E+00 0. -1.
         11    1    3    3    0    0  0.10547182501E+01 -0.39569784033E+00  0.25655705829E+01  0.28019921565E+01  0.51100000000E-03 0. -1.
        -11    1    3    3    0    0 -0.24660079183E+01 -0.17632659718E+02 -0.31063245245E+02  0.35803869752E+02  0.51100000000E-03 0.  1.
        -12    1    3    3    0    0  0.10332324992E+02 -0.33518087548E+01 -0.49159314901E+01  0.11923000632E+02  0.00000000000E+00 0.  1.
</event>
<event>
 7    1  0.5946946E-013  0.5052886E+02  0.7816164E-02  0.1300439E+00
        -11   -1    0    0    0    0  0.00000000000E+00  0.00000000000E+00  0.45593999997E+02  0.45594000000E+02  0.51100000000E-03 0.  1.
         11   -1    0    0    0    0 -0.00000000000E+00 -0.00000000000E+00 -0.45593999997E+02  0.45594000000E+02  0.51100000000E-03 0. -1.
    9900012    2    1    2    0    0 -0.73688629454E+01  0.27226942329E+02  0.29284108635E+02  0.50528861442E+02  0.30000004839E+02 0.  0.
         12    1    1    2    0    0  0.73688629454E+01 -0.27226942329E+02 -0.29284108635E+02  0.40659138558E+02  0.00000000000E+00 0. -1.
         11    1    3    3    0    0 -0.10063427416E+02  0.18171405378E+02  0.96319848889E+01  0.22896455576E+02  0.51100000000E-03 0. -1.
        -11    1    3    3    0    0  0.85885932860E+01  0.10250564445E+02  0.12738123692E+02  0.18468833247E+02  0.51100000000E-03 0.  1.
         12    1    3    3    0    0 -0.58940288154E+01 -0.11950274936E+01  0.69140000548E+01  0.91635726190E+01  0.00000000000E+00 0. -1.
</event>
<event>
 7    1  0.5946946E-013  0.5052886E+02  0.7816164E-02  0.1300439E+00
        -11   -1    0    0    0    0  0.00000000000E+00  0.00000000000E+00  0.45593999997E+02  0.45594000000E+02  0.51100000000E-03 0. -1.
         11   -1    0    0    0    0 -0.00000000000E+00 -0.00000000000E+00 -0.45593999997E+02  0.45594000000E+02  0.51100000000E-03 0.  1.
    9900012    2    1    2    0    0  0.36019577193E+02 -0.98652855086E+01 -0.16075804675E+02  0.50528864553E+02  0.30000014296E+02 0.  0.
         12    1    1    2    0    0 -0.36019577193E+02  0.98652855086E+01  0.16075804675E+02  0.40659135447E+02  0.00000000000E+00 0. -1.
         11    1    3    3    0    0  0.13566143671E+02 -0.91366596688E+01 -0.67263812896E+01  0.17685106998E+02  0.51100000000E-03 0. -1.
        -11    1    3    3    0    0  0.18321919720E+02  0.79001148502E+01 -0.72877333071E+00  0.19965862558E+02  0.51100000000E-03 0.  1.
        -12    1    3    3    0    0  0.41315138019E+01 -0.86287406900E+01 -0.86206500548E+01  0.12877894997E+02  0.00000000000E+00 0.  1.
</event>
<event>
 7    1  0.5946946E-013  0.5052887E+02  0.7816164E-02  0.1300439E+00
        -11   -1    0    0    0    0  0.00000000000E+00  0.00000000000E+00  0.45593999997E+02  0.45594000000E+02  0.51100000000E-03 0.  1.
         11   -1    0    0    0    0 -0.00000000000E+00 -0.00000000000E+00 -0.45593999997E+02  0.45594000000E+02  0.51100000000E-03 0. -1.
    9900012    2    1    2    0    0 -0.39671698332E+02  0.40190460569E+01 -0.79478497597E+01  0.50528871928E+02  0.30000036712E+02 0.  0.
         12    1    1    2    0    0  0.39671698332E+02 -0.40190460569E+01  0.79478497597E+01  0.40659128072E+02  0.00000000000E+00 0. -1.
         11    1    3    3    0    0 -0.35708535478E+02  0.81959079311E+01 -0.12764707102E+02  0.38797038038E+02  0.51100000000E-03 0. -1.
        -11    1    3    3    0    0 -0.41751955662E+01 -0.41644483209E+01  0.72183791405E+01  0.93209380167E+01  0.51100000000E-03 0.  1.
        -12    1    3    3    0    0  0.21203271232E+00 -0.12413553241E-01 -0.24015217980E+01  0.24108958737E+01  0.00000000000E+00 0.  1.
</event>
<event>
 7    1  0.5946946E-013  0.5052884E+02  0.7816164E-02  0.1300439E+00
        -11   -1    0    0    0    0  0.00000000000E+00  0.00000000000E+00  0.45593999997E+02  0.45594000000E+02  0.51100000000E-03 0.  1.
         11   -1    0    0    0    0 -0.00000000000E+00 -0.00000000000E+00 -0.45593999997E+02  0.45594000000E+02  0.51100000000E-03 0. -1.
    9900012    2    1    2    0    0 -0.99106830675E+01 -0.31681689480E+02  0.23477999518E+02  0.50528836844E+02  0.29999930071E+02 0.  0.
         12    1    1    2    0    0  0.99106830675E+01  0.31681689480E+02 -0.23477999518E+02  0.40659163156E+02  0.00000000000E+00 0. -1.
         11    1    3    3    0    0 -0.12465856252E+02 -0.56148147372E+01  0.10134465138E+02  0.17018551657E+02  0.51100000000E-03 0.  1.
        -11    1    3    3    0    0  0.26252728765E+01 -0.20673302724E+02  0.17083377130E+02  0.26946600484E+02  0.51100000000E-03 0. -1.
         12    1    3    3    0    0 -0.70099692003E-01 -0.53935720187E+01 -0.37398427498E+01  0.65636847030E+01  0.00000000000E+00 0. -1.
</event>
<event>
 7    1  0.5946946E-013  0.5052886E+02  0.7816164E-02  0.1300439E+00
        -11   -1    0    0    0    0  0.00000000000E+00  0.00000000000E+00  0.45593999997E+02  0.45594000000E+02  0.51100000000E-03 0.  1.
         11   -1    0    0    0    0 -0.00000000000E+00 -0.00000000000E+00 -0.45593999997E+02  0.45594000000E+02  0.51100000000E-03 0. -1.
    9900012    2    1    2    0    0 -0.11307481577E+02  0.27008878333E+02  0.28210401267E+02  0.50528863413E+02  0.30000010829E+02 0.  0.
         12    1    1    2    0    0  0.11307481577E+02 -0.27008878333E+02 -0.28210401267E+02  0.40659136587E+02  0.00000000000E+00 0. -1.
         11    1    3    3    0    0 -0.12204756308E+02 -0.10684726490E+01  0.10998500150E+02  0.16464043129E+02  0.51100000000E-03 0. -1.
        -11    1    3    3    0    0 -0.83750895847E+00  0.46852762670E+01 -0.33543348056E+00  0.47713468575E+01  0.51100000000E-03 0.  1.
         12    1    3    3    0    0  0.17347836894E+01  0.23392074715E+02  0.17547334597E+02  0.29293473426E+02  0.00000000000E+00 0. -1.
</event>
<event>
 7    1  0.5946946E-013  0.5052886E+02  0.7816164E-02  0.1300439E+00
        -11   -1    0    0    0    0  0.00000000000E+00  0.00000000000E+00  0.45593999997E+02  0.45594000000E+02  0.51100000000E-03 0.  1.
         11   -1    0    0    0    0 -0.00000000000E+00 -0.00000000000E+00 -0.45593999997E+02  0.45594000000E+02  0.51100000000E-03 0. -1.
    9900012    2    1    2    0    0 -0.40216522239E+02  0.48178259683E+01 -0.35476215040E+01  0.50528859252E+02  0.29999998183E+02 0.  0.
         12    1    1    2    0    0  0.40216522239E+02 -0.48178259683E+01  0.35476215040E+01  0.40659140748E+02  0.00000000000E+00 0. -1.
         11    1    3    3    0    0 -0.10845026586E+02  0.32474287471E+00 -0.52043437957E+01  0.12033505482E+02  0.51100000000E-03 0. -1.
        -11    1    3    3    0    0 -0.15467283086E+02  0.14523824348E+02  0.22779565126E+01  0.21339339396E+02  0.51100000000E-03 0.  1.
        -12    1    3    3    0    0 -0.13904212567E+02 -0.10030741254E+02 -0.62123422093E+00  0.17156014373E+02  0.00000000000E+00 0.  1.
</event>
<event>
 7    1  0.5946946E-013  0.5052880E+02  0.7816164E-02  0.1300439E+00
        -11   -1    0    0    0    0  0.00000000000E+00  0.00000000000E+00  0.45593999997E+02  0.45594000000E+02  0.51100000000E-03 0.  1.
         11   -1    0    0    0    0 -0.00000000000E+00 -0.00000000000E+00 -0.45593999997E+02  0.45594000000E+02  0.51100000000E-03 0. -1.
    9900012    2    1    2    0    0  0.18355302868E+02  0.69593302572E+01  0.35606470626E+02  0.50528804590E+02  0.29999832031E+02 0.  0.
         12    1    1    2    0    0 -0.18355302868E+02 -0.69593302572E+01 -0.35606470626E+02  0.40659195410E+02  0.00000000000E+00 0. -1.
         11    1    3    3    0    0  0.86542247326E+01  0.70828315696E+01 -0.17235613798E+01  0.11315156776E+02  0.51100000000E-03 0. -1.
        -11    1    3    3    0    0  0.53536001873E+01 -0.35463844866E+01  0.18212798524E+02  0.19311755700E+02  0.51100000000E-03 0.  1.
         12    1    3    3    0    0  0.43474779476E+01  0.34228831742E+01  0.19117233481E+02  0.19901892114E+02  0.00000000000E+00 0. -1.
</event>
<event>
 7    1  0.5946946E-013  0.5052887E+02  0.7816164E-02  0.1300439E+00
        -11   -1    0    0    0    0  0.00000000000E+00  0.00000000000E+00  0.45593999997E+02  0.45594000000E+02  0.51100000000E-03 0.  1.
         11   -1    0    0    0    0 -0.00000000000E+00 -0.00000000000E+00 -0.45593999997E+02  0.45594000000E+02  0.51100000000E-03 0. -1.
    9900012    2    1    2    0    0 -0.35865345049E+01  0.35370701724E+02  0.19728532529E+02  0.50528871062E+02  0.30000034081E+02 0.  0.
         12    1    1    2    0    0  0.35865345049E+01 -0.35370701724E+02 -0.19728532529E+02  0.40659128938E+02  0.00000000000E+00 0. -1.
         11    1    3    3    0    0  0.10143940409E+02  0.25733376159E+01  0.29390235396E+01  0.10870117439E+02  0.51100000000E-03 0. -1.
        -11    1    3    3    0    0 -0.48231099385E+01  0.15110177802E+02  0.50921601066E+01  0.16658630121E+02  0.51100000000E-03 0.  1.
         12    1    3    3    0    0 -0.89073649756E+01  0.17687186306E+02  0.11697348883E+02  0.23000123502E+02  0.00000000000E+00 0. -1.
</event>
<event>
 7    1  0.5946946E-013  0.5052888E+02  0.7816164E-02  0.1300439E+00
        -11   -1    0    0    0    0  0.00000000000E+00  0.00000000000E+00  0.45593999997E+02  0.45594000000E+02  0.51100000000E-03 0. -1.
         11   -1    0    0    0    0 -0.00000000000E+00 -0.00000000000E+00 -0.45593999997E+02  0.45594000000E+02  0.51100000000E-03 0.  1.
    9900012    2    1    2    0    0 -0.12947572742E+02 -0.37361091183E+02 -0.94696064451E+01  0.50528877770E+02  0.30000054469E+02 0.  0.
         12    1    1    2    0    0  0.12947572742E+02  0.37361091183E+02  0.94696064451E+01  0.40659122230E+02  0.00000000000E+00 0. -1.
         11    1    3    3    0    0  0.45999634745E+01 -0.17295488280E+01 -0.19734509099E+01  0.52958013435E+01  0.51100000000E-03 0. -1.
        -11    1    3    3    0    0 -0.94681533675E+01 -0.35163953633E+02 -0.72823986098E+01  0.37137351724E+02  0.51100000000E-03 0.  1.
        -12    1    3    3    0    0 -0.80793828491E+01 -0.46758872254E+00 -0.21375692546E+00  0.80957247026E+01  0.00000000000E+00 0.  1.
</event>
<event>
 7    1  0.5946946E-013  0.5052886E+02  0.7816164E-02  0.1300439E+00
        -11   -1    0    0    0    0  0.00000000000E+00  0.00000000000E+00  0.45593999997E+02  0.45594000000E+02  0.51100000000E-03 0. -1.
         11   -1    0    0    0    0 -0.00000000000E+00 -0.00000000000E+00 -0.45593999997E+02  0.45594000000E+02  0.51100000000E-03 0.  1.
    9900012    2    1    2    0    0 -0.57695647693E+01 -0.65714837577E+01 -0.39707597909E+02  0.50528860707E+02  0.30000002604E+02 0.  0.
         12    1    1    2    0    0  0.57695647693E+01  0.65714837577E+01  0.39707597909E+02  0.40659139293E+02  0.00000000000E+00 0. -1.
         11    1    3    3    0    0  0.57534485764E+00  0.42540319976E+01 -0.28252797079E+01  0.51390675838E+01  0.51100000000E-03 0. -1.
        -11    1    3    3    0    0  0.22647920972E+01 -0.12925892660E+02 -0.33368924056E+02  0.35856562540E+02  0.51100000000E-03 0.  1.
        -12    1    3    3    0    0 -0.86097017242E+01  0.21003769050E+01 -0.35133941447E+01  0.95332305825E+01  0.00000000000E+00 0.  1.
</event>
<event>
 7    1  0.5946946E-013  0.5052886E+02  0.7816164E-02  0.1300439E+00
        -11   -1    0    0    0    0  0.00000000000E+00  0.00000000000E+00  0.45593999997E+02  0.45594000000E+02  0.51100000000E-03 0. -1.
         11   -1    0    0    0    0 -0.00000000000E+00 -0.00000000000E+00 -0.45593999997E+02  0.45594000000E+02  0.51100000000E-03 0.  1.
    9900012    2    1    2    0    0  0.18490931186E+02  0.19079025172E+02 -0.30777292783E+02  0.50528862175E+02  0.30000007067E+02 0.  0.
         12    1    1    2    0    0 -0.18490931186E+02 -0.19079025172E+02  0.30777292783E+02  0.40659137825E+02  0.00000000000E+00 0. -1.
         11    1    3    3    0    0 -0.14440270448E+01  0.17565553592E+02 -0.17032431096E+02  0.24509948928E+02  0.51100000000E-03 0. -1.
        -11    1    3    3    0    0  0.16618235407E+02  0.10719001598E+01 -0.62072463650E+01  0.17772018053E+02  0.51100000000E-03 0.  1.
         12    1    3    3    0    0  0.33167228245E+01  0.44157141946E+00 -0.75376153214E+01  0.82468951943E+01  0.00000000000E+00 0. -1.
</event>
<event>
 7    1  0.5946946E-013  0.5052886E+02  0.7816164E-02  0.1300439E+00
        -11   -1    0    0    0    0  0.00000000000E+00  0.00000000000E+00  0.45593999997E+02  0.45594000000E+02  0.51100000000E-03 0.  1.
         11   -1    0    0    0    0 -0.00000000000E+00 -0.00000000000E+00 -0.45593999997E+02  0.45594000000E+02  0.51100000000E-03 0. -1.
    9900012    2    1    2    0    0  0.32315816215E+01 -0.37633047453E+02  0.15049127091E+02  0.50528860725E+02  0.30000002659E+02 0.  0.
         12    1    1    2    0    0 -0.32315816215E+01  0.37633047453E+02 -0.15049127091E+02  0.40659139275E+02  0.00000000000E+00 0. -1.
         11    1    3    3    0    0  0.84801107873E+01 -0.37440613263E+01  0.11476576002E+01  0.93406312639E+01  0.51100000000E-03 0. -1.
        -11    1    3    3    0    0 -0.10392786402E+02 -0.26238554021E+02  0.55784523948E+01  0.28767878922E+02  0.51100000000E-03 0.  1.
         12    1    3    3    0    0  0.51442572358E+01 -0.76504321060E+01  0.83230170960E+01  0.12420350538E+02  0.00000000000E+00 0. -1.
</event>
<event>
 7    1  0.5946946E-013  0.5052886E+02  0.7816164E-02  0.1300439E+00
        -11   -1    0    0    0    0  0.00000000000E+00  0.00000000000E+00  0.45593999997E+02  0.45594000000E+02  0.51100000000E-03 0.  1.
         11   -1    0    0    0    0 -0.00000000000E+00 -0.00000000000E+00 -0.45593999997E+02  0.45594000000E+02  0.51100000000E-03 0. -1.
    9900012    2    1    2    0    0  0.31182808651E+02  0.24662705820E+02  0.85175678676E+01  0.50528861100E+02  0.30000003799E+02 0.  0.
         12    1    1    2    0    0 -0.31182808651E+02 -0.24662705820E+02 -0.85175678676E+01  0.40659138900E+02  0.00000000000E+00 0. -1.
         11    1    3    3    0    0  0.14157622085E+01  0.10085290413E+02 -0.18626543646E+01  0.10353112908E+02  0.51100000000E-03 0. -1.
        -11    1    3    3    0    0  0.26823949226E+02  0.41607899590E+01  0.11101984009E+02  0.29327299131E+02  0.51100000000E-03 0.  1.
        -12    1    3    3    0    0  0.29430972171E+01  0.10416625448E+02 -0.72176177723E+00  0.10848449060E+02  0.00000000000E+00 0.  1.
</event>
<event>
 7    1  0.5946946E-013  0.5052883E+02  0.7816164E-02  0.1300439E+00
        -11   -1    0    0    0    0  0.00000000000E+00  0.00000000000E+00  0.45593999997E+02  0.45594000000E+02  0.51100000000E-03 0.  1.
         11   -1    0    0    0    0 -0.00000000000E+00 -0.00000000000E+00 -0.45593999997E+02  0.45594000000E+02  0.51100000000E-03 0. -1.
    9900012    2    1    2    0    0 -0.15927073273E+01  0.19593069745E+02  0.35591329619E+02  0.50528833226E+02  0.29999919074E+02 0.  0.
         12    1    1    2    0    0  0.15927073273E+01 -0.19593069745E+02 -0.35591329619E+02  0.40659166774E+02  0.00000000000E+00 0. -1.
         11    1    3    3    0    0  0.63035743259E+01  0.18118364522E+02  0.24593919315E+02  0.31190880875E+02  0.51100000000E-03 0.  1.
        -11    1    3    3    0    0 -0.19089858016E+01 -0.13788933848E+00 -0.32657432242E+01  0.37852766514E+01  0.51100000000E-03 0. -1.
         12    1    3    3    0    0 -0.59872958517E+01  0.16125945610E+01  0.14263153529E+02  0.15552675700E+02  0.00000000000E+00 0. -1.
</event>
<event>
 7    1  0.5946946E-013  0.5052888E+02  0.7816164E-02  0.1300439E+00
        -11   -1    0    0    0    0  0.00000000000E+00  0.00000000000E+00  0.45593999997E+02  0.45594000000E+02  0.51100000000E-03 0.  1.
         11   -1    0    0    0    0 -0.00000000000E+00 -0.00000000000E+00 -0.45593999997E+02  0.45594000000E+02  0.51100000000E-03 0. -1.
    9900012    2    1    2    0    0  0.61663088827E+01 -0.26403983451E+02  0.30298021890E+02  0.50528882477E+02  0.30000068777E+02 0.  0.
         12    1    1    2    0    0 -0.61663088827E+01  0.26403983451E+02 -0.30298021890E+02  0.40659117523E+02  0.00000000000E+00 0. -1.
         11    1    3    3    0    0 -0.25855012359E+00 -0.16071537786E+02  0.28848659331E+02  0.33024329220E+02  0.51100000000E-03 0. -1.
        -11    1    3    3    0    0  0.10044280986E+02 -0.56802253641E+01  0.12520395899E+01  0.11606900711E+02  0.51100000000E-03 0.  1.
         12    1    3    3    0    0 -0.36194219802E+01 -0.46522203010E+01  0.19732296920E+00  0.58976525460E+01  0.00000000000E+00 0. -1.
</event>
<event>
 7    1  0.5946946E-013  0.5052885E+02  0.7816164E-02  0.1300439E+00
        -11   -1    0    0    0    0  0.00000000000E+00  0.00000000000E+00  0.45593999997E+02  0.45594000000E+02  0.51100000000E-03 0. -1.
         11   -1    0    0    0    0 -0.00000000000E+00 -0.00000000000E+00 -0.45593999997E+02  0.45594000000E+02  0.51100000000E-03 0.  1.
    9900012    2    1    2    0    0  0.88884955139E+01 -0.36201893541E+02  0.16235274714E+02  0.50528848588E+02  0.29999965769E+02 0.  0.
         12    1    1    2    0    0 -0.88884955139E+01  0.36201893541E+02 -0.16235274714E+02  0.40659151412E+02  0.00000000000E+00 0. -1.
         11    1    3    3    0    0  0.50519903154E+01 -0.28949502863E+01  0.13381206776E+02  0.14593150391E+02  0.51100000000E-03 0. -1.
        -11    1    3    3    0    0 -0.45097362977E+01 -0.85623522846E+01  0.14319639326E+01  0.97827459890E+01  0.51100000000E-03 0.  1.
         12    1    3    3    0    0  0.83462414962E+01 -0.24744590970E+02  0.14221040061E+01  0.26152952208E+02  0.00000000000E+00 0. -1.
</event>
<event>
 7    1  0.5946946E-013  0.5052885E+02  0.7816164E-02  0.1300439E+00
        -11   -1    0    0    0    0  0.00000000000E+00  0.00000000000E+00  0.45593999997E+02  0.45594000000E+02  0.51100000000E-03 0.  1.
         11   -1    0    0    0    0 -0.00000000000E+00 -0.00000000000E+00 -0.45593999997E+02  0.45594000000E+02  0.51100000000E-03 0. -1.
    9900012    2    1    2    0    0 -0.59741982800E+00 -0.27779672160E+02  0.29683313064E+02  0.50528853793E+02  0.29999981590E+02 0.  0.
         12    1    1    2    0    0  0.59741982800E+00  0.27779672160E+02 -0.29683313064E+02  0.40659146207E+02  0.00000000000E+00 0. -1.
         11    1    3    3    0    0 -0.49999695309E+01 -0.16350465976E+02  0.24744487024E+01  0.17276004445E+02  0.51100000000E-03 0. -1.
        -11    1    3    3    0    0  0.73180634638E+01 -0.12586519769E+02  0.26172034885E+02  0.29949122576E+02  0.51100000000E-03 0.  1.
         12    1    3    3    0    0 -0.29155137609E+01  0.11573135848E+01  0.10368294765E+01  0.33037267724E+01  0.00000000000E+00 0. -1.
</event>
<event>
 7    1  0.5946946E-013  0.5052886E+02  0.7816164E-02  0.1300439E+00
        -11   -1    0    0    0    0  0.00000000000E+00  0.00000000000E+00  0.45593999997E+02  0.45594000000E+02  0.51100000000E-03 0. -1.
         11   -1    0    0    0    0 -0.00000000000E+00 -0.00000000000E+00 -0.45593999997E+02  0.45594000000E+02  0.51100000000E-03 0.  1.
    9900012    2    1    2    0    0  0.10259129454E+02  0.12442069174E+02 -0.37324402013E+02  0.50528858246E+02  0.29999995126E+02 0.  0.
         12    1    1    2    0    0 -0.10259129454E+02 -0.12442069174E+02  0.37324402013E+02  0.40659141754E+02  0.00000000000E+00 0. -1.
         11    1    3    3    0    0  0.13138464596E-01  0.67893255659E+01  0.29076166221E+00  0.67955615562E+01  0.51100000000E-03 0. -1.
        -11    1    3    3    0    0  0.79683506577E+01  0.32225473090E+01 -0.39138191192E+02  0.40070905074E+02  0.51100000000E-03 0.  1.
        -12    1    3    3    0    0  0.22776403322E+01  0.24301962994E+01  0.15230275168E+01  0.36623916167E+01  0.00000000000E+00 0.  1.
</event>
<event>
 7    1  0.5946946E-013  0.5052886E+02  0.7816164E-02  0.1300439E+00
        -11   -1    0    0    0    0  0.00000000000E+00  0.00000000000E+00  0.45593999997E+02  0.45594000000E+02  0.51100000000E-03 0.  1.
         11   -1    0    0    0    0 -0.00000000000E+00 -0.00000000000E+00 -0.45593999997E+02  0.45594000000E+02  0.51100000000E-03 0. -1.
    9900012    2    1    2    0    0  0.12232167338E+02 -0.33674237216E+02  0.19224610085E+02  0.50528858312E+02  0.29999995325E+02 0.  0.
         12    1    1    2    0    0 -0.12232167338E+02  0.33674237216E+02 -0.19224610085E+02  0.40659141688E+02  0.00000000000E+00 0. -1.
         11    1    3    3    0    0 -0.92661993374E+01 -0.75997243890E+01  0.76449600192E+01  0.14214910302E+02  0.51100000000E-03 0. -1.
        -11    1    3    3    0    0  0.11759100599E+02 -0.93847968870E+01  0.41031870429E+01  0.15594454261E+02  0.51100000000E-03 0.  1.
         12    1    3    3    0    0  0.97392660762E+01 -0.16689715940E+02  0.74764630230E+01  0.20719493749E+02  0.00000000000E+00 0. -1.
</event>
<event>
 7    1  0.5946946E-013  0.5052885E+02  0.7816164E-02  0.1300439E+00
        -11   -1    0    0    0    0  0.00000000000E+00  0.00000000000E+00  0.45593999997E+02  0.45594000000E+02  0.51100000000E-03 0. -1.
         11   -1    0    0    0    0 -0.00000000000E+00 -0.00000000000E+00 -0.45593999997E+02  0.45594000000E+02  0.51100000000E-03 0.  1.
    9900012    2    1    2    0    0 -0.38626511748E+02  0.89130488479E+01 -0.90397169291E+01  0.50528851808E+02  0.29999975555E+02 0.  0.
         12    1    1    2    0    0  0.38626511748E+02 -0.89130488479E+01  0.90397169291E+01  0.40659148192E+02  0.00000000000E+00 0. -1.
         11    1    3    3    0    0  0.43940798309E+00  0.62959948985E+01  0.35247078049E+01  0.72288447561E+01  0.51100000000E-03 0. -1.
        -11    1    3    3    0    0 -0.33152807051E+02  0.68185714025E+01 -0.81696122929E+01  0.34818731979E+02  0.51100000000E-03 0.  1.
         12    1    3    3    0    0 -0.59131126792E+01 -0.42015174531E+01 -0.43948124411E+01  0.84812750726E+01  0.00000000000E+00 0. -1.
</event>
<event>
 7    1  0.5946946E-013  0.5052882E+02  0.7816164E-02  0.1300439E+00
        -11   -1    0    0    0    0  0.00000000000E+00  0.00000000000E+00  0.45593999997E+02  0.45594000000E+02  0.51100000000E-03 0.  1.
         11   -1    0    0    0    0 -0.00000000000E+00 -0.00000000000E+00 -0.45593999997E+02  0.45594000000E+02  0.51100000000E-03 0. -1.
    9900012    2    1    2    0    0 -0.12718503274E+02  0.20870514733E+02  0.32493537025E+02  0.50528823186E+02  0.29999888557E+02 0.  0.
         12    1    1    2    0    0  0.12718503274E+02 -0.20870514733E+02 -0.32493537025E+02  0.40659176814E+02  0.00000000000E+00 0. -1.
         11    1    3    3    0    0  0.14534834064E+01  0.54143108191E+00 -0.37270423094E+01  0.40369055310E+01  0.51100000000E-03 0. -1.
        -11    1    3    3    0    0 -0.98461856298E+01  0.18021392139E+02  0.17010329401E+02  0.26665881810E+02  0.51100000000E-03 0.  1.
        -12    1    3    3    0    0 -0.43258010510E+01  0.23076915113E+01  0.19210249933E+02  0.19826035845E+02  0.00000000000E+00 0.  1.
</event>
<event>
 7    1  0.5946946E-013  0.5052886E+02  0.7816164E-02  0.1300439E+00
        -11   -1    0    0    0    0  0.00000000000E+00  0.00000000000E+00  0.45593999997E+02  0.45594000000E+02  0.51100000000E-03 0.  1.
         11   -1    0    0    0    0 -0.00000000000E+00 -0.00000000000E+00 -0.45593999997E+02  0.45594000000E+02  0.51100000000E-03 0. -1.
    9900012    2    1    2    0    0 -0.35156662441E+02 -0.17571947913E+02  0.10411582099E+02  0.50528864381E+02  0.30000013774E+02 0.  0.
         12    1    1    2    0    0  0.35156662441E+02  0.17571947913E+02 -0.10411582099E+02  0.40659135619E+02  0.00000000000E+00 0. -1.
         11    1    3    3    0    0 -0.25754512222E+02 -0.20058511081E+02 -0.29481233424E+01  0.32776976646E+02  0.51100000000E-03 0. -1.
        -11    1    3    3    0    0 -0.50644835543E+01 -0.20021570643E+01  0.63737467274E+01  0.83834524027E+01  0.51100000000E-03 0.  1.
         12    1    3    3    0    0 -0.43376666648E+01  0.44887202324E+01  0.69859587141E+01  0.93684353323E+01  0.00000000000E+00 0. -1.
</event>
<event>
 7    1  0.5946946E-013  0.5052893E+02  0.7816164E-02  0.1300439E+00
        -11   -1    0    0    0    0  0.00000000000E+00  0.00000000000E+00  0.45593999997E+02  0.45594000000E+02  0.51100000000E-03 0.  1.
         11   -1    0    0    0    0 -0.00000000000E+00 -0.00000000000E+00 -0.45593999997E+02  0.45594000000E+02  0.51100000000E-03 0. -1.
    9900012    2    1    2    0    0 -0.32933650503E+02 -0.10075666156E+02  0.21610535453E+02  0.50528934264E+02  0.30000226188E+02 0.  0.
         12    1    1    2    0    0  0.32933650503E+02  0.10075666156E+02 -0.21610535453E+02  0.40659065736E+02  0.00000000000E+00 0. -1.
         11    1    3    3    0    0 -0.75906265516E+01  0.13704672493E+01  0.10434250801E+02  0.12975722791E+02  0.51100000000E-03 0. -1.
        -11    1    3    3    0    0 -0.17823261231E+02 -0.18023648674E+02  0.50875625714E+01  0.25853507414E+02  0.51100000000E-03 0.  1.
        -12    1    3    3    0    0 -0.75197627211E+01  0.65775152688E+01  0.60887220810E+01  0.11699704059E+02  0.00000000000E+00 0.  1.
</event>
<event>
 7    1  0.5946946E-013  0.5052888E+02  0.7816164E-02  0.1300439E+00
        -11   -1    0    0    0    0  0.00000000000E+00  0.00000000000E+00  0.45593999997E+02  0.45594000000E+02  0.51100000000E-03 0. -1.
         11   -1    0    0    0    0 -0.00000000000E+00 -0.00000000000E+00 -0.45593999997E+02  0.45594000000E+02  0.51100000000E-03 0.  1.
    9900012    2    1    2    0    0  0.23085010442E+02  0.15517391196E+02 -0.29655633609E+02  0.50528883662E+02  0.30000072378E+02 0.  0.
         12    1    1    2    0    0 -0.23085010442E+02 -0.15517391196E+02  0.29655633609E+02  0.40659116338E+02  0.00000000000E+00 0. -1.
         11    1    3    3    0    0  0.20066027215E+01  0.18572558479E+02 -0.12183101211E+02  0.22302339301E+02  0.51100000000E-03 0. -1.
        -11    1    3    3    0    0  0.18588840823E+02 -0.15579315623E+01 -0.17085114202E+02  0.25295716663E+02  0.51100000000E-03 0.  1.
         12    1    3    3    0    0  0.24895668973E+01 -0.14972357200E+01 -0.38741819637E+00  0.29308276982E+01  0.00000000000E+00 0. -1.
</event>
<event>
 7    1  0.5946946E-013  0.5052883E+02  0.7816164E-02  0.1300439E+00
        -11   -1    0    0    0    0  0.00000000000E+00  0.00000000000E+00  0.45593999997E+02  0.45594000000E+02  0.51100000000E-03 0.  1.
         11   -1    0    0    0    0 -0.00000000000E+00 -0.00000000000E+00 -0.45593999997E+02  0.45594000000E+02  0.51100000000E-03 0. -1.
    9900012    2    1    2    0    0  0.13137560948E+02  0.29453794359E+02  0.24759772021E+02  0.50528833502E+02  0.29999919912E+02 0.  0.
         12    1    1    2    0    0 -0.13137560948E+02 -0.29453794359E+02 -0.24759772021E+02  0.40659166498E+02  0.00000000000E+00 0. -1.
         11    1    3    3    0    0 -0.12287293430E+01 -0.14289698352E+00  0.14217807907E+01  0.18845838332E+01  0.51100000000E-03 0. -1.
        -11    1    3    3    0    0  0.12701768332E+02  0.12615962955E+02  0.25802689910E+02  0.31405035375E+02  0.51100000000E-03 0.  1.
        -12    1    3    3    0    0  0.16645219590E+01  0.16980728387E+02 -0.24646986793E+01  0.17239214294E+02  0.00000000000E+00 0.  1.
</event>
<event>
 7    1  0.5946946E-013  0.5052885E+02  0.7816164E-02  0.1300439E+00
        -11   -1    0    0    0    0  0.00000000000E+00  0.00000000000E+00  0.45593999997E+02  0.45594000000E+02  0.51100000000E-03 0.  1.
         11   -1    0    0    0    0 -0.00000000000E+00 -0.00000000000E+00 -0.45593999997E+02  0.45594000000E+02  0.51100000000E-03 0. -1.
    9900012    2    1    2    0    0 -0.38202122265E+02 -0.10127153531E+02 -0.95501499022E+01  0.50528846697E+02  0.29999960019E+02 0.  0.
         12    1    1    2    0    0  0.38202122265E+02  0.10127153531E+02  0.95501499022E+01  0.40659153303E+02  0.00000000000E+00 0. -1.
         11    1    3    3    0    0  0.12971818879E+01 -0.67211153247E+01 -0.74526408108E+01  0.10119186102E+02  0.51100000000E-03 0. -1.
        -11    1    3    3    0    0 -0.27968979097E+02 -0.43141194717E+00 -0.42968764962E+01  0.28300407345E+02  0.51100000000E-03 0.  1.
         12    1    3    3    0    0 -0.11530325056E+02 -0.29746262595E+01  0.21993674048E+01  0.12109253250E+02  0.00000000000E+00 0. -1.
</event>
<event>
 7    1  0.5946946E-013  0.5052886E+02  0.7816164E-02  0.1300439E+00
        -11   -1    0    0    0    0  0.00000000000E+00  0.00000000000E+00  0.45593999997E+02  0.45594000000E+02  0.51100000000E-03 0.  1.
         11   -1    0    0    0    0 -0.00000000000E+00 -0.00000000000E+00 -0.45593999997E+02  0.45594000000E+02  0.51100000000E-03 0. -1.
    9900012    2    1    2    0    0 -0.19596628431E+02  0.35613451629E+02  0.90544966983E+00  0.50528860537E+02  0.30000002087E+02 0.  0.
         12    1    1    2    0    0  0.19596628431E+02 -0.35613451629E+02 -0.90544966983E+00  0.40659139463E+02  0.00000000000E+00 0. -1.
         11    1    3    3    0    0 -0.14966290657E+02  0.75147934274E+01  0.81331859563E+01  0.18617483459E+02  0.51100000000E-03 0.  1.
        -11    1    3    3    0    0  0.26540342566E+01  0.19944540967E+02 -0.53250649795E+01  0.20813095145E+02  0.51100000000E-03 0. -1.
         12    1    3    3    0    0 -0.72843720307E+01  0.81541172352E+01 -0.19026713070E+01  0.11098281933E+02  0.00000000000E+00 0. -1.
</event>
<event>
 7    1  0.5946946E-013  0.5052886E+02  0.7816164E-02  0.1300439E+00
        -11   -1    0    0    0    0  0.00000000000E+00  0.00000000000E+00  0.45593999997E+02  0.45594000000E+02  0.51100000000E-03 0. -1.
         11   -1    0    0    0    0 -0.00000000000E+00 -0.00000000000E+00 -0.45593999997E+02  0.45594000000E+02  0.51100000000E-03 0.  1.
    9900012    2    1    2    0    0 -0.27476691150E+02 -0.25994625796E+02 -0.14915649460E+02  0.50528859261E+02  0.29999998210E+02 0.  0.
         12    1    1    2    0    0  0.27476691150E+02  0.25994625796E+02  0.14915649460E+02  0.40659140739E+02  0.00000000000E+00 0. -1.
         11    1    3    3    0    0 -0.26923601976E+02 -0.15798414241E+02 -0.11545231449E+02  0.33283067848E+02  0.51100000000E-03 0.  1.
        -11    1    3    3    0    0  0.10946738569E+01 -0.56175894116E+00  0.45197559288E+01  0.46842371714E+01  0.51100000000E-03 0. -1.
        -12    1    3    3    0    0 -0.16477630312E+01 -0.96344526138E+01 -0.78901739395E+01  0.12561554242E+02  0.00000000000E+00 0.  1.
</event>
<event>
 7    1  0.5946946E-013  0.5052886E+02  0.7816164E-02  0.1300439E+00
        -11   -1    0    0    0    0  0.00000000000E+00  0.00000000000E+00  0.45593999997E+02  0.45594000000E+02  0.51100000000E-03 0.  1.
         11   -1    0    0    0    0 -0.00000000000E+00 -0.00000000000E+00 -0.45593999997E+02  0.45594000000E+02  0.51100000000E-03 0. -1.
    9900012    2    1    2    0    0  0.38154905588E+01  0.32379018165E+02  0.24294176135E+02  0.50528858597E+02  0.29999996192E+02 0.  0.
         12    1    1    2    0    0 -0.38154905588E+01 -0.32379018165E+02 -0.24294176135E+02  0.40659141403E+02  0.00000000000E+00 0. -1.
         11    1    3    3    0    0 -0.55967968761E+01  0.91532454085E+01  0.20406320463E+02  0.23054803228E+02  0.51100000000E-03 0.  1.
        -11    1    3    3    0    0  0.10952361753E+02  0.21976940105E+02  0.18401355719E+01  0.24623692321E+02  0.51100000000E-03 0. -1.
         12    1    3    3    0    0 -0.15400743183E+01  0.12488326516E+01  0.20477201007E+01  0.28503630485E+01  0.00000000000E+00 0. -1.
</event>
<event>
 7    1  0.5946946E-013  0.5052886E+02  0.7816164E-02  0.1300439E+00
        -11   -1    0    0    0    0  0.00000000000E+00  0.00000000000E+00  0.45593999997E+02  0.45594000000E+02  0.51100000000E-03 0.  1.
         11   -1    0    0    0    0 -0.00000000000E+00 -0.00000000000E+00 -0.45593999997E+02  0.45594000000E+02  0.51100000000E-03 0. -1.
    9900012    2    1    2    0    0 -0.21744008604E+02  0.21813396794E+00  0.34355731084E+02  0.50528858950E+02  0.29999997266E+02 0.  0.
         12    1    1    2    0    0  0.21744008604E+02 -0.21813396794E+00 -0.34355731084E+02  0.40659141050E+02  0.00000000000E+00 0. -1.
         11    1    3    3    0    0 -0.30821515767E+01 -0.46153694765E+01  0.59833265528E+01  0.81609736334E+01  0.51100000000E-03 0.  1.
        -11    1    3    3    0    0 -0.75978778319E-01  0.48160927703E+01 -0.31634423154E+01  0.57626287310E+01  0.51100000000E-03 0. -1.
        -12    1    3    3    0    0 -0.18585878249E+02  0.17410674066E-01  0.31535846846E+02  0.36605256586E+02  0.00000000000E+00 0.  1.
</event>
<event>
 7    1  0.5946946E-013  0.5052886E+02  0.7816164E-02  0.1300439E+00
        -11   -1    0    0    0    0  0.00000000000E+00  0.00000000000E+00  0.45593999997E+02  0.45594000000E+02  0.51100000000E-03 0.  1.
         11   -1    0    0    0    0 -0.00000000000E+00 -0.00000000000E+00 -0.45593999997E+02  0.45594000000E+02  0.51100000000E-03 0. -1.
    9900012    2    1    2    0    0  0.11568034114E+02 -0.15814099209E+02  0.35626683489E+02  0.50528859287E+02  0.29999998290E+02 0.  0.
         12    1    1    2    0    0 -0.11568034114E+02  0.15814099209E+02 -0.35626683489E+02  0.40659140713E+02  0.00000000000E+00 0. -1.
         11    1    3    3    0    0  0.57018440201E+00  0.23263468299E+01 -0.16781139585E+01  0.29245626245E+01  0.51100000000E-03 0. -1.
        -11    1    3    3    0    0  0.19567253242E+01 -0.17837033117E+02  0.33050820245E+02  0.37607781689E+02  0.51100000000E-03 0.  1.
        -12    1    3    3    0    0  0.90411243875E+01 -0.30341292187E+00  0.42539772028E+01  0.99965149744E+01  0.00000000000E+00 0.  1.
</event>
<event>
 7    1  0.5946946E-013  0.5052885E+02  0.7816164E-02  0.1300439E+00
        -11   -1    0    0    0    0  0.00000000000E+00  0.00000000000E+00  0.45593999997E+02  0.45594000000E+02  0.51100000000E-03 0.  1.
         11   -1    0    0    0    0 -0.00000000000E+00 -0.00000000000E+00 -0.45593999997E+02  0.45594000000E+02  0.51100000000E-03 0. -1.
    9900012    2    1    2    0    0 -0.37264666469E+02 -0.10427834033E+02  0.12480844356E+02  0.50528848932E+02  0.29999966815E+02 0.  0.
         12    1    1    2    0    0  0.37264666469E+02  0.10427834033E+02 -0.12480844356E+02  0.40659151068E+02  0.00000000000E+00 0. -1.
         11    1    3    3    0    0 -0.13301136950E+02 -0.67934124001E+01 -0.73359572133E+00  0.14953556739E+02  0.51100000000E-03 0. -1.
        -11    1    3    3    0    0  0.26864419219E+01  0.17854991733E+01  0.69580716306E+01  0.76694027522E+01  0.51100000000E-03 0.  1.
        -12    1    3    3    0    0 -0.26649971441E+02 -0.54199208064E+01  0.62563684471E+01  0.27905889441E+02  0.00000000000E+00 0.  1.
</event>
<event>
 7    1  0.5946946E-013  0.5052883E+02  0.7816164E-02  0.1300439E+00
        -11   -1    0    0    0    0  0.00000000000E+00  0.00000000000E+00  0.45593999997E+02  0.45594000000E+02  0.51100000000E-03 0.  1.
         11   -1    0    0    0    0 -0.00000000000E+00 -0.00000000000E+00 -0.45593999997E+02  0.45594000000E+02  0.51100000000E-03 0. -1.
    9900012    2    1    2    0    0  0.35984058637E+02 -0.93945833486E+01  0.16433415267E+02  0.50528833633E+02  0.29999920312E+02 0.  0.
         12    1    1    2    0    0 -0.35984058637E+02  0.93945833486E+01 -0.16433415267E+02  0.40659166367E+02  0.00000000000E+00 0. -1.
         11    1    3    3    0    0 -0.11662134010E+01  0.25277981144E+01 -0.48639206851E+01  0.56042431867E+01  0.51100000000E-03 0. -1.
        -11    1    3    3    0    0  0.29515468594E+02 -0.12127387036E+02  0.16820745506E+02  0.36071787900E+02  0.51100000000E-03 0.  1.
        -12    1    3    3    0    0  0.76348034440E+01  0.20500557304E+00  0.44765904465E+01  0.88528025472E+01  0.00000000000E+00 0.  1.
</event>
<event>
 7    1  0.5946946E-013  0.5052885E+02  0.7816164E-02  0.1300439E+00
        -11   -1    0    0    0    0  0.00000000000E+00  0.00000000000E+00  0.45593999997E+02  0.45594000000E+02  0.51100000000E-03 0. -1.
         11   -1    0    0    0    0 -0.00000000000E+00 -0.00000000000E+00 -0.45593999997E+02  0.45594000000E+02  0.51100000000E-03 0.  1.
    9900012    2    1    2    0    0  0.10446862363E+02  0.38773341694E+02 -0.63763035749E+01  0.50528853346E+02  0.29999980231E+02 0.  0.
         12    1    1    2    0    0 -0.10446862363E+02 -0.38773341694E+02  0.63763035749E+01  0.40659146654E+02  0.00000000000E+00 0. -1.
         11    1    3    3    0    0  0.42961541076E+01 -0.10918845836E+01  0.31204529317E+01  0.54209204773E+01  0.51100000000E-03 0. -1.
        -11    1    3    3    0    0  0.44917944025E+01  0.37868354224E+02 -0.31653549594E+01  0.38264970153E+02  0.51100000000E-03 0.  1.
        -12    1    3    3    0    0  0.16589138529E+01  0.19968720538E+01 -0.63314015473E+01  0.68429627154E+01  0.00000000000E+00 0.  1.
</event>
<event>
 7    1  0.5946946E-013  0.5052886E+02  0.7816164E-02  0.1300439E+00
        -11   -1    0    0    0    0  0.00000000000E+00  0.00000000000E+00  0.45593999997E+02  0.45594000000E+02  0.51100000000E-03 0.  1.
         11   -1    0    0    0    0 -0.00000000000E+00 -0.00000000000E+00 -0.45593999997E+02  0.45594000000E+02  0.51100000000E-03 0. -1.
    9900012    2    1    2    0    0 -0.25436023919E+02 -0.31381576434E+02  0.46228912501E+01  0.50528858644E+02  0.29999996334E+02 0.  0.
         12    1    1    2    0    0  0.25436023919E+02  0.31381576434E+02 -0.46228912501E+01  0.40659141356E+02  0.00000000000E+00 0. -1.
         11    1    3    3    0    0 -0.33506400500E+01 -0.20984069746E+01  0.69966549675E+01  0.80363724136E+01  0.51100000000E-03 0. -1.
        -11    1    3    3    0    0 -0.16658883331E+02 -0.31906969237E+02 -0.40891616961E+01  0.36225603147E+02  0.51100000000E-03 0.  1.
        -12    1    3    3    0    0 -0.54265005376E+01  0.26237997771E+01  0.17153979788E+01  0.62668830834E+01  0.00000000000E+00 0.  1.
</event>
<event>
 7    1  0.5946946E-013  0.5052882E+02  0.7816164E-02  0.1300439E+00
        -11   -1    0    0    0    0  0.00000000000E+00  0.00000000000E+00  0.45593999997E+02  0.45594000000E+02  0.51100000000E-03 0.  1.
         11   -1    0    0    0    0 -0.00000000000E+00 -0.00000000000E+00 -0.45593999997E+02  0.45594000000E+02  0.51100000000E-03 0. -1.
    9900012    2    1    2    0    0  0.30496384873E+02  0.16621499938E+02  0.21139184217E+02  0.50528820718E+02  0.29999881054E+02 0.  0.
         12    1    1    2    0    0 -0.30496384873E+02 -0.16621499938E+02 -0.21139184217E+02  0.40659179282E+02  0.00000000000E+00 0. -1.
         11    1    3    3    0    0 -0.14349607290E+01  0.65494461049E+01  0.71391626315E+00  0.67427022229E+01  0.51100000000E-03 0. -1.
        -11    1    3    3    0    0  0.26328560424E+02 -0.42526429811E+00  0.17221084320E+02  0.31463307028E+02  0.51100000000E-03 0.  1.
        -12    1    3    3    0    0  0.56027851778E+01  0.10497318131E+02  0.32041836348E+01  0.12322811467E+02  0.00000000000E+00 0.  1.
</event>
<event>
 7    1  0.5946946E-013  0.5052886E+02  0.7816164E-02  0.1300439E+00
        -11   -1    0    0    0    0  0.00000000000E+00  0.00000000000E+00  0.45593999997E+02  0.45594000000E+02  0.51100000000E-03 0. -1.
         11   -1    0    0    0    0 -0.00000000000E+00 -0.00000000000E+00 -0.45593999997E+02  0.45594000000E+02  0.51100000000E-03 0.  1.
    9900012    2    1    2    0    0  0.40391448787E+02  0.45009618852E+01 -0.11989648595E+01  0.50528864375E+02  0.30000013755E+02 0.  0.
         12    1    1    2    0    0 -0.40391448787E+02 -0.45009618852E+01  0.11989648595E+01  0.40659135625E+02  0.00000000000E+00 0. -1.
         11    1    3    3    0    0  0.45969743743E+01  0.21162714754E+01  0.88174195934E+01  0.10166497278E+02  0.51100000000E-03 0. -1.
        -11    1    3    3    0    0  0.36696206635E+02  0.26448807457E+01 -0.73269493863E+01  0.37513879606E+02  0.51100000000E-03 0.  1.
        -12    1    3    3    0    0 -0.90173222155E+00 -0.26019033598E+00 -0.26894350665E+01  0.28484874912E+01  0.00000000000E+00 0.  1.
</event>
<event>
 7    1  0.5946946E-013  0.5052886E+02  0.7816164E-02  0.1300439E+00
        -11   -1    0    0    0    0  0.00000000000E+00  0.00000000000E+00  0.45593999997E+02  0.45594000000E+02  0.51100000000E-03 0. -1.
         11   -1    0    0    0    0 -0.00000000000E+00 -0.00000000000E+00 -0.45593999997E+02  0.45594000000E+02  0.51100000000E-03 0.  1.
    9900012    2    1    2    0    0 -0.64828366623E+01 -0.40116371266E+02 -0.13473611133E+01  0.50528858387E+02  0.29999995552E+02 0.  0.
         12    1    1    2    0    0  0.64828366623E+01  0.40116371266E+02  0.13473611133E+01  0.40659141613E+02  0.00000000000E+00 0. -1.
         11    1    3    3    0    0 -0.50795431727E+00  0.42282218127E+01 -0.18239278189E+01  0.46327734928E+01  0.51100000000E-03 0. -1.
        -11    1    3    3    0    0 -0.44216241226E+01 -0.33818441361E+02 -0.40248542122E+01  0.34342935048E+02  0.51100000000E-03 0.  1.
        -12    1    3    3    0    0 -0.15532582224E+01 -0.10526151718E+02  0.45014209179E+01  0.11553149846E+02  0.00000000000E+00 0.  1.
</event>
