<event>
 7    1  0.4876728E-009  0.4778727E+02  0.7816164E-02  0.1312668E+00
        -11   -1    0    0    0    0  0.00000000000E+00  0.00000000000E+00  0.45593999997E+02  0.45594000000E+02  0.51100000000E-03 0.  1.
         11   -1    0    0    0    0 -0.00000000000E+00 -0.00000000000E+00 -0.45593999997E+02  0.45594000000E+02  0.51100000000E-03 0. -1.
    9900012    2    1    2    0    0 -0.20004678686E+02 -0.36053989976E+02 -0.13547911946E+02  0.47787270966E+02  0.19999999644E+02 0.  0.
         12    1    1    2    0    0  0.20004678686E+02  0.36053989976E+02  0.13547911946E+02  0.43400729034E+02  0.00000000000E+00 0. -1.
         11    1    3    3    0    0 -0.33246086112E+01 -0.16700378908E+00  0.11266903431E+01  0.35143056317E+01  0.51100000000E-03 0. -1.
        -11    1    3    3    0    0 -0.16368106836E+02 -0.36462875393E+02 -0.15794313841E+02  0.42975767047E+02  0.51100000000E-03 0.  1.
        -12    1    3    3    0    0 -0.31196323922E+00  0.57588920509E+00  0.11197115519E+01  0.12971982881E+01  0.00000000000E+00 0.  1.
</event>
<event>
 7    1  0.4876728E-009  0.4778727E+02  0.7816164E-02  0.1312668E+00
        -11   -1    0    0    0    0  0.00000000000E+00  0.00000000000E+00  0.45593999997E+02  0.45594000000E+02  0.51100000000E-03 0.  1.
         11   -1    0    0    0    0 -0.00000000000E+00 -0.00000000000E+00 -0.45593999997E+02  0.45594000000E+02  0.51100000000E-03 0. -1.
    9900012    2    1    2    0    0  0.41333435665E+01  0.14750672931E+02  0.40607346011E+02  0.47787269234E+02  0.19999991747E+02 0.  0.
         12    1    1    2    0    0 -0.41333435665E+01 -0.14750672931E+02 -0.40607346011E+02  0.43400730766E+02  0.00000000000E+00 0. -1.
         11    1    3    3    0    0  0.46260435387E+01  0.13614182350E+02  0.17317709360E+02  0.22508871531E+02  0.51100000000E-03 0. -1.
        -11    1    3    3    0    0 -0.30837220428E+01 -0.33774440078E+01  0.96316365229E+01  0.10662311758E+02  0.51100000000E-03 0.  1.
         12    1    3    3    0    0  0.25910220706E+01  0.45139345886E+01  0.13658000128E+02  0.14616085945E+02  0.00000000000E+00 0. -1.
</event>
<event>
 7    1  0.4876728E-009  0.4778728E+02  0.7816164E-02  0.1312668E+00
        -11   -1    0    0    0    0  0.00000000000E+00  0.00000000000E+00  0.45593999997E+02  0.45594000000E+02  0.51100000000E-03 0.  1.
         11   -1    0    0    0    0 -0.00000000000E+00 -0.00000000000E+00 -0.45593999997E+02  0.45594000000E+02  0.51100000000E-03 0. -1.
    9900012    2    1    2    0    0 -0.14095943401E+02  0.22948588234E+02  0.34033646313E+02  0.47787281070E+02  0.20000045711E+02 0.  0.
         12    1    1    2    0    0  0.14095943401E+02 -0.22948588234E+02 -0.34033646313E+02  0.43400718930E+02  0.00000000000E+00 0. -1.
         11    1    3    3    0    0 -0.18623076809E+01  0.68756610845E+00 -0.35853501672E+00  0.20172963766E+01  0.51100000000E-03 0. -1.
        -11    1    3    3    0    0 -0.66600836283E+00 -0.15321033325E+00 -0.16457646086E+01  0.17820162608E+01  0.51100000000E-03 0.  1.
        -12    1    3    3    0    0 -0.11567627357E+02  0.22414232458E+02  0.36037945938E+02  0.43987968433E+02  0.00000000000E+00 0.  1.
</event>
<event>
 7    1  0.4876728E-009  0.4778727E+02  0.7816164E-02  0.1312668E+00
        -11   -1    0    0    0    0  0.00000000000E+00  0.00000000000E+00  0.45593999997E+02  0.45594000000E+02  0.51100000000E-03 0.  1.
         11   -1    0    0    0    0 -0.00000000000E+00 -0.00000000000E+00 -0.45593999997E+02  0.45594000000E+02  0.51100000000E-03 0. -1.
    9900012    2    1    2    0    0  0.40658942883E+02 -0.66749305340E+01  0.13635208496E+02  0.47787271380E+02  0.20000001529E+02 0.  0.
         12    1    1    2    0    0 -0.40658942883E+02  0.66749305340E+01 -0.13635208496E+02  0.43400728620E+02  0.00000000000E+00 0. -1.
         11    1    3    3    0    0  0.14004249768E+02 -0.39757874164E+01 -0.45050739045E+01  0.15238818468E+02  0.51100000000E-03 0. -1.
        -11    1    3    3    0    0  0.19451960961E+02 -0.34813969562E+01  0.12733986848E+02  0.23508579950E+02  0.51100000000E-03 0.  1.
         12    1    3    3    0    0  0.72027321545E+01  0.78225383867E+00  0.54062955528E+01  0.90398729616E+01  0.00000000000E+00 0. -1.
</event>
<event>
 7    1  0.4876728E-009  0.4778727E+02  0.7816164E-02  0.1312668E+00
        -11   -1    0    0    0    0  0.00000000000E+00  0.00000000000E+00  0.45593999997E+02  0.45594000000E+02  0.51100000000E-03 0.  1.
         11   -1    0    0    0    0 -0.00000000000E+00 -0.00000000000E+00 -0.45593999997E+02  0.45594000000E+02  0.51100000000E-03 0. -1.
    9900012    2    1    2    0    0 -0.32998019769E+02 -0.27944474581E+02 -0.37229791765E+01  0.47787267952E+02  0.19999985902E+02 0.  0.
         12    1    1    2    0    0  0.32998019769E+02  0.27944474581E+02  0.37229791765E+01  0.43400732048E+02  0.00000000000E+00 0. -1.
         11    1    3    3    0    0 -0.12483583917E+02  0.11303889357E+00  0.33275677048E+00  0.12488529639E+02  0.51100000000E-03 0. -1.
        -11    1    3    3    0    0 -0.17002047760E+02 -0.20833148622E+02 -0.17777134255E+01  0.26949025489E+02  0.51100000000E-03 0.  1.
         12    1    3    3    0    0 -0.35123880916E+01 -0.72243648532E+01 -0.22780225215E+01  0.83497128242E+01  0.00000000000E+00 0. -1.
</event>
<event>
 7    1  0.4876728E-009  0.4778727E+02  0.7816164E-02  0.1312668E+00
        -11   -1    0    0    0    0  0.00000000000E+00  0.00000000000E+00  0.45593999997E+02  0.45594000000E+02  0.51100000000E-03 0.  1.
         11   -1    0    0    0    0 -0.00000000000E+00 -0.00000000000E+00 -0.45593999997E+02  0.45594000000E+02  0.51100000000E-03 0. -1.
    9900012    2    1    2    0    0 -0.27706151267E+02 -0.20442787776E+02  0.26421295891E+02  0.47787271128E+02  0.20000000380E+02 0.  0.
         12    1    1    2    0    0  0.27706151267E+02  0.20442787776E+02 -0.26421295891E+02  0.43400728872E+02  0.00000000000E+00 0. -1.
         11    1    3    3    0    0 -0.32244590912E+01 -0.11179155078E+01 -0.91552658610E+00  0.35334205388E+01  0.51100000000E-03 0. -1.
        -11    1    3    3    0    0 -0.63462151191E+00 -0.42890590681E+01  0.10638571203E+02  0.11488166506E+02  0.51100000000E-03 0.  1.
        -12    1    3    3    0    0 -0.23847070664E+02 -0.15035813201E+02  0.16698251274E+02  0.32765684083E+02  0.00000000000E+00 0.  1.
</event>
<event>
 7    1  0.4876728E-009  0.4778727E+02  0.7816164E-02  0.1312668E+00
        -11   -1    0    0    0    0  0.00000000000E+00  0.00000000000E+00  0.45593999997E+02  0.45594000000E+02  0.51100000000E-03 0.  1.
         11   -1    0    0    0    0 -0.00000000000E+00 -0.00000000000E+00 -0.45593999997E+02  0.45594000000E+02  0.51100000000E-03 0. -1.
    9900012    2    1    2    0    0  0.19905705574E+02  0.29263064014E+02  0.25120902962E+02  0.47787265035E+02  0.19999972599E+02 0.  0.
         12    1    1    2    0    0 -0.19905705574E+02 -0.29263064014E+02 -0.25120902962E+02  0.43400734965E+02  0.00000000000E+00 0. -1.
         11    1    3    3    0    0  0.23843725363E+01  0.44350974636E+01  0.11185319373E+02  0.12266486524E+02  0.51100000000E-03 0. -1.
        -11    1    3    3    0    0  0.15108219762E+02  0.22012333921E+02  0.69122753677E+01  0.27578627596E+02  0.51100000000E-03 0.  1.
        -12    1    3    3    0    0  0.24131132758E+01  0.28156326294E+01  0.70233082212E+01  0.79421509149E+01  0.00000000000E+00 0.  1.
</event>
<event>
 7    1  0.4876728E-009  0.4778728E+02  0.7816164E-02  0.1312668E+00
        -11   -1    0    0    0    0  0.00000000000E+00  0.00000000000E+00  0.45593999997E+02  0.45594000000E+02  0.51100000000E-03 0. -1.
         11   -1    0    0    0    0 -0.00000000000E+00 -0.00000000000E+00 -0.45593999997E+02  0.45594000000E+02  0.51100000000E-03 0.  1.
    9900012    2    1    2    0    0 -0.10943433146E+02  0.15989371991E+02 -0.38835603877E+02  0.47787275649E+02  0.20000020996E+02 0.  0.
         12    1    1    2    0    0  0.10943433146E+02 -0.15989371991E+02  0.38835603877E+02  0.43400724351E+02  0.00000000000E+00 0. -1.
         11    1    3    3    0    0 -0.41259643019E+00  0.13164091852E+02 -0.15294133266E+02  0.20183509673E+02  0.51100000000E-03 0. -1.
        -11    1    3    3    0    0 -0.12045267852E+02  0.31884652362E+01 -0.18325775740E+02  0.22160524473E+02  0.51100000000E-03 0.  1.
        -12    1    3    3    0    0  0.15144311361E+01 -0.36318509727E+00 -0.52156948704E+01  0.54432415031E+01  0.00000000000E+00 0.  1.
</event>
<event>
 7    1  0.4876728E-009  0.4778727E+02  0.7816164E-02  0.1312668E+00
        -11   -1    0    0    0    0  0.00000000000E+00  0.00000000000E+00  0.45593999997E+02  0.45594000000E+02  0.51100000000E-03 0. -1.
         11   -1    0    0    0    0 -0.00000000000E+00 -0.00000000000E+00 -0.45593999997E+02  0.45594000000E+02  0.51100000000E-03 0.  1.
    9900012    2    1    2    0    0 -0.25218109633E+02 -0.23546376060E+02 -0.26329420664E+02  0.47787271072E+02  0.20000000124E+02 0.  0.
         12    1    1    2    0    0  0.25218109633E+02  0.23546376060E+02  0.26329420664E+02  0.43400728928E+02  0.00000000000E+00 0. -1.
         11    1    3    3    0    0 -0.92766129815E+01  0.15376275012E+01 -0.88411085623E+01  0.12906783008E+02  0.51100000000E-03 0. -1.
        -11    1    3    3    0    0 -0.41226099476E+01 -0.48803765270E+01 -0.15849195704E+01  0.65822456754E+01  0.51100000000E-03 0.  1.
         12    1    3    3    0    0 -0.11818886704E+02 -0.20203627035E+02 -0.15903392531E+02  0.28298242388E+02  0.00000000000E+00 0. -1.
</event>
<event>
 7    1  0.4876728E-009  0.4778727E+02  0.7816164E-02  0.1312668E+00
        -11   -1    0    0    0    0  0.00000000000E+00  0.00000000000E+00  0.45593999997E+02  0.45594000000E+02  0.51100000000E-03 0.  1.
         11   -1    0    0    0    0 -0.00000000000E+00 -0.00000000000E+00 -0.45593999997E+02  0.45594000000E+02  0.51100000000E-03 0. -1.
    9900012    2    1    2    0    0  0.20301475723E+02  0.78831942074E+01  0.37541027044E+02  0.47787269833E+02  0.19999994478E+02 0.  0.
         12    1    1    2    0    0 -0.20301475723E+02 -0.78831942074E+01 -0.37541027044E+02  0.43400730167E+02  0.00000000000E+00 0. -1.
         11    1    3    3    0    0  0.76103603619E+01 -0.34763136095E+01  0.60314644957E+01  0.10314111953E+02  0.51100000000E-03 0. -1.
        -11    1    3    3    0    0  0.82744888528E+01  0.96369621347E+01  0.29867435003E+02  0.32456153175E+02  0.51100000000E-03 0.  1.
        -12    1    3    3    0    0  0.44166265087E+01  0.17225456823E+01  0.16421275451E+01  0.50170047059E+01  0.00000000000E+00 0.  1.
</event>
<event>
 7    1  0.4876728E-009  0.4778730E+02  0.7816164E-02  0.1312668E+00
        -11   -1    0    0    0    0  0.00000000000E+00  0.00000000000E+00  0.45593999997E+02  0.45594000000E+02  0.51100000000E-03 0. -1.
         11   -1    0    0    0    0 -0.00000000000E+00 -0.00000000000E+00 -0.45593999997E+02  0.45594000000E+02  0.51100000000E-03 0.  1.
    9900012    2    1    2    0    0  0.38155686986E+01  0.32259661129E+02  0.28781532811E+02  0.47787298028E+02  0.20000123029E+02 0.  0.
         12    1    1    2    0    0 -0.38155686986E+01 -0.32259661129E+02 -0.28781532811E+02  0.43400701972E+02  0.00000000000E+00 0. -1.
         11    1    3    3    0    0 -0.25562925826E+00  0.20497847598E+01 -0.14951643686E+01  0.25499962019E+01  0.51100000000E-03 0. -1.
        -11    1    3    3    0    0  0.31216969648E+00  0.29391244009E+02  0.24337316918E+02  0.38160813269E+02  0.51100000000E-03 0.  1.
        -12    1    3    3    0    0  0.37590282604E+01  0.81863236050E+00  0.59393802624E+01  0.70764885576E+01  0.00000000000E+00 0.  1.
</event>
<event>
 7    1  0.4876728E-009  0.4778727E+02  0.7816164E-02  0.1312668E+00
        -11   -1    0    0    0    0  0.00000000000E+00  0.00000000000E+00  0.45593999997E+02  0.45594000000E+02  0.51100000000E-03 0. -1.
         11   -1    0    0    0    0 -0.00000000000E+00 -0.00000000000E+00 -0.45593999997E+02  0.45594000000E+02  0.51100000000E-03 0.  1.
    9900012    2    1    2    0    0  0.16109225222E+02 -0.20962803236E+02 -0.34419136309E+02  0.47787271884E+02  0.20000003826E+02 0.  0.
         12    1    1    2    0    0 -0.16109225222E+02  0.20962803236E+02  0.34419136309E+02  0.43400728116E+02  0.00000000000E+00 0. -1.
         11    1    3    3    0    0  0.38702531795E+01 -0.91385173286E+00  0.17705434892E+01  0.43530229923E+01  0.51100000000E-03 0. -1.
        -11    1    3    3    0    0  0.94134604347E+01 -0.12432613662E+02 -0.20403055526E+02  0.25680105041E+02  0.51100000000E-03 0.  1.
        -12    1    3    3    0    0  0.28255116078E+01 -0.76163378410E+01 -0.15786624272E+02  0.17754143851E+02  0.00000000000E+00 0.  1.
</event>
<event>
 7    1  0.4876728E-009  0.4778727E+02  0.7816164E-02  0.1312668E+00
        -11   -1    0    0    0    0  0.00000000000E+00  0.00000000000E+00  0.45593999997E+02  0.45594000000E+02  0.51100000000E-03 0. -1.
         11   -1    0    0    0    0 -0.00000000000E+00 -0.00000000000E+00 -0.45593999997E+02  0.45594000000E+02  0.51100000000E-03 0.  1.
    9900012    2    1    2    0    0  0.36070905373E+02 -0.22088713589E+02  0.97263453425E+01  0.47787271018E+02  0.19999999881E+02 0.  0.
         12    1    1    2    0    0 -0.36070905373E+02  0.22088713589E+02 -0.97263453425E+01  0.43400728982E+02  0.00000000000E+00 0. -1.
         11    1    3    3    0    0  0.22871600402E+02 -0.94305365399E+01  0.13011327168E+02  0.27952455336E+02  0.51100000000E-03 0. -1.
        -11    1    3    3    0    0  0.13371941780E+02 -0.99228389022E+01 -0.18868861612E+01  0.16758039816E+02  0.51100000000E-03 0.  1.
         12    1    3    3    0    0 -0.17263680861E+00 -0.27353381470E+01 -0.13980956640E+01  0.30767758664E+01  0.00000000000E+00 0. -1.
</event>
<event>
 7    1  0.4876728E-009  0.4778727E+02  0.7816164E-02  0.1312668E+00
        -11   -1    0    0    0    0  0.00000000000E+00  0.00000000000E+00  0.45593999997E+02  0.45594000000E+02  0.51100000000E-03 0. -1.
         11   -1    0    0    0    0 -0.00000000000E+00 -0.00000000000E+00 -0.45593999997E+02  0.45594000000E+02  0.51100000000E-03 0.  1.
    9900012    2    1    2    0    0 -0.26953404102E+02 -0.20650503423E+02  0.27031353593E+02  0.47787270036E+02  0.19999995402E+02 0.  0.
         12    1    1    2    0    0  0.26953404102E+02  0.20650503423E+02 -0.27031353593E+02  0.43400729964E+02  0.00000000000E+00 0. -1.
         11    1    3    3    0    0  0.28533520370E+01 -0.21938410151E+01  0.10639619518E+01  0.37532081667E+01  0.51100000000E-03 0. -1.
        -11    1    3    3    0    0 -0.23382142969E+02 -0.16894397839E+02  0.19766274393E+02  0.34969284977E+02  0.51100000000E-03 0.  1.
         12    1    3    3    0    0 -0.64246131706E+01 -0.15622645681E+01  0.62011172484E+01  0.90647768920E+01  0.00000000000E+00 0. -1.
</event>
<event>
 7    1  0.4876728E-009  0.4778727E+02  0.7816164E-02  0.1312668E+00
        -11   -1    0    0    0    0  0.00000000000E+00  0.00000000000E+00  0.45593999997E+02  0.45594000000E+02  0.51100000000E-03 0.  1.
         11   -1    0    0    0    0 -0.00000000000E+00 -0.00000000000E+00 -0.45593999997E+02  0.45594000000E+02  0.51100000000E-03 0. -1.
    9900012    2    1    2    0    0 -0.41156432813E+02  0.94064680983E+01  0.10064281592E+02  0.47787269961E+02  0.19999995059E+02 0.  0.
         12    1    1    2    0    0  0.41156432813E+02 -0.94064680983E+01 -0.10064281592E+02  0.43400730039E+02  0.00000000000E+00 0. -1.
         11    1    3    3    0    0  0.15353296650E+00  0.73821723397E+00 -0.53880522896E+00  0.92674073624E+00  0.51100000000E-03 0. -1.
        -11    1    3    3    0    0 -0.17511916568E+01  0.26470428094E+01  0.57302662728E+01  0.65505312511E+01  0.51100000000E-03 0.  1.
        -12    1    3    3    0    0 -0.39558774123E+02  0.60212080549E+01  0.48728205480E+01  0.40309997974E+02  0.00000000000E+00 0.  1.
</event>
<event>
 7    1  0.4876728E-009  0.4778728E+02  0.7816164E-02  0.1312668E+00
        -11   -1    0    0    0    0  0.00000000000E+00  0.00000000000E+00  0.45593999997E+02  0.45594000000E+02  0.51100000000E-03 0.  1.
         11   -1    0    0    0    0 -0.00000000000E+00 -0.00000000000E+00 -0.45593999997E+02  0.45594000000E+02  0.51100000000E-03 0. -1.
    9900012    2    1    2    0    0 -0.12631470397E+02  0.13552415189E+02  0.39247933689E+02  0.47787282256E+02  0.20000051119E+02 0.  0.
         12    1    1    2    0    0  0.12631470397E+02 -0.13552415189E+02 -0.39247933689E+02  0.43400717744E+02  0.00000000000E+00 0. -1.
         11    1    3    3    0    0 -0.73004623661E+00 -0.30912837332E+01 -0.32118580760E+00  0.31925167519E+01  0.51100000000E-03 0. -1.
        -11    1    3    3    0    0 -0.61995401845E+01  0.76705374943E+01  0.20913976030E+02  0.23122842334E+02  0.51100000000E-03 0.  1.
         12    1    3    3    0    0 -0.57018839763E+01  0.89731614281E+01  0.18655143467E+02  0.21471923171E+02  0.00000000000E+00 0. -1.
</event>
<event>
 7    1  0.4876728E-009  0.4778727E+02  0.7816164E-02  0.1312668E+00
        -11   -1    0    0    0    0  0.00000000000E+00  0.00000000000E+00  0.45593999997E+02  0.45594000000E+02  0.51100000000E-03 0. -1.
         11   -1    0    0    0    0 -0.00000000000E+00 -0.00000000000E+00 -0.45593999997E+02  0.45594000000E+02  0.51100000000E-03 0.  1.
    9900012    2    1    2    0    0  0.29062736492E+02  0.31558661827E+02  0.65598730483E+01  0.47787265869E+02  0.19999976404E+02 0.  0.
         12    1    1    2    0    0 -0.29062736492E+02 -0.31558661827E+02 -0.65598730483E+01  0.43400734131E+02  0.00000000000E+00 0. -1.
         11    1    3    3    0    0  0.58912750079E+00  0.43525533436E+01  0.17953676204E+01  0.47450117992E+01  0.51100000000E-03 0. -1.
        -11    1    3    3    0    0  0.22671163073E+02  0.27174577610E+02  0.81611915278E+01  0.36318650178E+02  0.51100000000E-03 0.  1.
        -12    1    3    3    0    0  0.58024459181E+01  0.31530873101E-01 -0.33966861000E+01  0.67236038916E+01  0.00000000000E+00 0.  1.
</event>
<event>
 7    1  0.5399840E-009  0.4778727E+02  0.7816164E-02  0.1312668E+00
        -11   -1    0    0    0    0  0.00000000000E+00  0.00000000000E+00  0.45593999997E+02  0.45594000000E+02  0.51100000000E-03 0. -1.
         11   -1    0    0    0    0 -0.00000000000E+00 -0.00000000000E+00 -0.45593999997E+02  0.45594000000E+02  0.51100000000E-03 0.  1.
    9900012    2    1    2    0    0 -0.10131037400E+02  0.18086340720E+02 -0.38129642359E+02  0.47787271136E+02  0.20000000419E+02 0.  0.
         12    1    1    2    0    0  0.10131037400E+02 -0.18086340720E+02  0.38129642359E+02  0.43400728864E+02  0.00000000000E+00 0. -1.
         11    1    3    3    0    0 -0.13363362017E+01  0.13991327166E+01  0.76872319189E+00  0.20818987510E+01  0.51100000000E-03 0. -1.
        -11    1    3    3    0    0 -0.19931194183E+01  0.22557025942E+00 -0.18569119498E+02  0.18677141274E+02  0.51100000000E-03 0.  1.
        -12    1    3    3    0    0 -0.68015817802E+01  0.16461637744E+02 -0.20329246053E+02  0.27028231111E+02  0.00000000000E+00 0.  1.
</event>
<event>
 7    1  0.4876728E-009  0.4778727E+02  0.7816164E-02  0.1312668E+00
        -11   -1    0    0    0    0  0.00000000000E+00  0.00000000000E+00  0.45593999997E+02  0.45594000000E+02  0.51100000000E-03 0. -1.
         11   -1    0    0    0    0 -0.00000000000E+00 -0.00000000000E+00 -0.45593999997E+02  0.45594000000E+02  0.51100000000E-03 0.  1.
    9900012    2    1    2    0    0 -0.14296165371E+02  0.40490879190E+02 -0.63033183374E+01  0.47787268855E+02  0.19999990017E+02 0.  0.
         12    1    1    2    0    0  0.14296165371E+02 -0.40490879190E+02  0.63033183374E+01  0.43400731145E+02  0.00000000000E+00 0. -1.
         11    1    3    3    0    0 -0.65094136611E+01  0.12528417170E+01  0.32971032314E+00  0.66370767464E+01  0.51100000000E-03 0. -1.
        -11    1    3    3    0    0 -0.11159842096E+01  0.40376078303E+01 -0.29730357626E+01  0.51367927400E+01  0.51100000000E-03 0.  1.
         12    1    3    3    0    0 -0.66707675002E+01  0.35200429642E+02 -0.36599928980E+01  0.36013399368E+02  0.00000000000E+00 0. -1.
</event>
<event>
 7    1  0.4876728E-009  0.4778727E+02  0.7816164E-02  0.1312668E+00
        -11   -1    0    0    0    0  0.00000000000E+00  0.00000000000E+00  0.45593999997E+02  0.45594000000E+02  0.51100000000E-03 0.  1.
         11   -1    0    0    0    0 -0.00000000000E+00 -0.00000000000E+00 -0.45593999997E+02  0.45594000000E+02  0.51100000000E-03 0. -1.
    9900012    2    1    2    0    0  0.42088131318E+02  0.10090070014E+02  0.32253299672E+01  0.47787273460E+02  0.20000011016E+02 0.  0.
         12    1    1    2    0    0 -0.42088131318E+02 -0.10090070014E+02 -0.32253299672E+01  0.43400726540E+02  0.00000000000E+00 0. -1.
         11    1    3    3    0    0  0.93072094857E+00 -0.27214358633E+01 -0.21943911136E+01  0.36177074595E+01  0.51100000000E-03 0. -1.
        -11    1    3    3    0    0  0.27889295261E+02  0.72162051902E+01  0.71067813508E+01  0.29671412991E+02  0.51100000000E-03 0.  1.
        -12    1    3    3    0    0  0.13268115109E+02  0.55953006875E+01 -0.16870602701E+01  0.14498153010E+02  0.00000000000E+00 0.  1.
</event>
<event>
 7    1  0.4876728E-009  0.4778729E+02  0.7816164E-02  0.1312668E+00
        -11   -1    0    0    0    0  0.00000000000E+00  0.00000000000E+00  0.45593999997E+02  0.45594000000E+02  0.51100000000E-03 0.  1.
         11   -1    0    0    0    0 -0.00000000000E+00 -0.00000000000E+00 -0.45593999997E+02  0.45594000000E+02  0.51100000000E-03 0. -1.
    9900012    2    1    2    0    0 -0.36456998673E+02  0.30504972504E+01  0.23349596756E+02  0.47787286246E+02  0.20000069308E+02 0.  0.
         12    1    1    2    0    0  0.36456998673E+02 -0.30504972504E+01 -0.23349596756E+02  0.43400713754E+02  0.00000000000E+00 0. -1.
         11    1    3    3    0    0 -0.16090876034E+02  0.42764767799E+01  0.48250212534E+01  0.17334513998E+02  0.51100000000E-03 0.  1.
        -11    1    3    3    0    0 -0.88000413583E+01 -0.69818917892E+01  0.92025237512E+01  0.14521500767E+02  0.51100000000E-03 0. -1.
        -12    1    3    3    0    0 -0.11566081281E+02  0.57559122597E+01  0.93220517518E+01  0.15931271481E+02  0.00000000000E+00 0.  1.
</event>
<event>
 7    1  0.4876728E-009  0.4778728E+02  0.7816164E-02  0.1312668E+00
        -11   -1    0    0    0    0  0.00000000000E+00  0.00000000000E+00  0.45593999997E+02  0.45594000000E+02  0.51100000000E-03 0. -1.
         11   -1    0    0    0    0 -0.00000000000E+00 -0.00000000000E+00 -0.45593999997E+02  0.45594000000E+02  0.51100000000E-03 0.  1.
    9900012    2    1    2    0    0  0.30138743114E+02 -0.46877252341E+01 -0.30875619548E+02  0.47787280112E+02  0.20000041341E+02 0.  0.
         12    1    1    2    0    0 -0.30138743114E+02  0.46877252341E+01  0.30875619548E+02  0.43400719888E+02  0.00000000000E+00 0. -1.
         11    1    3    3    0    0  0.32395810181E+01 -0.14331398209E+01 -0.77453784861E+00  0.36261114240E+01  0.51100000000E-03 0. -1.
        -11    1    3    3    0    0 -0.25592697379E+01  0.79168646283E-02 -0.14661737358E+01  0.29495067304E+01  0.51100000000E-03 0.  1.
        -12    1    3    3    0    0  0.29458431834E+02 -0.32625022778E+01 -0.28634907964E+02  0.41211661957E+02  0.00000000000E+00 0.  1.
</event>
<event>
 7    1  0.4876728E-009  0.4778727E+02  0.7816164E-02  0.1312668E+00
        -11   -1    0    0    0    0  0.00000000000E+00  0.00000000000E+00  0.45593999997E+02  0.45594000000E+02  0.51100000000E-03 0.  1.
         11   -1    0    0    0    0 -0.00000000000E+00 -0.00000000000E+00 -0.45593999997E+02  0.45594000000E+02  0.51100000000E-03 0. -1.
    9900012    2    1    2    0    0 -0.86187384753E+01 -0.11799240938E+02  0.40867084730E+02  0.47787270122E+02  0.19999995792E+02 0.  0.
         12    1    1    2    0    0  0.86187384753E+01  0.11799240938E+02 -0.40867084730E+02  0.43400729878E+02  0.00000000000E+00 0. -1.
         11    1    3    3    0    0 -0.30624142924E+00  0.47092134050E+00  0.46215430722E-01  0.56363716084E+00  0.51100000000E-03 0. -1.
        -11    1    3    3    0    0 -0.85346875961E+01  0.25234325986E+01  0.16802991195E+02  0.19014444977E+02  0.51100000000E-03 0.  1.
        -12    1    3    3    0    0  0.22219055002E+00 -0.14793594877E+02  0.24017878105E+02  0.28209187983E+02  0.00000000000E+00 0.  1.
</event>
<event>
 7    1  0.4876728E-009  0.4778727E+02  0.7816164E-02  0.1312668E+00
        -11   -1    0    0    0    0  0.00000000000E+00  0.00000000000E+00  0.45593999997E+02  0.45594000000E+02  0.51100000000E-03 0.  1.
         11   -1    0    0    0    0 -0.00000000000E+00 -0.00000000000E+00 -0.45593999997E+02  0.45594000000E+02  0.51100000000E-03 0. -1.
    9900012    2    1    2    0    0  0.43346099335E+02  0.19028098299E+01  0.10575806004E+01  0.47787268559E+02  0.19999988670E+02 0.  0.
         12    1    1    2    0    0 -0.43346099335E+02 -0.19028098299E+01 -0.10575806004E+01  0.43400731441E+02  0.00000000000E+00 0. -1.
         11    1    3    3    0    0  0.11037687174E+02  0.12914478018E+01 -0.77437319937E+01  0.13544879513E+02  0.51100000000E-03 0. -1.
        -11    1    3    3    0    0  0.28789430030E+02 -0.47612532038E+00  0.55371590054E+01  0.29320949965E+02  0.51100000000E-03 0.  1.
         12    1    3    3    0    0  0.35189821315E+01  0.10874873485E+01  0.32641535887E+01  0.49214390807E+01  0.00000000000E+00 0. -1.
</event>
<event>
 7    1  0.4876728E-009  0.4778727E+02  0.7816164E-02  0.1312668E+00
        -11   -1    0    0    0    0  0.00000000000E+00  0.00000000000E+00  0.45593999997E+02  0.45594000000E+02  0.51100000000E-03 0.  1.
         11   -1    0    0    0    0 -0.00000000000E+00 -0.00000000000E+00 -0.45593999997E+02  0.45594000000E+02  0.51100000000E-03 0. -1.
    9900012    2    1    2    0    0  0.39393937738E+02  0.23193703941E+01  0.18065477907E+02  0.47787270726E+02  0.19999998548E+02 0.  0.
         12    1    1    2    0    0 -0.39393937738E+02 -0.23193703941E+01 -0.18065477907E+02  0.43400729274E+02  0.00000000000E+00 0. -1.
         11    1    3    3    0    0  0.14765495879E+02  0.76173670409E+01  0.98719964654E+01  0.19326160086E+02  0.51100000000E-03 0. -1.
        -11    1    3    3    0    0  0.14197376669E+02 -0.14289581617E+01  0.96714515167E+01  0.17237876912E+02  0.51100000000E-03 0.  1.
         12    1    3    3    0    0  0.10431065189E+02 -0.38690384852E+01 -0.14779700750E+01  0.11223233728E+02  0.00000000000E+00 0. -1.
</event>
<event>
 7    1  0.4876728E-009  0.4778728E+02  0.7816164E-02  0.1312668E+00
        -11   -1    0    0    0    0  0.00000000000E+00  0.00000000000E+00  0.45593999997E+02  0.45594000000E+02  0.51100000000E-03 0.  1.
         11   -1    0    0    0    0 -0.00000000000E+00 -0.00000000000E+00 -0.45593999997E+02  0.45594000000E+02  0.51100000000E-03 0. -1.
    9900012    2    1    2    0    0  0.19898340560E+02  0.26734700250E+02  0.27801702923E+02  0.47787276044E+02  0.20000022796E+02 0.  0.
         12    1    1    2    0    0 -0.19898340560E+02 -0.26734700250E+02 -0.27801702923E+02  0.43400723956E+02  0.00000000000E+00 0. -1.
         11    1    3    3    0    0  0.20545744788E+02  0.18655962108E+02  0.20490047393E+02  0.34496588143E+02  0.51100000000E-03 0. -1.
        -11    1    3    3    0    0 -0.14110614513E+01  0.92672453541E+01  0.72946018678E+01  0.11877884809E+02  0.51100000000E-03 0.  1.
         12    1    3    3    0    0  0.76365722316E+00 -0.11885072125E+01  0.17053661883E-01  0.14128030917E+01  0.00000000000E+00 0. -1.
</event>
<event>
 7    1  0.5345786E-009  0.4778727E+02  0.7816164E-02  0.1312668E+00
        -11   -1    0    0    0    0  0.00000000000E+00  0.00000000000E+00  0.45593999997E+02  0.45594000000E+02  0.51100000000E-03 0.  1.
         11   -1    0    0    0    0 -0.00000000000E+00 -0.00000000000E+00 -0.45593999997E+02  0.45594000000E+02  0.51100000000E-03 0. -1.
    9900012    2    1    2    0    0  0.43216005855E+02  0.28922657937E+01  0.27631251569E+01  0.47787271618E+02  0.20000002616E+02 0.  0.
         12    1    1    2    0    0 -0.43216005855E+02 -0.28922657937E+01 -0.27631251569E+01  0.43400728382E+02  0.00000000000E+00 0. -1.
         11    1    3    3    0    0  0.19112320363E+02 -0.45406056582E+01  0.76203955735E+01  0.21070555721E+02  0.51100000000E-03 0. -1.
        -11    1    3    3    0    0  0.14518910243E+02  0.70055780836E+01 -0.37005111567E+00  0.16124943938E+02  0.51100000000E-03 0.  1.
         12    1    3    3    0    0  0.95847752484E+01  0.42729336839E+00 -0.44872193009E+01  0.10591771959E+02  0.00000000000E+00 0. -1.
</event>
<event>
 7    1  0.4876728E-009  0.4778727E+02  0.7816164E-02  0.1312668E+00
        -11   -1    0    0    0    0  0.00000000000E+00  0.00000000000E+00  0.45593999997E+02  0.45594000000E+02  0.51100000000E-03 0. -1.
         11   -1    0    0    0    0 -0.00000000000E+00 -0.00000000000E+00 -0.45593999997E+02  0.45594000000E+02  0.51100000000E-03 0.  1.
    9900012    2    1    2    0    0 -0.35800408500E+02 -0.16611398833E+02 -0.18055903360E+02  0.47787268829E+02  0.19999989901E+02 0.  0.
         12    1    1    2    0    0  0.35800408500E+02  0.16611398833E+02  0.18055903360E+02  0.43400731171E+02  0.00000000000E+00 0. -1.
         11    1    3    3    0    0 -0.76615102515E+01 -0.62320733124E+01 -0.11141555341E+02  0.14888644424E+02  0.51100000000E-03 0. -1.
        -11    1    3    3    0    0 -0.48065041885E+01 -0.39477396160E+01 -0.60554908173E+01  0.86807891283E+01  0.51100000000E-03 0.  1.
         12    1    3    3    0    0 -0.23332394060E+02 -0.64315859046E+01 -0.85885720220E+00  0.24217835278E+02  0.00000000000E+00 0. -1.
</event>
<event>
 7    1  0.4876728E-009  0.4778726E+02  0.7816164E-02  0.1312668E+00
        -11   -1    0    0    0    0  0.00000000000E+00  0.00000000000E+00  0.45593999997E+02  0.45594000000E+02  0.51100000000E-03 0. -1.
         11   -1    0    0    0    0 -0.00000000000E+00 -0.00000000000E+00 -0.45593999997E+02  0.45594000000E+02  0.51100000000E-03 0.  1.
    9900012    2    1    2    0    0  0.17116154883E+02 -0.39525772552E+02 -0.53267782095E+01  0.47787262450E+02  0.19999960813E+02 0.  0.
         12    1    1    2    0    0 -0.17116154883E+02  0.39525772552E+02  0.53267782095E+01  0.43400737550E+02  0.00000000000E+00 0. -1.
         11    1    3    3    0    0  0.62673385006E+01 -0.15292131688E+02 -0.10660392917E+02  0.19666540134E+02  0.51100000000E-03 0. -1.
        -11    1    3    3    0    0  0.97415497152E+01 -0.19638314771E+02  0.71479516180E+01  0.23057632370E+02  0.51100000000E-03 0.  1.
        -12    1    3    3    0    0  0.11072666670E+01 -0.45953260926E+01 -0.18143369110E+01  0.50630899455E+01  0.00000000000E+00 0.  1.
</event>
<event>
 7    1  0.5803935E-009  0.4778729E+02  0.7816164E-02  0.1312668E+00
        -11   -1    0    0    0    0  0.00000000000E+00  0.00000000000E+00  0.45593999997E+02  0.45594000000E+02  0.51100000000E-03 0. -1.
         11   -1    0    0    0    0 -0.00000000000E+00 -0.00000000000E+00 -0.45593999997E+02  0.45594000000E+02  0.51100000000E-03 0.  1.
    9900012    2    1    2    0    0  0.23583963406E+02 -0.13917851694E+02 -0.33670636867E+02  0.47787289029E+02  0.20000082000E+02 0.  0.
         12    1    1    2    0    0 -0.23583963406E+02  0.13917851694E+02  0.33670636867E+02  0.43400710971E+02  0.00000000000E+00 0. -1.
         11    1    3    3    0    0  0.18489991427E+02 -0.22292487596E+01 -0.17356709921E+02  0.25457900789E+02  0.51100000000E-03 0. -1.
        -11    1    3    3    0    0  0.72992021320E+01 -0.10311859460E+02 -0.13172890338E+02  0.18252063922E+02  0.51100000000E-03 0.  1.
         12    1    3    3    0    0 -0.22052301537E+01 -0.13767434742E+01 -0.31410366085E+01  0.40773243187E+01  0.00000000000E+00 0. -1.
</event>
<event>
 7    1  0.4876728E-009  0.4778733E+02  0.7816164E-02  0.1312667E+00
        -11   -1    0    0    0    0  0.00000000000E+00  0.00000000000E+00  0.45593999997E+02  0.45594000000E+02  0.51100000000E-03 0. -1.
         11   -1    0    0    0    0 -0.00000000000E+00 -0.00000000000E+00 -0.45593999997E+02  0.45594000000E+02  0.51100000000E-03 0.  1.
    9900012    2    1    2    0    0  0.72295380956E+01  0.41798055084E+02  0.91801098415E+01  0.47787331266E+02  0.20000274571E+02 0.  0.
         12    1    1    2    0    0 -0.72295380956E+01 -0.41798055084E+02 -0.91801098415E+01  0.43400668734E+02  0.00000000000E+00 0. -1.
         11    1    3    3    0    0 -0.10142571733E+01  0.17300631416E+01  0.11056324207E+01  0.22900348028E+01  0.51100000000E-03 0. -1.
        -11    1    3    3    0    0 -0.67527072627E+00  0.35687377898E+01  0.70262336921E+01  0.79094778667E+01  0.51100000000E-03 0.  1.
        -12    1    3    3    0    0  0.89190659952E+01  0.36499254152E+02  0.10482437287E+01  0.37587818596E+02  0.00000000000E+00 0.  1.
</event>
<event>
 7    1  0.4876728E-009  0.4778727E+02  0.7816164E-02  0.1312668E+00
        -11   -1    0    0    0    0  0.00000000000E+00  0.00000000000E+00  0.45593999997E+02  0.45594000000E+02  0.51100000000E-03 0. -1.
         11   -1    0    0    0    0 -0.00000000000E+00 -0.00000000000E+00 -0.45593999997E+02  0.45594000000E+02  0.51100000000E-03 0.  1.
    9900012    2    1    2    0    0  0.23662711382E+02 -0.35620880092E+02 -0.74062301670E+01  0.47787271276E+02  0.20000001056E+02 0.  0.
         12    1    1    2    0    0 -0.23662711382E+02  0.35620880092E+02  0.74062301670E+01  0.43400728724E+02  0.00000000000E+00 0. -1.
         11    1    3    3    0    0  0.21583356162E+01 -0.36253951328E+01 -0.72387282556E+01  0.83786090444E+01  0.51100000000E-03 0. -1.
        -11    1    3    3    0    0  0.91058180918E+01 -0.10527912571E+02  0.34879515495E+01  0.14349866637E+02  0.51100000000E-03 0.  1.
         12    1    3    3    0    0  0.12398557674E+02 -0.21467572389E+02 -0.36554534610E+01  0.25058795595E+02  0.00000000000E+00 0. -1.
</event>
<event>
 7    1  0.4876728E-009  0.4778727E+02  0.7816164E-02  0.1312668E+00
        -11   -1    0    0    0    0  0.00000000000E+00  0.00000000000E+00  0.45593999997E+02  0.45594000000E+02  0.51100000000E-03 0.  1.
         11   -1    0    0    0    0 -0.00000000000E+00 -0.00000000000E+00 -0.45593999997E+02  0.45594000000E+02  0.51100000000E-03 0. -1.
    9900012    2    1    2    0    0  0.29132654031E+02 -0.31838361271E+02 -0.46076883456E+01  0.47787267619E+02  0.19999984384E+02 0.  0.
         12    1    1    2    0    0 -0.29132654031E+02  0.31838361271E+02  0.46076883456E+01  0.43400732381E+02  0.00000000000E+00 0. -1.
         11    1    3    3    0    0  0.14153195658E+01  0.38426651547E+00  0.19857116192E+01  0.24685706641E+01  0.51100000000E-03 0. -1.
        -11    1    3    3    0    0  0.24770624620E+01 -0.48363988949E+01  0.38254279579E+01  0.66453361114E+01  0.51100000000E-03 0.  1.
         12    1    3    3    0    0  0.25240272003E+02 -0.27386228891E+02 -0.10418827923E+02  0.38673360844E+02  0.00000000000E+00 0. -1.
</event>
<event>
 7    1  0.4876728E-009  0.4778727E+02  0.7816164E-02  0.1312668E+00
        -11   -1    0    0    0    0  0.00000000000E+00  0.00000000000E+00  0.45593999997E+02  0.45594000000E+02  0.51100000000E-03 0.  1.
         11   -1    0    0    0    0 -0.00000000000E+00 -0.00000000000E+00 -0.45593999997E+02  0.45594000000E+02  0.51100000000E-03 0. -1.
    9900012    2    1    2    0    0  0.32545537420E+01  0.54527600305E+01  0.42933654366E+02  0.47787269716E+02  0.19999993941E+02 0.  0.
         12    1    1    2    0    0 -0.32545537420E+01 -0.54527600305E+01 -0.42933654366E+02  0.43400730284E+02  0.00000000000E+00 0. -1.
         11    1    3    3    0    0 -0.50244441180E+01 -0.27708601247E+01  0.67522239694E+01  0.88608821976E+01  0.51100000000E-03 0. -1.
        -11    1    3    3    0    0  0.59106789264E-01  0.22229403071E+01  0.12679000259E+01  0.25597906082E+01  0.51100000000E-03 0.  1.
         12    1    3    3    0    0  0.82198910708E+01  0.60006798481E+01  0.34913530371E+02  0.36366596910E+02  0.00000000000E+00 0. -1.
</event>
<event>
 7    1  0.4876728E-009  0.4778727E+02  0.7816164E-02  0.1312668E+00
        -11   -1    0    0    0    0  0.00000000000E+00  0.00000000000E+00  0.45593999997E+02  0.45594000000E+02  0.51100000000E-03 0.  1.
         11   -1    0    0    0    0 -0.00000000000E+00 -0.00000000000E+00 -0.45593999997E+02  0.45594000000E+02  0.51100000000E-03 0. -1.
    9900012    2    1    2    0    0  0.90294792866E+01  0.81231332592E+01  0.41666611953E+02  0.47787270263E+02  0.19999996435E+02 0.  0.
         12    1    1    2    0    0 -0.90294792866E+01 -0.81231332592E+01 -0.41666611953E+02  0.43400729737E+02  0.00000000000E+00 0. -1.
         11    1    3    3    0    0 -0.17975747819E+01  0.82279388127E+01  0.10978525397E+02  0.13836844740E+02  0.51100000000E-03 0. -1.
        -11    1    3    3    0    0  0.58571211197E+01  0.26098611463E+00  0.27304620727E+02  0.27926981485E+02  0.51100000000E-03 0.  1.
         12    1    3    3    0    0  0.49699329488E+01 -0.36579166815E+00  0.33834658288E+01  0.60234440377E+01  0.00000000000E+00 0. -1.
</event>
<event>
 7    1  0.4876728E-009  0.4778727E+02  0.7816164E-02  0.1312668E+00
        -11   -1    0    0    0    0  0.00000000000E+00  0.00000000000E+00  0.45593999997E+02  0.45594000000E+02  0.51100000000E-03 0.  1.
         11   -1    0    0    0    0 -0.00000000000E+00 -0.00000000000E+00 -0.45593999997E+02  0.45594000000E+02  0.51100000000E-03 0. -1.
    9900012    2    1    2    0    0 -0.32876125674E+02 -0.15322132282E+02 -0.23833092965E+02  0.47787266166E+02  0.19999977759E+02 0.  0.
         12    1    1    2    0    0  0.32876125674E+02  0.15322132282E+02  0.23833092965E+02  0.43400733834E+02  0.00000000000E+00 0. -1.
         11    1    3    3    0    0 -0.14896120191E+02 -0.16124368566E+02 -0.13629379461E+02  0.25838917221E+02  0.51100000000E-03 0. -1.
        -11    1    3    3    0    0 -0.90917394309E+01  0.20458376757E+01 -0.14865726943E+01  0.94368997192E+01  0.51100000000E-03 0.  1.
         12    1    3    3    0    0 -0.88882660527E+01 -0.12436013916E+01 -0.87171408095E+01  0.12511449226E+02  0.00000000000E+00 0. -1.
</event>
<event>
 7    1  0.4876728E-009  0.4778727E+02  0.7816164E-02  0.1312668E+00
        -11   -1    0    0    0    0  0.00000000000E+00  0.00000000000E+00  0.45593999997E+02  0.45594000000E+02  0.51100000000E-03 0.  1.
         11   -1    0    0    0    0 -0.00000000000E+00 -0.00000000000E+00 -0.45593999997E+02  0.45594000000E+02  0.51100000000E-03 0. -1.
    9900012    2    1    2    0    0  0.20272373805E+02 -0.15786668098E+02  0.34977640629E+02  0.47787269899E+02  0.19999994777E+02 0.  0.
         12    1    1    2    0    0 -0.20272373805E+02  0.15786668098E+02 -0.34977640629E+02  0.43400730101E+02  0.00000000000E+00 0. -1.
         11    1    3    3    0    0  0.88692672055E+01 -0.74506818913E+01  0.96195692714E+01  0.15056980927E+02  0.51100000000E-03 0. -1.
        -11    1    3    3    0    0  0.67190172633E+01 -0.10674193620E+02  0.24315689329E+02  0.27392268074E+02  0.51100000000E-03 0.  1.
        -12    1    3    3    0    0  0.46840893358E+01  0.23382074135E+01  0.10423820294E+01  0.53380208982E+01  0.00000000000E+00 0.  1.
</event>
<event>
 7    1  0.4876728E-009  0.4778727E+02  0.7816164E-02  0.1312668E+00
        -11   -1    0    0    0    0  0.00000000000E+00  0.00000000000E+00  0.45593999997E+02  0.45594000000E+02  0.51100000000E-03 0.  1.
         11   -1    0    0    0    0 -0.00000000000E+00 -0.00000000000E+00 -0.45593999997E+02  0.45594000000E+02  0.51100000000E-03 0. -1.
    9900012    2    1    2    0    0  0.71623450334E+01  0.36288395233E+01  0.42651559138E+02  0.47787272361E+02  0.20000006004E+02 0.  0.
         12    1    1    2    0    0 -0.71623450334E+01 -0.36288395233E+01 -0.42651559138E+02  0.43400727639E+02  0.00000000000E+00 0. -1.
         11    1    3    3    0    0  0.60617847814E+01  0.57668936507E+00  0.73395888951E+01  0.95366330940E+01  0.51100000000E-03 0. -1.
        -11    1    3    3    0    0  0.31938970745E+01 -0.43837068084E+00  0.33730292049E+02  0.33884004328E+02  0.51100000000E-03 0.  1.
        -12    1    3    3    0    0 -0.20933368225E+01  0.34905208391E+01  0.15816781943E+01  0.43666349391E+01  0.00000000000E+00 0.  1.
</event>
<event>
 7    1  0.4876728E-009  0.4778727E+02  0.7816164E-02  0.1312668E+00
        -11   -1    0    0    0    0  0.00000000000E+00  0.00000000000E+00  0.45593999997E+02  0.45594000000E+02  0.51100000000E-03 0.  1.
         11   -1    0    0    0    0 -0.00000000000E+00 -0.00000000000E+00 -0.45593999997E+02  0.45594000000E+02  0.51100000000E-03 0. -1.
    9900012    2    1    2    0    0  0.21253884319E+02 -0.19331939396E+02  0.32529554935E+02  0.47787269318E+02  0.19999992128E+02 0.  0.
         12    1    1    2    0    0 -0.21253884319E+02  0.19331939396E+02 -0.32529554935E+02  0.43400730682E+02  0.00000000000E+00 0. -1.
         11    1    3    3    0    0 -0.21741828052E+01  0.60994228583E+00  0.18150277538E+01  0.28971410858E+01  0.51100000000E-03 0. -1.
        -11    1    3    3    0    0  0.18051494331E+02 -0.87108436544E+01  0.16239794383E+02  0.25796630916E+02  0.51100000000E-03 0.  1.
        -12    1    3    3    0    0  0.53765727929E+01 -0.11231038028E+02  0.14474732798E+02  0.19093497316E+02  0.00000000000E+00 0.  1.
</event>
<event>
 7    1  0.4876728E-009  0.4778727E+02  0.7816164E-02  0.1312668E+00
        -11   -1    0    0    0    0  0.00000000000E+00  0.00000000000E+00  0.45593999997E+02  0.45594000000E+02  0.51100000000E-03 0. -1.
         11   -1    0    0    0    0 -0.00000000000E+00 -0.00000000000E+00 -0.45593999997E+02  0.45594000000E+02  0.51100000000E-03 0.  1.
    9900012    2    1    2    0    0  0.16619346592E+02 -0.82426157925E+01 -0.39236207211E+02  0.47787270138E+02  0.19999995869E+02 0.  0.
         12    1    1    2    0    0 -0.16619346592E+02  0.82426157925E+01  0.39236207211E+02  0.43400729862E+02  0.00000000000E+00 0. -1.
         11    1    3    3    0    0 -0.26968475231E+01 -0.53887947640E+01 -0.70518898740E+01  0.92758420980E+01  0.51100000000E-03 0. -1.
        -11    1    3    3    0    0  0.12069615510E+02 -0.54814590516E+01 -0.17822854289E+02  0.22212072104E+02  0.51100000000E-03 0.  1.
         12    1    3    3    0    0  0.72465786045E+01  0.26276380231E+01 -0.14361463048E+02  0.16299355936E+02  0.00000000000E+00 0. -1.
</event>
<event>
 7    1  0.4876728E-009  0.4778727E+02  0.7816164E-02  0.1312668E+00
        -11   -1    0    0    0    0  0.00000000000E+00  0.00000000000E+00  0.45593999997E+02  0.45594000000E+02  0.51100000000E-03 0.  1.
         11   -1    0    0    0    0 -0.00000000000E+00 -0.00000000000E+00 -0.45593999997E+02  0.45594000000E+02  0.51100000000E-03 0. -1.
    9900012    2    1    2    0    0  0.15400271761E+02  0.78666281607E+01  0.39806675155E+02  0.47787267335E+02  0.19999983089E+02 0.  0.
         12    1    1    2    0    0 -0.15400271761E+02 -0.78666281607E+01 -0.39806675155E+02  0.43400732665E+02  0.00000000000E+00 0. -1.
         11    1    3    3    0    0  0.87696327765E+01  0.86305020588E+01  0.75254662989E+01  0.14423060289E+02  0.51100000000E-03 0. -1.
        -11    1    3    3    0    0  0.27023278112E+01  0.45392390680E+00  0.44157057229E+01  0.51968336326E+01  0.51100000000E-03 0.  1.
         12    1    3    3    0    0  0.39283111733E+01 -0.12177978049E+01  0.27865503133E+02  0.28167373414E+02  0.00000000000E+00 0. -1.
</event>
<event>
 7    1  0.4876728E-009  0.4778728E+02  0.7816164E-02  0.1312668E+00
        -11   -1    0    0    0    0  0.00000000000E+00  0.00000000000E+00  0.45593999997E+02  0.45594000000E+02  0.51100000000E-03 0. -1.
         11   -1    0    0    0    0 -0.00000000000E+00 -0.00000000000E+00 -0.45593999997E+02  0.45594000000E+02  0.51100000000E-03 0.  1.
    9900012    2    1    2    0    0 -0.33580431410E+02  0.13386552800E+02 -0.24016185573E+02  0.47787281814E+02  0.20000049104E+02 0.  0.
         12    1    1    2    0    0  0.33580431410E+02 -0.13386552800E+02  0.24016185573E+02  0.43400718186E+02  0.00000000000E+00 0. -1.
         11    1    3    3    0    0 -0.20996473409E+02 -0.12032547421E+01 -0.16407203737E+02  0.26673883338E+02  0.51100000000E-03 0. -1.
        -11    1    3    3    0    0 -0.42962943032E+01  0.65259047716E+01 -0.49468328237E+01  0.92475257812E+01  0.51100000000E-03 0.  1.
         12    1    3    3    0    0 -0.82876636978E+01  0.80639027707E+01 -0.26621490126E+01  0.11865872696E+02  0.00000000000E+00 0. -1.
</event>
<event>
 7    1  0.4876728E-009  0.4778727E+02  0.7816164E-02  0.1312668E+00
        -11   -1    0    0    0    0  0.00000000000E+00  0.00000000000E+00  0.45593999997E+02  0.45594000000E+02  0.51100000000E-03 0.  1.
         11   -1    0    0    0    0 -0.00000000000E+00 -0.00000000000E+00 -0.45593999997E+02  0.45594000000E+02  0.51100000000E-03 0. -1.
    9900012    2    1    2    0    0  0.55380216299E+01  0.41980849032E+02  0.95163955908E+01  0.47787272425E+02  0.20000006295E+02 0.  0.
         12    1    1    2    0    0 -0.55380216299E+01 -0.41980849032E+02 -0.95163955908E+01  0.43400727575E+02  0.00000000000E+00 0. -1.
         11    1    3    3    0    0  0.47000863372E+01  0.69774831207E+01 -0.40755080352E+01  0.93480398097E+01  0.51100000000E-03 0. -1.
        -11    1    3    3    0    0 -0.13722047994E+01  0.27220541656E+02  0.13340317470E+02  0.30344767333E+02  0.51100000000E-03 0.  1.
        -12    1    3    3    0    0  0.22101400921E+01  0.77828242553E+01  0.25158615605E+00  0.80944652825E+01  0.00000000000E+00 0.  1.
</event>
<event>
 7    1  0.4876728E-009  0.4778726E+02  0.7816164E-02  0.1312668E+00
        -11   -1    0    0    0    0  0.00000000000E+00  0.00000000000E+00  0.45593999997E+02  0.45594000000E+02  0.51100000000E-03 0.  1.
         11   -1    0    0    0    0 -0.00000000000E+00 -0.00000000000E+00 -0.45593999997E+02  0.45594000000E+02  0.51100000000E-03 0. -1.
    9900012    2    1    2    0    0 -0.10318973774E+02 -0.22216016359E+01  0.42097596758E+02  0.47787258228E+02  0.19999941564E+02 0.  0.
         12    1    1    2    0    0  0.10318973774E+02  0.22216016359E+01 -0.42097596758E+02  0.43400741772E+02  0.00000000000E+00 0. -1.
         11    1    3    3    0    0  0.38619749058E+01 -0.12460401675E+01  0.22860335518E+01  0.46576191271E+01  0.51100000000E-03 0. -1.
        -11    1    3    3    0    0 -0.76149118342E+01  0.35345323417E+01  0.23978091037E+02  0.25405287858E+02  0.51100000000E-03 0.  1.
        -12    1    3    3    0    0 -0.65660368460E+01 -0.45100938101E+01  0.15833472170E+02  0.17724351243E+02  0.00000000000E+00 0.  1.
</event>
<event>
 7    1  0.4876728E-009  0.4778727E+02  0.7816164E-02  0.1312668E+00
        -11   -1    0    0    0    0  0.00000000000E+00  0.00000000000E+00  0.45593999997E+02  0.45594000000E+02  0.51100000000E-03 0.  1.
         11   -1    0    0    0    0 -0.00000000000E+00 -0.00000000000E+00 -0.45593999997E+02  0.45594000000E+02  0.51100000000E-03 0. -1.
    9900012    2    1    2    0    0 -0.32578579991E+02 -0.31517078577E+01  0.28501335306E+02  0.47787271309E+02  0.20000001206E+02 0.  0.
         12    1    1    2    0    0  0.32578579991E+02  0.31517078577E+01 -0.28501335306E+02  0.43400728691E+02  0.00000000000E+00 0. -1.
         11    1    3    3    0    0 -0.22060863070E+01  0.20013856079E+01  0.10487815792E+02  0.10902597924E+02  0.51100000000E-03 0. -1.
        -11    1    3    3    0    0 -0.63655519931E+01 -0.51343991937E+01  0.44114641564E+01  0.92921108216E+01  0.51100000000E-03 0.  1.
         12    1    3    3    0    0 -0.24006941691E+02 -0.18694271902E-01  0.13602055358E+02  0.27592562563E+02  0.00000000000E+00 0. -1.
</event>
<event>
 7    1  0.4876728E-009  0.4778727E+02  0.7816164E-02  0.1312668E+00
        -11   -1    0    0    0    0  0.00000000000E+00  0.00000000000E+00  0.45593999997E+02  0.45594000000E+02  0.51100000000E-03 0.  1.
         11   -1    0    0    0    0 -0.00000000000E+00 -0.00000000000E+00 -0.45593999997E+02  0.45594000000E+02  0.51100000000E-03 0. -1.
    9900012    2    1    2    0    0 -0.79384576035E+01 -0.14190427740E+02  0.40239732562E+02  0.47787269301E+02  0.19999992049E+02 0.  0.
         12    1    1    2    0    0  0.79384576035E+01  0.14190427740E+02 -0.40239732562E+02  0.43400730699E+02  0.00000000000E+00 0. -1.
         11    1    3    3    0    0 -0.88875237558E-01 -0.12016950505E+02  0.14557612062E+02  0.18876945396E+02  0.51100000000E-03 0. -1.
        -11    1    3    3    0    0 -0.10400659023E+02 -0.19399578126E+01  0.22149269535E+02  0.24546431220E+02  0.51100000000E-03 0.  1.
        -12    1    3    3    0    0  0.25510766570E+01 -0.23351942237E+00  0.35328509644E+01  0.43638926851E+01  0.00000000000E+00 0.  1.
</event>
<event>
 7    1  0.4876728E-009  0.4778727E+02  0.7816164E-02  0.1312668E+00
        -11   -1    0    0    0    0  0.00000000000E+00  0.00000000000E+00  0.45593999997E+02  0.45594000000E+02  0.51100000000E-03 0.  1.
         11   -1    0    0    0    0 -0.00000000000E+00 -0.00000000000E+00 -0.45593999997E+02  0.45594000000E+02  0.51100000000E-03 0. -1.
    9900012    2    1    2    0    0 -0.16546805987E+02  0.37606353589E+02 -0.13985294980E+02  0.47787273113E+02  0.20000009430E+02 0.  0.
         12    1    1    2    0    0  0.16546805987E+02 -0.37606353589E+02  0.13985294980E+02  0.43400726887E+02  0.00000000000E+00 0. -1.
         11    1    3    3    0    0 -0.14670076642E+02  0.25047357318E+02 -0.30041016824E+01  0.29182287170E+02  0.51100000000E-03 0. -1.
        -11    1    3    3    0    0 -0.46836254002E+01  0.50877622177E+01 -0.62853841825E+01  0.93449304896E+01  0.51100000000E-03 0.  1.
         12    1    3    3    0    0  0.28068960547E+01  0.74712340538E+01 -0.46958091155E+01  0.92600554533E+01  0.00000000000E+00 0. -1.
</event>
<event>
 7    1  0.4876728E-009  0.4778727E+02  0.7816164E-02  0.1312668E+00
        -11   -1    0    0    0    0  0.00000000000E+00  0.00000000000E+00  0.45593999997E+02  0.45594000000E+02  0.51100000000E-03 0. -1.
         11   -1    0    0    0    0 -0.00000000000E+00 -0.00000000000E+00 -0.45593999997E+02  0.45594000000E+02  0.51100000000E-03 0.  1.
    9900012    2    1    2    0    0 -0.30178166999E+02 -0.32399042371E+01 -0.31022646711E+02  0.47787270146E+02  0.19999995904E+02 0.  0.
         12    1    1    2    0    0  0.30178166999E+02  0.32399042371E+01  0.31022646711E+02  0.43400729854E+02  0.00000000000E+00 0. -1.
         11    1    3    3    0    0 -0.14428942315E+02 -0.10124855438E+02 -0.19627048021E+02  0.26380448977E+02  0.51100000000E-03 0.  1.
        -11    1    3    3    0    0 -0.87561427075E+01  0.60017938568E+01 -0.44483084750E+01  0.11509952787E+02  0.51100000000E-03 0. -1.
        -12    1    3    3    0    0 -0.69930819770E+01  0.88315734381E+00 -0.69472902153E+01  0.98968683818E+01  0.00000000000E+00 0.  1.
</event>
<event>
 7    1  0.4876728E-009  0.4778727E+02  0.7816164E-02  0.1312668E+00
        -11   -1    0    0    0    0  0.00000000000E+00  0.00000000000E+00  0.45593999997E+02  0.45594000000E+02  0.51100000000E-03 0.  1.
         11   -1    0    0    0    0 -0.00000000000E+00 -0.00000000000E+00 -0.45593999997E+02  0.45594000000E+02  0.51100000000E-03 0. -1.
    9900012    2    1    2    0    0  0.30060695930E+02 -0.29521518223E+02 -0.10414304537E+02  0.47787271700E+02  0.20000002989E+02 0.  0.
         12    1    1    2    0    0 -0.30060695930E+02  0.29521518223E+02  0.10414304537E+02  0.43400728300E+02  0.00000000000E+00 0. -1.
         11    1    3    3    0    0  0.87061414942E+01 -0.12088801573E+01 -0.79570725425E+01  0.11856360937E+02  0.51100000000E-03 0. -1.
        -11    1    3    3    0    0  0.15722338445E+02 -0.23331018488E+02 -0.34563152186E+01  0.28345625148E+02  0.51100000000E-03 0.  1.
        -12    1    3    3    0    0  0.56322159906E+01 -0.49816195778E+01  0.99908322458E+00  0.75852856157E+01  0.00000000000E+00 0.  1.
</event>
<event>
 7    1  0.4876728E-009  0.4778726E+02  0.7816164E-02  0.1312668E+00
        -11   -1    0    0    0    0  0.00000000000E+00  0.00000000000E+00  0.45593999997E+02  0.45594000000E+02  0.51100000000E-03 0. -1.
         11   -1    0    0    0    0 -0.00000000000E+00 -0.00000000000E+00 -0.45593999997E+02  0.45594000000E+02  0.51100000000E-03 0.  1.
    9900012    2    1    2    0    0 -0.43275022834E+02 -0.29596679932E+01  0.14617389377E+01  0.47787263639E+02  0.19999966236E+02 0.  0.
         12    1    1    2    0    0  0.43275022834E+02  0.29596679932E+01 -0.14617389377E+01  0.43400736361E+02  0.00000000000E+00 0. -1.
         11    1    3    3    0    0 -0.10049316792E+01  0.34107681516E+01 -0.25017127322E+01  0.43476193393E+01  0.51100000000E-03 0. -1.
        -11    1    3    3    0    0 -0.32425444715E+02 -0.24800055133E+01  0.45552225673E+01  0.32837630018E+02  0.51100000000E-03 0.  1.
         12    1    3    3    0    0 -0.98446464405E+01 -0.38904306315E+01 -0.59177089741E+00  0.10602014282E+02  0.00000000000E+00 0. -1.
</event>
<event>
 7    1  0.4876728E-009  0.4778727E+02  0.7816164E-02  0.1312668E+00
        -11   -1    0    0    0    0  0.00000000000E+00  0.00000000000E+00  0.45593999997E+02  0.45594000000E+02  0.51100000000E-03 0.  1.
         11   -1    0    0    0    0 -0.00000000000E+00 -0.00000000000E+00 -0.45593999997E+02  0.45594000000E+02  0.51100000000E-03 0. -1.
    9900012    2    1    2    0    0  0.91023762995E+01 -0.37919688202E+01  0.42265718815E+02  0.47787271103E+02  0.20000000266E+02 0.  0.
         12    1    1    2    0    0 -0.91023762995E+01  0.37919688202E+01 -0.42265718815E+02  0.43400728897E+02  0.00000000000E+00 0. -1.
         11    1    3    3    0    0  0.72389288768E+01 -0.81317609643E+01  0.16036753729E+02  0.19383113736E+02  0.51100000000E-03 0. -1.
        -11    1    3    3    0    0  0.27584414268E+01  0.35715698973E+01  0.26740433503E+02  0.27118552595E+02  0.51100000000E-03 0.  1.
        -12    1    3    3    0    0 -0.89499400410E+00  0.76822224689E+00 -0.51146841712E+00  0.12856047720E+01  0.00000000000E+00 0.  1.
</event>
<event>
 7    1  0.4876728E-009  0.4778727E+02  0.7816164E-02  0.1312668E+00
        -11   -1    0    0    0    0  0.00000000000E+00  0.00000000000E+00  0.45593999997E+02  0.45594000000E+02  0.51100000000E-03 0.  1.
         11   -1    0    0    0    0 -0.00000000000E+00 -0.00000000000E+00 -0.45593999997E+02  0.45594000000E+02  0.51100000000E-03 0. -1.
    9900012    2    1    2    0    0 -0.54782462701E+01 -0.16379813991E+02  0.39815998504E+02  0.47787271603E+02  0.20000002545E+02 0.  0.
         12    1    1    2    0    0  0.54782462701E+01  0.16379813991E+02 -0.39815998504E+02  0.43400728397E+02  0.00000000000E+00 0. -1.
         11    1    3    3    0    0 -0.18034585478E+01  0.21746667334E+01  0.15547073103E+01  0.32247097880E+01  0.51100000000E-03 0. -1.
        -11    1    3    3    0    0 -0.53793181116E+01 -0.19417175267E+02  0.37367450034E+02  0.42453387156E+02  0.51100000000E-03 0.  1.
        -12    1    3    3    0    0  0.17045303893E+01  0.86269454323E+00  0.89384115941E+00  0.21091746588E+01  0.00000000000E+00 0.  1.
</event>
<event>
 7    1  0.4876728E-009  0.4778727E+02  0.7816164E-02  0.1312668E+00
        -11   -1    0    0    0    0  0.00000000000E+00  0.00000000000E+00  0.45593999997E+02  0.45594000000E+02  0.51100000000E-03 0.  1.
         11   -1    0    0    0    0 -0.00000000000E+00 -0.00000000000E+00 -0.45593999997E+02  0.45594000000E+02  0.51100000000E-03 0. -1.
    9900012    2    1    2    0    0 -0.88449556587E+01 -0.11273068835E+02  0.40967158179E+02  0.47787269927E+02  0.19999994906E+02 0.  0.
         12    1    1    2    0    0  0.88449556587E+01  0.11273068835E+02 -0.40967158179E+02  0.43400730073E+02  0.00000000000E+00 0. -1.
         11    1    3    3    0    0 -0.55748271029E+01 -0.15067382651E+02  0.34292197027E+02  0.37868977995E+02  0.51100000000E-03 0. -1.
        -11    1    3    3    0    0 -0.36082113371E+01  0.45553374410E+01  0.69331133717E+01  0.90464550814E+01  0.51100000000E-03 0.  1.
         12    1    3    3    0    0  0.33808278133E+00 -0.76102362524E+00 -0.25815221980E+00  0.87183685045E+00  0.00000000000E+00 0. -1.
</event>
<event>
 7    1  0.6279094E-009  0.4778728E+02  0.7816164E-02  0.1312668E+00
        -11   -1    0    0    0    0  0.00000000000E+00  0.00000000000E+00  0.45593999997E+02  0.45594000000E+02  0.51100000000E-03 0.  1.
         11   -1    0    0    0    0 -0.00000000000E+00 -0.00000000000E+00 -0.45593999997E+02  0.45594000000E+02  0.51100000000E-03 0. -1.
    9900012    2    1    2    0    0  0.57578008248E+01  0.38709293113E+02  0.18763291403E+02  0.47787277104E+02  0.20000027627E+02 0.  0.
         12    1    1    2    0    0 -0.57578008248E+01 -0.38709293113E+02 -0.18763291403E+02  0.43400722896E+02  0.00000000000E+00 0. -1.
         11    1    3    3    0    0 -0.26570294720E+01  0.21931203264E+02  0.47706928906E+01  0.22600818418E+02  0.51100000000E-03 0. -1.
        -11    1    3    3    0    0  0.47128715602E+00  0.11191641985E+02  0.68311238331E+01  0.13120183496E+02  0.51100000000E-03 0.  1.
         12    1    3    3    0    0  0.79435431407E+01  0.55864478640E+01  0.71614746793E+01  0.12066275189E+02  0.00000000000E+00 0. -1.
</event>
<event>
 7    1  0.4876728E-009  0.4778727E+02  0.7816164E-02  0.1312668E+00
        -11   -1    0    0    0    0  0.00000000000E+00  0.00000000000E+00  0.45593999997E+02  0.45594000000E+02  0.51100000000E-03 0. -1.
         11   -1    0    0    0    0 -0.00000000000E+00 -0.00000000000E+00 -0.45593999997E+02  0.45594000000E+02  0.51100000000E-03 0.  1.
    9900012    2    1    2    0    0 -0.20490591510E+02  0.33688928203E+02 -0.18133254132E+02  0.47787272710E+02  0.20000007595E+02 0.  0.
         12    1    1    2    0    0  0.20490591510E+02 -0.33688928203E+02  0.18133254132E+02  0.43400727290E+02  0.00000000000E+00 0. -1.
         11    1    3    3    0    0 -0.12436131738E+02  0.11578740124E+02 -0.98815050642E+01  0.19656264601E+02  0.51100000000E-03 0.  1.
        -11    1    3    3    0    0  0.35610610506E+01  0.40626101284E+01 -0.21858717668E+01  0.58278634596E+01  0.51100000000E-03 0. -1.
         12    1    3    3    0    0 -0.11615520823E+02  0.18047577950E+02 -0.60658773007E+01  0.22303144650E+02  0.00000000000E+00 0. -1.
</event>
<event>
 7    1  0.4876728E-009  0.4778727E+02  0.7816164E-02  0.1312668E+00
        -11   -1    0    0    0    0  0.00000000000E+00  0.00000000000E+00  0.45593999997E+02  0.45594000000E+02  0.51100000000E-03 0.  1.
         11   -1    0    0    0    0 -0.00000000000E+00 -0.00000000000E+00 -0.45593999997E+02  0.45594000000E+02  0.51100000000E-03 0. -1.
    9900012    2    1    2    0    0 -0.25105788211E+02 -0.81553450396E+01  0.34450157990E+02  0.47787266827E+02  0.19999980772E+02 0.  0.
         12    1    1    2    0    0  0.25105788211E+02  0.81553450396E+01 -0.34450157990E+02  0.43400733173E+02  0.00000000000E+00 0. -1.
         11    1    3    3    0    0 -0.14067754593E+00  0.30506967591E+01  0.36499960620E+01  0.47590978558E+01  0.51100000000E-03 0. -1.
        -11    1    3    3    0    0 -0.12893216521E+02 -0.12195759937E+02  0.15920440893E+02  0.23841812666E+02  0.51100000000E-03 0.  1.
        -12    1    3    3    0    0 -0.12071894144E+02  0.98971813791E+00  0.14879721034E+02  0.19186356305E+02  0.00000000000E+00 0.  1.
</event>
<event>
 7    1  0.4876728E-009  0.4778728E+02  0.7816164E-02  0.1312668E+00
        -11   -1    0    0    0    0  0.00000000000E+00  0.00000000000E+00  0.45593999997E+02  0.45594000000E+02  0.51100000000E-03 0.  1.
         11   -1    0    0    0    0 -0.00000000000E+00 -0.00000000000E+00 -0.45593999997E+02  0.45594000000E+02  0.51100000000E-03 0. -1.
    9900012    2    1    2    0    0  0.18518580910E+02 -0.21215070042E+02  0.33024317366E+02  0.47787279116E+02  0.20000036800E+02 0.  0.
         12    1    1    2    0    0 -0.18518580910E+02  0.21215070042E+02 -0.33024317366E+02  0.43400720884E+02  0.00000000000E+00 0. -1.
         11    1    3    3    0    0 -0.33680689333E+01 -0.71491754815E+01  0.10910168342E+02  0.13471687790E+02  0.51100000000E-03 0. -1.
        -11    1    3    3    0    0  0.85133458790E+00 -0.12609846592E+01  0.20359086402E+01  0.25416091642E+01  0.51100000000E-03 0.  1.
         12    1    3    3    0    0  0.21035315255E+02 -0.12804909902E+02  0.20078240383E+02  0.31773982161E+02  0.00000000000E+00 0. -1.
</event>
<event>
 7    1  0.4876728E-009  0.4778727E+02  0.7816164E-02  0.1312668E+00
        -11   -1    0    0    0    0  0.00000000000E+00  0.00000000000E+00  0.45593999997E+02  0.45594000000E+02  0.51100000000E-03 0. -1.
         11   -1    0    0    0    0 -0.00000000000E+00 -0.00000000000E+00 -0.45593999997E+02  0.45594000000E+02  0.51100000000E-03 0.  1.
    9900012    2    1    2    0    0  0.73486652026E+01 -0.33429747470E+02 -0.26684687983E+02  0.47787268798E+02  0.19999989756E+02 0.  0.
         12    1    1    2    0    0 -0.73486652026E+01  0.33429747470E+02  0.26684687983E+02  0.43400731202E+02  0.00000000000E+00 0. -1.
         11    1    3    3    0    0  0.14354684328E+01 -0.22178633064E+01  0.12994279707E+01  0.29441468339E+01  0.51100000000E-03 0. -1.
        -11    1    3    3    0    0 -0.44116513821E+00 -0.27191538908E+02 -0.24298564907E+02  0.36469092005E+02  0.51100000000E-03 0.  1.
        -12    1    3    3    0    0  0.63543619080E+01 -0.40203452553E+01 -0.36855510465E+01  0.83740299585E+01  0.00000000000E+00 0.  1.
</event>
<event>
 7    1  0.4876728E-009  0.4778728E+02  0.7816164E-02  0.1312668E+00
        -11   -1    0    0    0    0  0.00000000000E+00  0.00000000000E+00  0.45593999997E+02  0.45594000000E+02  0.51100000000E-03 0. -1.
         11   -1    0    0    0    0 -0.00000000000E+00 -0.00000000000E+00 -0.45593999997E+02  0.45594000000E+02  0.51100000000E-03 0.  1.
    9900012    2    1    2    0    0  0.43540441320E+00 -0.43393321067E+02  0.67279205871E+00  0.47787279506E+02  0.20000038580E+02 0.  0.
         12    1    1    2    0    0 -0.43540441320E+00  0.43393321067E+02 -0.67279205871E+00  0.43400720494E+02  0.00000000000E+00 0. -1.
         11    1    3    3    0    0  0.81880177485E+01 -0.17466328796E+02 -0.87830176759E+00  0.19310300115E+02  0.51100000000E-03 0. -1.
        -11    1    3    3    0    0 -0.89598796029E+01 -0.15235432472E+02  0.88903966102E+00  0.17697125102E+02  0.51100000000E-03 0.  1.
        -12    1    3    3    0    0  0.12072662676E+01 -0.10691559799E+02  0.66205416528E+00  0.10779854289E+02  0.00000000000E+00 0.  1.
</event>
<event>
 7    1  0.4876728E-009  0.4778727E+02  0.7816164E-02  0.1312668E+00
        -11   -1    0    0    0    0  0.00000000000E+00  0.00000000000E+00  0.45593999997E+02  0.45594000000E+02  0.51100000000E-03 0. -1.
         11   -1    0    0    0    0 -0.00000000000E+00 -0.00000000000E+00 -0.45593999997E+02  0.45594000000E+02  0.51100000000E-03 0.  1.
    9900012    2    1    2    0    0  0.40489110275E+02 -0.52373327733E+01 -0.14725011314E+02  0.47787266554E+02  0.19999979528E+02 0.  0.
         12    1    1    2    0    0 -0.40489110275E+02  0.52373327733E+01  0.14725011314E+02  0.43400733446E+02  0.00000000000E+00 0. -1.
         11    1    3    3    0    0  0.17245925909E+02 -0.39894788630E+00  0.31553448818E+01  0.17536742043E+02  0.51100000000E-03 0. -1.
        -11    1    3    3    0    0  0.94306403021E+01 -0.41204471997E+01 -0.54060055364E+01  0.11624971301E+02  0.51100000000E-03 0.  1.
         12    1    3    3    0    0  0.13812544063E+02 -0.71793768734E+00 -0.12474350660E+02  0.18625553210E+02  0.00000000000E+00 0. -1.
</event>
<event>
 7    1  0.4876728E-009  0.4778727E+02  0.7816164E-02  0.1312668E+00
        -11   -1    0    0    0    0  0.00000000000E+00  0.00000000000E+00  0.45593999997E+02  0.45594000000E+02  0.51100000000E-03 0.  1.
         11   -1    0    0    0    0 -0.00000000000E+00 -0.00000000000E+00 -0.45593999997E+02  0.45594000000E+02  0.51100000000E-03 0. -1.
    9900012    2    1    2    0    0  0.10365903801E+02  0.74173227528E+01  0.41486797849E+02  0.47787273806E+02  0.20000012591E+02 0.  0.
         12    1    1    2    0    0 -0.10365903801E+02 -0.74173227528E+01 -0.41486797849E+02  0.43400726194E+02  0.00000000000E+00 0. -1.
         11    1    3    3    0    0  0.46611762413E+01  0.10459364229E+02  0.18286179613E+02  0.21575662890E+02  0.51100000000E-03 0.  1.
        -11    1    3    3    0    0  0.75433333462E+01 -0.38546157310E+01  0.11194639802E+02  0.14038514913E+02  0.51100000000E-03 0. -1.
         12    1    3    3    0    0 -0.18386057863E+01  0.81257425463E+00  0.12005978433E+02  0.12173096003E+02  0.00000000000E+00 0. -1.
</event>
<event>
 7    1  0.4876728E-009  0.4778726E+02  0.7816164E-02  0.1312668E+00
        -11   -1    0    0    0    0  0.00000000000E+00  0.00000000000E+00  0.45593999997E+02  0.45594000000E+02  0.51100000000E-03 0. -1.
         11   -1    0    0    0    0 -0.00000000000E+00 -0.00000000000E+00 -0.45593999997E+02  0.45594000000E+02  0.51100000000E-03 0.  1.
    9900012    2    1    2    0    0 -0.34296619842E+02  0.15090565920E+02 -0.21900705557E+02  0.47787260187E+02  0.19999950497E+02 0.  0.
         12    1    1    2    0    0  0.34296619842E+02 -0.15090565920E+02  0.21900705557E+02  0.43400739813E+02  0.00000000000E+00 0. -1.
         11    1    3    3    0    0 -0.36156035667E+01 -0.39923711391E+00 -0.60709019520E+00  0.36878907510E+01  0.51100000000E-03 0. -1.
        -11    1    3    3    0    0 -0.18677979266E+02  0.94603039466E+01 -0.26257239069E+01  0.21101153677E+02  0.51100000000E-03 0.  1.
        -12    1    3    3    0    0 -0.12003037010E+02  0.60294990876E+01 -0.18667891455E+02  0.22998215759E+02  0.00000000000E+00 0.  1.
</event>
<event>
 7    1  0.4876728E-009  0.4778728E+02  0.7816164E-02  0.1312668E+00
        -11   -1    0    0    0    0  0.00000000000E+00  0.00000000000E+00  0.45593999997E+02  0.45594000000E+02  0.51100000000E-03 0. -1.
         11   -1    0    0    0    0 -0.00000000000E+00 -0.00000000000E+00 -0.45593999997E+02  0.45594000000E+02  0.51100000000E-03 0.  1.
    9900012    2    1    2    0    0  0.16728006481E+02 -0.39820264129E+02  0.42594871228E+01  0.47787275736E+02  0.20000021391E+02 0.  0.
         12    1    1    2    0    0 -0.16728006481E+02  0.39820264129E+02 -0.42594871228E+01  0.43400724264E+02  0.00000000000E+00 0. -1.
         11    1    3    3    0    0  0.15958008217E+02 -0.20088830938E+02 -0.13903149783E+01  0.25693425826E+02  0.51100000000E-03 0.  1.
        -11    1    3    3    0    0  0.47776045390E-02 -0.19776313195E+02  0.38636937474E+01  0.20150203871E+02  0.51100000000E-03 0. -1.
         12    1    3    3    0    0  0.76522065959E+00  0.44880004316E-01  0.17861083538E+01  0.19436460388E+01  0.00000000000E+00 0. -1.
</event>
<event>
 7    1  0.4876728E-009  0.4778727E+02  0.7816164E-02  0.1312668E+00
        -11   -1    0    0    0    0  0.00000000000E+00  0.00000000000E+00  0.45593999997E+02  0.45594000000E+02  0.51100000000E-03 0. -1.
         11   -1    0    0    0    0 -0.00000000000E+00 -0.00000000000E+00 -0.45593999997E+02  0.45594000000E+02  0.51100000000E-03 0.  1.
    9900012    2    1    2    0    0 -0.26558057135E+02 -0.33972137834E+02 -0.49180227070E+01  0.47787268495E+02  0.19999988378E+02 0.  0.
         12    1    1    2    0    0  0.26558057135E+02  0.33972137834E+02  0.49180227070E+01  0.43400731505E+02  0.00000000000E+00 0. -1.
         11    1    3    3    0    0 -0.62310818894E+01 -0.19357233259E+00 -0.51819226585E+01  0.81065513297E+01  0.51100000000E-03 0. -1.
        -11    1    3    3    0    0 -0.13630299232E+02 -0.18359889901E+02 -0.10189063106E+00  0.22866591270E+02  0.51100000000E-03 0.  1.
         12    1    3    3    0    0 -0.66966760138E+01 -0.15418675600E+02  0.36579058259E+00  0.16814125896E+02  0.00000000000E+00 0. -1.
</event>
<event>
 7    1  0.4876728E-009  0.4778728E+02  0.7816164E-02  0.1312668E+00
        -11   -1    0    0    0    0  0.00000000000E+00  0.00000000000E+00  0.45593999997E+02  0.45594000000E+02  0.51100000000E-03 0.  1.
         11   -1    0    0    0    0 -0.00000000000E+00 -0.00000000000E+00 -0.45593999997E+02  0.45594000000E+02  0.51100000000E-03 0. -1.
    9900012    2    1    2    0    0  0.23140162755E+02 -0.67206449627E+01  0.36096934937E+02  0.47787275203E+02  0.20000018960E+02 0.  0.
         12    1    1    2    0    0 -0.23140162755E+02  0.67206449627E+01 -0.36096934937E+02  0.43400724797E+02  0.00000000000E+00 0. -1.
         11    1    3    3    0    0  0.47833599918E+01  0.54894094273E+01  0.69088634405E+01  0.10037257742E+02  0.51100000000E-03 0. -1.
        -11    1    3    3    0    0  0.13542808966E+02 -0.13322900564E+02  0.22996077324E+02  0.29828290710E+02  0.51100000000E-03 0.  1.
         12    1    3    3    0    0  0.48139937972E+01  0.11128461741E+01  0.61919941732E+01  0.79217267516E+01  0.00000000000E+00 0. -1.
</event>
<event>
 7    1  0.4876728E-009  0.4778726E+02  0.7816164E-02  0.1312668E+00
        -11   -1    0    0    0    0  0.00000000000E+00  0.00000000000E+00  0.45593999997E+02  0.45594000000E+02  0.51100000000E-03 0. -1.
         11   -1    0    0    0    0 -0.00000000000E+00 -0.00000000000E+00 -0.45593999997E+02  0.45594000000E+02  0.51100000000E-03 0.  1.
    9900012    2    1    2    0    0  0.16648576284E+02  0.11267924999E+02 -0.38464044619E+02  0.47787263203E+02  0.19999964248E+02 0.  0.
         12    1    1    2    0    0 -0.16648576284E+02 -0.11267924999E+02  0.38464044619E+02  0.43400736797E+02  0.00000000000E+00 0. -1.
         11    1    3    3    0    0  0.81780399319E+01 -0.20252828850E+01 -0.47078077754E+01  0.96511948588E+01  0.51100000000E-03 0. -1.
        -11    1    3    3    0    0  0.59256886486E+01  0.71031927205E+01 -0.27348057529E+02  0.28870146928E+02  0.51100000000E-03 0.  1.
         12    1    3    3    0    0  0.25448477040E+01  0.61900151639E+01 -0.64081793145E+01  0.92659214162E+01  0.00000000000E+00 0. -1.
</event>
<event>
 7    1  0.4876728E-009  0.4778727E+02  0.7816164E-02  0.1312668E+00
        -11   -1    0    0    0    0  0.00000000000E+00  0.00000000000E+00  0.45593999997E+02  0.45594000000E+02  0.51100000000E-03 0. -1.
         11   -1    0    0    0    0 -0.00000000000E+00 -0.00000000000E+00 -0.45593999997E+02  0.45594000000E+02  0.51100000000E-03 0.  1.
    9900012    2    1    2    0    0  0.24331265382E+02  0.31976640969E+02 -0.16404495897E+02  0.47787268113E+02  0.19999986632E+02 0.  0.
         12    1    1    2    0    0 -0.24331265382E+02 -0.31976640969E+02  0.16404495897E+02  0.43400731887E+02  0.00000000000E+00 0. -1.
         11    1    3    3    0    0 -0.99604531324E+00  0.53627660233E+01 -0.59850726287E+01  0.80976824041E+01  0.51100000000E-03 0. -1.
        -11    1    3    3    0    0  0.20945759284E+02  0.14808113910E+02 -0.79673838574E+01  0.26860459329E+02  0.51100000000E-03 0.  1.
        -12    1    3    3    0    0  0.43815514111E+01  0.11805761035E+02 -0.24520394108E+01  0.12829126379E+02  0.00000000000E+00 0.  1.
</event>
<event>
 7    1  0.4876728E-009  0.4778725E+02  0.7816164E-02  0.1312668E+00
        -11   -1    0    0    0    0  0.00000000000E+00  0.00000000000E+00  0.45593999997E+02  0.45594000000E+02  0.51100000000E-03 0.  1.
         11   -1    0    0    0    0 -0.00000000000E+00 -0.00000000000E+00 -0.45593999997E+02  0.45594000000E+02  0.51100000000E-03 0. -1.
    9900012    2    1    2    0    0  0.40436876715E+02  0.15042281924E+02  0.47131427406E+01  0.47787251637E+02  0.19999911515E+02 0.  0.
         12    1    1    2    0    0 -0.40436876715E+02 -0.15042281924E+02 -0.47131427406E+01  0.43400748363E+02  0.00000000000E+00 0. -1.
         11    1    3    3    0    0  0.93181161904E+00  0.48940556645E+01  0.27382281944E+01  0.56848876547E+01  0.51100000000E-03 0. -1.
        -11    1    3    3    0    0  0.38526234995E+02  0.99204754572E+01 -0.11523470550E+00  0.39783160954E+02  0.51100000000E-03 0.  1.
        -12    1    3    3    0    0  0.97883010111E+00  0.22775080262E+00  0.20901492517E+01  0.23192030289E+01  0.00000000000E+00 0.  1.
</event>
<event>
 7    1  0.4876728E-009  0.4778728E+02  0.7816164E-02  0.1312668E+00
        -11   -1    0    0    0    0  0.00000000000E+00  0.00000000000E+00  0.45593999997E+02  0.45594000000E+02  0.51100000000E-03 0. -1.
         11   -1    0    0    0    0 -0.00000000000E+00 -0.00000000000E+00 -0.45593999997E+02  0.45594000000E+02  0.51100000000E-03 0.  1.
    9900012    2    1    2    0    0  0.11895855732E+02  0.41122030436E+02 -0.71477105286E+01  0.47787279538E+02  0.20000038727E+02 0.  0.
         12    1    1    2    0    0 -0.11895855732E+02 -0.41122030436E+02  0.71477105286E+01  0.43400720462E+02  0.00000000000E+00 0. -1.
         11    1    3    3    0    0 -0.49273044328E-01  0.19842616331E+02  0.15750861699E+01  0.19905093503E+02  0.51100000000E-03 0. -1.
        -11    1    3    3    0    0 -0.15083758175E+00  0.86301617516E+01 -0.50461064870E+01  0.99982815910E+01  0.51100000000E-03 0.  1.
         12    1    3    3    0    0  0.12095966358E+02  0.12649252354E+02 -0.36766902116E+01  0.17883904444E+02  0.00000000000E+00 0. -1.
</event>
<event>
 7    1  0.4876728E-009  0.4778727E+02  0.7816164E-02  0.1312668E+00
        -11   -1    0    0    0    0  0.00000000000E+00  0.00000000000E+00  0.45593999997E+02  0.45594000000E+02  0.51100000000E-03 0. -1.
         11   -1    0    0    0    0 -0.00000000000E+00 -0.00000000000E+00 -0.45593999997E+02  0.45594000000E+02  0.51100000000E-03 0.  1.
    9900012    2    1    2    0    0 -0.43049196392E+02 -0.54301483484E+01 -0.95053113535E+00  0.47787270391E+02  0.19999997022E+02 0.  0.
         12    1    1    2    0    0  0.43049196392E+02  0.54301483484E+01  0.95053113535E+00  0.43400729609E+02  0.00000000000E+00 0. -1.
         11    1    3    3    0    0 -0.18170210410E+01 -0.79335906501E-01  0.35074107191E+01  0.39509226597E+01  0.51100000000E-03 0. -1.
        -11    1    3    3    0    0 -0.34893102153E+02 -0.44310404046E+01  0.13367827592E+01  0.35198717098E+02  0.51100000000E-03 0.  1.
        -12    1    3    3    0    0 -0.63390731985E+01 -0.91977203728E+00 -0.57947246137E+01  0.86376306338E+01  0.00000000000E+00 0.  1.
</event>
<event>
 7    1  0.4876728E-009  0.4778727E+02  0.7816164E-02  0.1312668E+00
        -11   -1    0    0    0    0  0.00000000000E+00  0.00000000000E+00  0.45593999997E+02  0.45594000000E+02  0.51100000000E-03 0.  1.
         11   -1    0    0    0    0 -0.00000000000E+00 -0.00000000000E+00 -0.45593999997E+02  0.45594000000E+02  0.51100000000E-03 0. -1.
    9900012    2    1    2    0    0  0.23480391722E+02 -0.38480110736E+01  0.36297204485E+02  0.47787273761E+02  0.20000012385E+02 0.  0.
         12    1    1    2    0    0 -0.23480391722E+02  0.38480110736E+01 -0.36297204485E+02  0.43400726239E+02  0.00000000000E+00 0. -1.
         11    1    3    3    0    0  0.65753505471E+01 -0.61719184264E+00  0.21435163258E+02  0.22429498094E+02  0.51100000000E-03 0. -1.
        -11    1    3    3    0    0  0.16590941150E+02 -0.60832872833E+01  0.12980995745E+02  0.21926512791E+02  0.51100000000E-03 0.  1.
         12    1    3    3    0    0  0.31410002553E+00  0.28524680524E+01  0.18810454824E+01  0.34312628758E+01  0.00000000000E+00 0. -1.
</event>
<event>
 7    1  0.4876728E-009  0.4778727E+02  0.7816164E-02  0.1312668E+00
        -11   -1    0    0    0    0  0.00000000000E+00  0.00000000000E+00  0.45593999997E+02  0.45594000000E+02  0.51100000000E-03 0. -1.
         11   -1    0    0    0    0 -0.00000000000E+00 -0.00000000000E+00 -0.45593999997E+02  0.45594000000E+02  0.51100000000E-03 0.  1.
    9900012    2    1    2    0    0 -0.29254167419E+02  0.27526456694E+02 -0.16435058217E+02  0.47787271112E+02  0.20000000306E+02 0.  0.
         12    1    1    2    0    0  0.29254167419E+02 -0.27526456694E+02  0.16435058217E+02  0.43400728888E+02  0.00000000000E+00 0. -1.
         11    1    3    3    0    0  0.65648195048E+00  0.44249785147E+01  0.28364559184E+01  0.52968751019E+01  0.51100000000E-03 0. -1.
        -11    1    3    3    0    0 -0.20698838206E+02  0.14583356798E+02 -0.12683782236E+02  0.28319507952E+02  0.51100000000E-03 0.  1.
         12    1    3    3    0    0 -0.92118111632E+01  0.85181213814E+01 -0.65877318989E+01  0.14170888058E+02  0.00000000000E+00 0. -1.
</event>
<event>
 7    1  0.4876728E-009  0.4778727E+02  0.7816164E-02  0.1312668E+00
        -11   -1    0    0    0    0  0.00000000000E+00  0.00000000000E+00  0.45593999997E+02  0.45594000000E+02  0.51100000000E-03 0.  1.
         11   -1    0    0    0    0 -0.00000000000E+00 -0.00000000000E+00 -0.45593999997E+02  0.45594000000E+02  0.51100000000E-03 0. -1.
    9900012    2    1    2    0    0  0.43910038088E+01  0.28133852576E+02  0.32754068098E+02  0.47787267838E+02  0.19999985379E+02 0.  0.
         12    1    1    2    0    0 -0.43910038088E+01 -0.28133852576E+02 -0.32754068098E+02  0.43400732162E+02  0.00000000000E+00 0. -1.
         11    1    3    3    0    0  0.22319314019E+01 -0.14766479135E+01  0.45954557943E+00  0.27153617151E+01  0.51100000000E-03 0. -1.
        -11    1    3    3    0    0  0.11519967284E+01  0.29722791602E+02  0.32479434269E+02  0.44041856089E+02  0.51100000000E-03 0.  1.
        -12    1    3    3    0    0  0.10070756785E+01 -0.11229111198E+00 -0.18491175025E+00  0.10300500334E+01  0.00000000000E+00 0.  1.
</event>
<event>
 7    1  0.4876728E-009  0.4778727E+02  0.7816164E-02  0.1312668E+00
        -11   -1    0    0    0    0  0.00000000000E+00  0.00000000000E+00  0.45593999997E+02  0.45594000000E+02  0.51100000000E-03 0.  1.
         11   -1    0    0    0    0 -0.00000000000E+00 -0.00000000000E+00 -0.45593999997E+02  0.45594000000E+02  0.51100000000E-03 0. -1.
    9900012    2    1    2    0    0  0.38816360433E+01  0.85906825540E+01  0.42364565593E+02  0.47787270248E+02  0.19999996368E+02 0.  0.
         12    1    1    2    0    0 -0.38816360433E+01 -0.85906825540E+01 -0.42364565593E+02  0.43400729752E+02  0.00000000000E+00 0. -1.
         11    1    3    3    0    0  0.56421022611E+01 -0.44883170330E+01  0.14576408351E+02  0.16261918349E+02  0.51100000000E-03 0. -1.
        -11    1    3    3    0    0 -0.17693534981E+01  0.68295662148E+01  0.75012816339E+01  0.10297709109E+02  0.51100000000E-03 0.  1.
        -12    1    3    3    0    0  0.88872804111E-02  0.62494333723E+01  0.20286875608E+02  0.21227642790E+02  0.00000000000E+00 0.  1.
</event>
<event>
 7    1  0.4876728E-009  0.4778727E+02  0.7816164E-02  0.1312668E+00
        -11   -1    0    0    0    0  0.00000000000E+00  0.00000000000E+00  0.45593999997E+02  0.45594000000E+02  0.51100000000E-03 0.  1.
         11   -1    0    0    0    0 -0.00000000000E+00 -0.00000000000E+00 -0.45593999997E+02  0.45594000000E+02  0.51100000000E-03 0. -1.
    9900012    2    1    2    0    0  0.14201950775E+02 -0.33548870994E+02  0.23588156009E+02  0.47787271265E+02  0.20000001006E+02 0.  0.
         12    1    1    2    0    0 -0.14201950775E+02  0.33548870994E+02 -0.23588156009E+02  0.43400728735E+02  0.00000000000E+00 0. -1.
         11    1    3    3    0    0 -0.27374029624E+01 -0.81157658586E+01  0.14882524413E+01  0.86933265233E+01  0.51100000000E-03 0. -1.
        -11    1    3    3    0    0  0.18332258629E+02 -0.23521509376E+02  0.21070675721E+02  0.36514469534E+02  0.51100000000E-03 0.  1.
        -12    1    3    3    0    0 -0.13929048916E+01 -0.19115957598E+01  0.10292278469E+01  0.25794752076E+01  0.00000000000E+00 0.  1.
</event>
<event>
 7    1  0.4876728E-009  0.4778728E+02  0.7816164E-02  0.1312668E+00
        -11   -1    0    0    0    0  0.00000000000E+00  0.00000000000E+00  0.45593999997E+02  0.45594000000E+02  0.51100000000E-03 0. -1.
         11   -1    0    0    0    0 -0.00000000000E+00 -0.00000000000E+00 -0.45593999997E+02  0.45594000000E+02  0.51100000000E-03 0.  1.
    9900012    2    1    2    0    0  0.19160899886E+02  0.36213736772E+02 -0.14319497075E+02  0.47787276366E+02  0.20000024264E+02 0.  0.
         12    1    1    2    0    0 -0.19160899886E+02 -0.36213736772E+02  0.14319497075E+02  0.43400723634E+02  0.00000000000E+00 0. -1.
         11    1    3    3    0    0  0.69596207298E+01  0.17753805595E+02 -0.13820201237E+02  0.23550624117E+02  0.51100000000E-03 0.  1.
        -11    1    3    3    0    0  0.39071740473E+01  0.14121263679E+02  0.12838442365E+01  0.14707969038E+02  0.51100000000E-03 0. -1.
         12    1    3    3    0    0  0.82941051094E+01  0.43386674979E+01 -0.17831400750E+01  0.95286832117E+01  0.00000000000E+00 0. -1.
</event>
<event>
 7    1  0.4876728E-009  0.4778727E+02  0.7816164E-02  0.1312668E+00
        -11   -1    0    0    0    0  0.00000000000E+00  0.00000000000E+00  0.45593999997E+02  0.45594000000E+02  0.51100000000E-03 0.  1.
         11   -1    0    0    0    0 -0.00000000000E+00 -0.00000000000E+00 -0.45593999997E+02  0.45594000000E+02  0.51100000000E-03 0. -1.
    9900012    2    1    2    0    0 -0.12121448255E+02 -0.95743277224E+01  0.40558921503E+02  0.47787269907E+02  0.19999994815E+02 0.  0.
         12    1    1    2    0    0  0.12121448255E+02  0.95743277224E+01 -0.40558921503E+02  0.43400730093E+02  0.00000000000E+00 0. -1.
         11    1    3    3    0    0 -0.10466895520E+01  0.26870538870E+01  0.12485002002E+02  0.12813707226E+02  0.51100000000E-03 0. -1.
        -11    1    3    3    0    0 -0.69646655867E+00  0.25728617002E+01  0.26165795461E+01  0.37351267419E+01  0.51100000000E-03 0.  1.
        -12    1    3    3    0    0 -0.10378292144E+02 -0.14834243310E+02  0.25457339955E+02  0.31238435940E+02  0.00000000000E+00 0.  1.
</event>
<event>
 7    1  0.4876728E-009  0.4778726E+02  0.7816164E-02  0.1312668E+00
        -11   -1    0    0    0    0  0.00000000000E+00  0.00000000000E+00  0.45593999997E+02  0.45594000000E+02  0.51100000000E-03 0.  1.
         11   -1    0    0    0    0 -0.00000000000E+00 -0.00000000000E+00 -0.45593999997E+02  0.45594000000E+02  0.51100000000E-03 0. -1.
    9900012    2    1    2    0    0  0.22130140863E+02  0.34820710398E+02  0.13468444624E+02  0.47787262589E+02  0.19999961449E+02 0.  0.
         12    1    1    2    0    0 -0.22130140863E+02 -0.34820710398E+02 -0.13468444624E+02  0.43400737411E+02  0.00000000000E+00 0. -1.
         11    1    3    3    0    0  0.28996408918E+01 -0.14213712777E+01  0.12091657250E+01  0.34482307959E+01  0.51100000000E-03 0. -1.
        -11    1    3    3    0    0  0.18920882803E+02  0.27411539050E+02  0.12291099591E+02  0.35503005627E+02  0.51100000000E-03 0.  1.
        -12    1    3    3    0    0  0.30961716782E+00  0.88305426260E+01 -0.31820691822E-01  0.88360261666E+01  0.00000000000E+00 0.  1.
</event>
<event>
 7    1  0.5446442E-009  0.4778727E+02  0.7816164E-02  0.1312668E+00
        -11   -1    0    0    0    0  0.00000000000E+00  0.00000000000E+00  0.45593999997E+02  0.45594000000E+02  0.51100000000E-03 0. -1.
         11   -1    0    0    0    0 -0.00000000000E+00 -0.00000000000E+00 -0.45593999997E+02  0.45594000000E+02  0.51100000000E-03 0.  1.
    9900012    2    1    2    0    0 -0.79413264433E+01  0.23667709211E+02 -0.35502089284E+02  0.47787268802E+02  0.19999989775E+02 0.  0.
         12    1    1    2    0    0  0.79413264433E+01 -0.23667709211E+02  0.35502089284E+02  0.43400731198E+02  0.00000000000E+00 0. -1.
         11    1    3    3    0    0 -0.57135731565E+00  0.10120574223E+02 -0.34724672778E+01  0.10714966217E+02  0.51100000000E-03 0. -1.
        -11    1    3    3    0    0 -0.21626338843E+01  0.12771520306E+02 -0.26134446066E+02  0.29168441640E+02  0.51100000000E-03 0.  1.
        -12    1    3    3    0    0 -0.52073352434E+01  0.77561468321E+00 -0.58951759403E+01  0.79038609452E+01  0.00000000000E+00 0.  1.
</event>
<event>
 7    1  0.4876728E-009  0.4778727E+02  0.7816164E-02  0.1312668E+00
        -11   -1    0    0    0    0  0.00000000000E+00  0.00000000000E+00  0.45593999997E+02  0.45594000000E+02  0.51100000000E-03 0.  1.
         11   -1    0    0    0    0 -0.00000000000E+00 -0.00000000000E+00 -0.45593999997E+02  0.45594000000E+02  0.51100000000E-03 0. -1.
    9900012    2    1    2    0    0  0.33449637379E+02 -0.18904390056E+02  0.20183386341E+02  0.47787270877E+02  0.19999999238E+02 0.  0.
         12    1    1    2    0    0 -0.33449637379E+02  0.18904390056E+02 -0.20183386341E+02  0.43400729123E+02  0.00000000000E+00 0. -1.
         11    1    3    3    0    0  0.55580557296E+01  0.86905772309E+00  0.67007445569E+01  0.87491269677E+01  0.51100000000E-03 0. -1.
        -11    1    3    3    0    0  0.17811722769E+02 -0.14526289637E+02  0.23067339053E+01  0.23099601300E+02  0.51100000000E-03 0.  1.
        -12    1    3    3    0    0  0.10079858880E+02 -0.52471581421E+01  0.11175907879E+02  0.15938542610E+02  0.00000000000E+00 0.  1.
</event>
<event>
 7    1  0.4876728E-009  0.4778727E+02  0.7816164E-02  0.1312668E+00
        -11   -1    0    0    0    0  0.00000000000E+00  0.00000000000E+00  0.45593999997E+02  0.45594000000E+02  0.51100000000E-03 0.  1.
         11   -1    0    0    0    0 -0.00000000000E+00 -0.00000000000E+00 -0.45593999997E+02  0.45594000000E+02  0.51100000000E-03 0. -1.
    9900012    2    1    2    0    0 -0.27364177647E+01  0.40351365734E+02  0.15744930838E+02  0.47787267911E+02  0.19999985712E+02 0.  0.
         12    1    1    2    0    0  0.27364177647E+01 -0.40351365734E+02 -0.15744930838E+02  0.43400732089E+02  0.00000000000E+00 0. -1.
         11    1    3    3    0    0 -0.53921701118E+01  0.86888589578E+01  0.63069892032E+01  0.12014569554E+02  0.51100000000E-03 0. -1.
        -11    1    3    3    0    0  0.81763663978E+01  0.18926003077E+02  0.52843110113E+01  0.21283103699E+02  0.51100000000E-03 0.  1.
         12    1    3    3    0    0 -0.55206140507E+01  0.12736503700E+02  0.41536306239E+01  0.14489594658E+02  0.00000000000E+00 0. -1.
</event>
<event>
 7    1  0.4876728E-009  0.4778727E+02  0.7816164E-02  0.1312668E+00
        -11   -1    0    0    0    0  0.00000000000E+00  0.00000000000E+00  0.45593999997E+02  0.45594000000E+02  0.51100000000E-03 0. -1.
         11   -1    0    0    0    0 -0.00000000000E+00 -0.00000000000E+00 -0.45593999997E+02  0.45594000000E+02  0.51100000000E-03 0.  1.
    9900012    2    1    2    0    0 -0.34445225136E+02  0.10258283593E+02 -0.24329361527E+02  0.47787265568E+02  0.19999975030E+02 0.  0.
         12    1    1    2    0    0  0.34445225136E+02 -0.10258283593E+02  0.24329361527E+02  0.43400734432E+02  0.00000000000E+00 0. -1.
         11    1    3    3    0    0 -0.22899734529E+02  0.98318002104E+01 -0.66037301063E+01  0.25781221625E+02  0.51100000000E-03 0. -1.
        -11    1    3    3    0    0 -0.10903788223E+02  0.12639476762E+01 -0.17838243965E+02  0.20945002014E+02  0.51100000000E-03 0.  1.
        -12    1    3    3    0    0 -0.64170238292E+00 -0.83746429326E+00  0.11261254378E+00  0.10610419293E+01  0.00000000000E+00 0.  1.
</event>
<event>
 7    1  0.4876728E-009  0.4778727E+02  0.7816164E-02  0.1312668E+00
        -11   -1    0    0    0    0  0.00000000000E+00  0.00000000000E+00  0.45593999997E+02  0.45594000000E+02  0.51100000000E-03 0. -1.
         11   -1    0    0    0    0 -0.00000000000E+00 -0.00000000000E+00 -0.45593999997E+02  0.45594000000E+02  0.51100000000E-03 0.  1.
    9900012    2    1    2    0    0 -0.38821821368E+00  0.31650550095E+02 -0.29693687275E+02  0.47787273062E+02  0.20000009200E+02 0.  0.
         12    1    1    2    0    0  0.38821821368E+00 -0.31650550095E+02  0.29693687275E+02  0.43400726938E+02  0.00000000000E+00 0. -1.
         11    1    3    3    0    0 -0.91936061517E+00 -0.21347010802E+01  0.18929255540E+00  0.23319529530E+01  0.51100000000E-03 0. -1.
        -11    1    3    3    0    0  0.14414650095E+01  0.33016968643E+02 -0.29057092041E+02  0.44005825045E+02  0.51100000000E-03 0.  1.
        -12    1    3    3    0    0 -0.91032260804E+00  0.76828253234E+00 -0.82588778964E+00  0.14494950642E+01  0.00000000000E+00 0.  1.
</event>
<event>
 7    1  0.4876728E-009  0.4778727E+02  0.7816164E-02  0.1312668E+00
        -11   -1    0    0    0    0  0.00000000000E+00  0.00000000000E+00  0.45593999997E+02  0.45594000000E+02  0.51100000000E-03 0.  1.
         11   -1    0    0    0    0 -0.00000000000E+00 -0.00000000000E+00 -0.45593999997E+02  0.45594000000E+02  0.51100000000E-03 0. -1.
    9900012    2    1    2    0    0 -0.10914292794E+02 -0.37817532289E+02  0.18284853353E+02  0.47787269617E+02  0.19999993491E+02 0.  0.
         12    1    1    2    0    0  0.10914292794E+02  0.37817532289E+02 -0.18284853353E+02  0.43400730383E+02  0.00000000000E+00 0. -1.
         11    1    3    3    0    0  0.10187836657E+01 -0.22314662000E+02  0.72016006389E+01  0.23470089739E+02  0.51100000000E-03 0. -1.
        -11    1    3    3    0    0 -0.11908147610E+02 -0.13708972670E+02  0.12488173967E+02  0.22038475457E+02  0.51100000000E-03 0.  1.
        -12    1    3    3    0    0 -0.24928850230E-01 -0.17938976193E+01 -0.14049212522E+01  0.22787044216E+01  0.00000000000E+00 0.  1.
</event>
<event>
 7    1  0.4876728E-009  0.4778727E+02  0.7816164E-02  0.1312668E+00
        -11   -1    0    0    0    0  0.00000000000E+00  0.00000000000E+00  0.45593999997E+02  0.45594000000E+02  0.51100000000E-03 0.  1.
         11   -1    0    0    0    0 -0.00000000000E+00 -0.00000000000E+00 -0.45593999997E+02  0.45594000000E+02  0.51100000000E-03 0. -1.
    9900012    2    1    2    0    0  0.18951254989E+02  0.37913620393E+02  0.93290301216E+01  0.47787268670E+02  0.19999989176E+02 0.  0.
         12    1    1    2    0    0 -0.18951254989E+02 -0.37913620393E+02 -0.93290301216E+01  0.43400731330E+02  0.00000000000E+00 0. -1.
         11    1    3    3    0    0  0.17206348656E+02  0.14367716474E+02  0.35175699999E+01  0.22690592979E+02  0.51100000000E-03 0. -1.
        -11    1    3    3    0    0  0.28861918210E+01  0.49811024835E+01  0.64671554648E+00  0.57930757320E+01  0.51100000000E-03 0.  1.
         12    1    3    3    0    0 -0.11412854881E+01  0.18564801435E+02  0.51647445752E+01  0.19303599960E+02  0.00000000000E+00 0. -1.
</event>
<event>
 7    1  0.4876728E-009  0.4778725E+02  0.7816164E-02  0.1312668E+00
        -11   -1    0    0    0    0  0.00000000000E+00  0.00000000000E+00  0.45593999997E+02  0.45594000000E+02  0.51100000000E-03 0. -1.
         11   -1    0    0    0    0 -0.00000000000E+00 -0.00000000000E+00 -0.45593999997E+02  0.45594000000E+02  0.51100000000E-03 0.  1.
    9900012    2    1    2    0    0 -0.33586679706E+02 -0.27470489928E+02 -0.96549477112E+00  0.47787250574E+02  0.19999906666E+02 0.  0.
         12    1    1    2    0    0  0.33586679706E+02  0.27470489928E+02  0.96549477112E+00  0.43400749426E+02  0.00000000000E+00 0. -1.
         11    1    3    3    0    0 -0.17345751780E+02 -0.13016443393E+02  0.57741158514E+01  0.22441998965E+02  0.51100000000E-03 0. -1.
        -11    1    3    3    0    0 -0.12672795357E+02 -0.16013565458E+02 -0.65517574260E+01  0.21446667491E+02  0.51100000000E-03 0.  1.
        -12    1    3    3    0    0 -0.35681325689E+01  0.15595189226E+01 -0.18785319650E+00  0.38985841177E+01  0.00000000000E+00 0.  1.
</event>
<event>
 7    1  0.4876728E-009  0.4778727E+02  0.7816164E-02  0.1312668E+00
        -11   -1    0    0    0    0  0.00000000000E+00  0.00000000000E+00  0.45593999997E+02  0.45594000000E+02  0.51100000000E-03 0.  1.
         11   -1    0    0    0    0 -0.00000000000E+00 -0.00000000000E+00 -0.45593999997E+02  0.45594000000E+02  0.51100000000E-03 0. -1.
    9900012    2    1    2    0    0  0.28702190463E+02  0.24050577583E+02  0.21940306276E+02  0.47787273520E+02  0.20000011289E+02 0.  0.
         12    1    1    2    0    0 -0.28702190463E+02 -0.24050577583E+02 -0.21940306276E+02  0.43400726480E+02  0.00000000000E+00 0. -1.
         11    1    3    3    0    0  0.11064226041E+02 -0.98513798591E+00  0.38060708128E+01  0.11741966191E+02  0.51100000000E-03 0. -1.
        -11    1    3    3    0    0  0.67326957601E+01  0.14505987173E+02  0.93349952779E+01  0.18517424042E+02  0.51100000000E-03 0.  1.
         12    1    3    3    0    0  0.10905268662E+02  0.10529728396E+02  0.87992401854E+01  0.17527883287E+02  0.00000000000E+00 0. -1.
</event>
<event>
 7    1  0.4876728E-009  0.4778727E+02  0.7816164E-02  0.1312668E+00
        -11   -1    0    0    0    0  0.00000000000E+00  0.00000000000E+00  0.45593999997E+02  0.45594000000E+02  0.51100000000E-03 0. -1.
         11   -1    0    0    0    0 -0.00000000000E+00 -0.00000000000E+00 -0.45593999997E+02  0.45594000000E+02  0.51100000000E-03 0.  1.
    9900012    2    1    2    0    0  0.13155807920E+02 -0.20795174118E+02 -0.35750646086E+02  0.47787271386E+02  0.20000001559E+02 0.  0.
         12    1    1    2    0    0 -0.13155807920E+02  0.20795174118E+02  0.35750646086E+02  0.43400728614E+02  0.00000000000E+00 0. -1.
         11    1    3    3    0    0  0.46650463234E+01  0.69437537473E+00 -0.11956983863E+01  0.48656458207E+01  0.51100000000E-03 0. -1.
        -11    1    3    3    0    0 -0.11625474964E+01 -0.97128337765E+01 -0.17573930664E+02  0.20113023042E+02  0.51100000000E-03 0.  1.
        -12    1    3    3    0    0  0.96533090931E+01 -0.11776715716E+02 -0.16981017036E+02  0.22808602524E+02  0.00000000000E+00 0.  1.
</event>
<event>
 7    1  0.4876728E-009  0.4778727E+02  0.7816164E-02  0.1312668E+00
        -11   -1    0    0    0    0  0.00000000000E+00  0.00000000000E+00  0.45593999997E+02  0.45594000000E+02  0.51100000000E-03 0.  1.
         11   -1    0    0    0    0 -0.00000000000E+00 -0.00000000000E+00 -0.45593999997E+02  0.45594000000E+02  0.51100000000E-03 0. -1.
    9900012    2    1    2    0    0  0.38269809410E+02  0.17689666598E+02 -0.10301498188E+02  0.47787268652E+02  0.19999989092E+02 0.  0.
         12    1    1    2    0    0 -0.38269809410E+02 -0.17689666598E+02  0.10301498188E+02  0.43400731348E+02  0.00000000000E+00 0. -1.
         11    1    3    3    0    0  0.16213492422E+02  0.57970586240E+01  0.26628365262E+01  0.17423372918E+02  0.51100000000E-03 0. -1.
        -11    1    3    3    0    0  0.20441146749E+02  0.74866456041E+01 -0.13539529794E+02  0.25636091943E+02  0.51100000000E-03 0.  1.
        -12    1    3    3    0    0  0.16151702387E+01  0.44059623695E+01  0.57519507995E+00  0.47278037905E+01  0.00000000000E+00 0.  1.
</event>
<event>
 7    1  0.4876728E-009  0.4778727E+02  0.7816164E-02  0.1312668E+00
        -11   -1    0    0    0    0  0.00000000000E+00  0.00000000000E+00  0.45593999997E+02  0.45594000000E+02  0.51100000000E-03 0.  1.
         11   -1    0    0    0    0 -0.00000000000E+00 -0.00000000000E+00 -0.45593999997E+02  0.45594000000E+02  0.51100000000E-03 0. -1.
    9900012    2    1    2    0    0 -0.36167152061E+01 -0.41528881223E+02  0.12078677496E+02  0.47787273571E+02  0.20000011519E+02 0.  0.
         12    1    1    2    0    0  0.36167152061E+01  0.41528881223E+02 -0.12078677496E+02  0.43400726429E+02  0.00000000000E+00 0. -1.
         11    1    3    3    0    0 -0.55890262248E+01 -0.10578651018E+02 -0.28458051914E+01  0.12298116886E+02  0.51100000000E-03 0. -1.
        -11    1    3    3    0    0  0.19873833434E+01 -0.24953952399E+02  0.78924487328E+01  0.26247669994E+02  0.51100000000E-03 0.  1.
         12    1    3    3    0    0 -0.15072324653E-01 -0.59962778064E+01  0.70320339547E+01  0.92414866903E+01  0.00000000000E+00 0. -1.
</event>
<event>
 7    1  0.4876728E-009  0.4778727E+02  0.7816164E-02  0.1312668E+00
        -11   -1    0    0    0    0  0.00000000000E+00  0.00000000000E+00  0.45593999997E+02  0.45594000000E+02  0.51100000000E-03 0.  1.
         11   -1    0    0    0    0 -0.00000000000E+00 -0.00000000000E+00 -0.45593999997E+02  0.45594000000E+02  0.51100000000E-03 0. -1.
    9900012    2    1    2    0    0 -0.35935242128E+02 -0.98994356284E+00  0.24316690001E+02  0.47787273881E+02  0.20000012933E+02 0.  0.
         12    1    1    2    0    0  0.35935242128E+02  0.98994356284E+00 -0.24316690001E+02  0.43400726119E+02  0.00000000000E+00 0. -1.
         11    1    3    3    0    0 -0.26869204371E+02  0.42734232481E+01  0.17293398684E+02  0.32237833800E+02  0.51100000000E-03 0. -1.
        -11    1    3    3    0    0 -0.20238496326E+01  0.25702813310E+01  0.10281359395E+01  0.34291948366E+01  0.51100000000E-03 0.  1.
         12    1    3    3    0    0 -0.70421881241E+01 -0.78336481420E+01  0.59951553767E+01  0.12120245244E+02  0.00000000000E+00 0. -1.
</event>
<event>
 7    1  0.4876728E-009  0.4778728E+02  0.7816164E-02  0.1312668E+00
        -11   -1    0    0    0    0  0.00000000000E+00  0.00000000000E+00  0.45593999997E+02  0.45594000000E+02  0.51100000000E-03 0.  1.
         11   -1    0    0    0    0 -0.00000000000E+00 -0.00000000000E+00 -0.45593999997E+02  0.45594000000E+02  0.51100000000E-03 0. -1.
    9900012    2    1    2    0    0 -0.91963835929E+01  0.40596845172E+02  0.12285962100E+02  0.47787283718E+02  0.20000057782E+02 0.  0.
         12    1    1    2    0    0  0.91963835929E+01 -0.40596845172E+02 -0.12285962100E+02  0.43400716282E+02  0.00000000000E+00 0. -1.
         11    1    3    3    0    0 -0.28690754036E+01  0.65686700214E+01 -0.10799475684E+01  0.72488141467E+01  0.51100000000E-03 0. -1.
        -11    1    3    3    0    0 -0.16605594244E+01 -0.84331652765E+00  0.35557492057E+01  0.40139747188E+01  0.51100000000E-03 0.  1.
        -12    1    3    3    0    0 -0.46667487650E+01  0.34871491678E+02  0.98101604631E+01  0.36524494852E+02  0.00000000000E+00 0.  1.
</event>
<event>
 7    1  0.4876728E-009  0.4778727E+02  0.7816164E-02  0.1312668E+00
        -11   -1    0    0    0    0  0.00000000000E+00  0.00000000000E+00  0.45593999997E+02  0.45594000000E+02  0.51100000000E-03 0. -1.
         11   -1    0    0    0    0 -0.00000000000E+00 -0.00000000000E+00 -0.45593999997E+02  0.45594000000E+02  0.51100000000E-03 0.  1.
    9900012    2    1    2    0    0 -0.14266761585E+02 -0.31639154097E+02 -0.26058524862E+02  0.47787271019E+02  0.19999999883E+02 0.  0.
         12    1    1    2    0    0  0.14266761585E+02  0.31639154097E+02  0.26058524862E+02  0.43400728981E+02  0.00000000000E+00 0. -1.
         11    1    3    3    0    0 -0.46665367257E+01 -0.26513252332E+02 -0.15301881077E+02  0.30965733949E+02  0.51100000000E-03 0. -1.
        -11    1    3    3    0    0 -0.85791750643E+01 -0.14000075010E+01 -0.91981416288E+01  0.12655752663E+02  0.51100000000E-03 0.  1.
        -12    1    3    3    0    0 -0.10210497946E+01 -0.37258942647E+01 -0.15585021562E+01  0.41657844070E+01  0.00000000000E+00 0.  1.
</event>
<event>
 7    1  0.4876728E-009  0.4778727E+02  0.7816164E-02  0.1312668E+00
        -11   -1    0    0    0    0  0.00000000000E+00  0.00000000000E+00  0.45593999997E+02  0.45594000000E+02  0.51100000000E-03 0.  1.
         11   -1    0    0    0    0 -0.00000000000E+00 -0.00000000000E+00 -0.45593999997E+02  0.45594000000E+02  0.51100000000E-03 0. -1.
    9900012    2    1    2    0    0  0.14455730242E+02 -0.20281167919E+02  0.35543348359E+02  0.47787268191E+02  0.19999986991E+02 0.  0.
         12    1    1    2    0    0 -0.14455730242E+02  0.20281167919E+02 -0.35543348359E+02  0.43400731809E+02  0.00000000000E+00 0. -1.
         11    1    3    3    0    0 -0.81767677136E+00 -0.11560945545E+01 -0.63182572406E+00  0.15505979260E+01  0.51100000000E-03 0.  1.
        -11    1    3    3    0    0  0.15582430227E+02 -0.78941634646E+01  0.20182750108E+02  0.26692196440E+02  0.51100000000E-03 0. -1.
        -12    1    3    3    0    0 -0.30902321386E+00 -0.11230909899E+02  0.15992423975E+02  0.19544473825E+02  0.00000000000E+00 0.  1.
</event>
<event>
 7    1  0.4876728E-009  0.4778727E+02  0.7816164E-02  0.1312668E+00
        -11   -1    0    0    0    0  0.00000000000E+00  0.00000000000E+00  0.45593999997E+02  0.45594000000E+02  0.51100000000E-03 0.  1.
         11   -1    0    0    0    0 -0.00000000000E+00 -0.00000000000E+00 -0.45593999997E+02  0.45594000000E+02  0.51100000000E-03 0. -1.
    9900012    2    1    2    0    0 -0.38082703417E+02 -0.98410786427E+01  0.18343504379E+02  0.47787270959E+02  0.19999999611E+02 0.  0.
         12    1    1    2    0    0  0.38082703417E+02  0.98410786427E+01 -0.18343504379E+02  0.43400729041E+02  0.00000000000E+00 0. -1.
         11    1    3    3    0    0 -0.17491345710E+02  0.13773523854E+01  0.14238701520E+01  0.17603172465E+02  0.51100000000E-03 0. -1.
        -11    1    3    3    0    0 -0.15702820682E+02 -0.11558239353E+02  0.10618890412E+02  0.22202078915E+02  0.51100000000E-03 0.  1.
        -12    1    3    3    0    0 -0.48885370243E+01  0.33980832512E+00  0.63007438157E+01  0.79820195794E+01  0.00000000000E+00 0.  1.
</event>
<event>
 7    1  0.4876728E-009  0.4778728E+02  0.7816164E-02  0.1312668E+00
        -11   -1    0    0    0    0  0.00000000000E+00  0.00000000000E+00  0.45593999997E+02  0.45594000000E+02  0.51100000000E-03 0. -1.
         11   -1    0    0    0    0 -0.00000000000E+00 -0.00000000000E+00 -0.45593999997E+02  0.45594000000E+02  0.51100000000E-03 0.  1.
    9900012    2    1    2    0    0 -0.24691471509E+02 -0.35534693173E+02 -0.33524857086E+01  0.47787281751E+02  0.20000048813E+02 0.  0.
         12    1    1    2    0    0  0.24691471509E+02  0.35534693173E+02  0.33524857086E+01  0.43400718249E+02  0.00000000000E+00 0. -1.
         11    1    3    3    0    0 -0.19791775268E+02 -0.22764355919E+02  0.39636690881E+01  0.30424347841E+02  0.51100000000E-03 0. -1.
        -11    1    3    3    0    0 -0.46703795871E+01 -0.28187425226E+01 -0.92328257316E+00  0.55326490823E+01  0.51100000000E-03 0.  1.
         12    1    3    3    0    0 -0.22931665341E+00 -0.99515947311E+01 -0.63928722235E+01  0.11830284827E+02  0.00000000000E+00 0. -1.
</event>
<event>
 7    1  0.4876728E-009  0.4778727E+02  0.7816164E-02  0.1312668E+00
        -11   -1    0    0    0    0  0.00000000000E+00  0.00000000000E+00  0.45593999997E+02  0.45594000000E+02  0.51100000000E-03 0. -1.
         11   -1    0    0    0    0 -0.00000000000E+00 -0.00000000000E+00 -0.45593999997E+02  0.45594000000E+02  0.51100000000E-03 0.  1.
    9900012    2    1    2    0    0 -0.27403610671E+02  0.28638375468E+02  0.17677923163E+02  0.47787269654E+02  0.19999993658E+02 0.  0.
         12    1    1    2    0    0  0.27403610671E+02 -0.28638375468E+02 -0.17677923163E+02  0.43400730346E+02  0.00000000000E+00 0. -1.
         11    1    3    3    0    0 -0.87756916589E+01  0.57894149809E+00  0.79551644071E+01  0.11858860753E+02  0.51100000000E-03 0. -1.
        -11    1    3    3    0    0 -0.15599535866E+02  0.20428672828E+02  0.10317746798E+02  0.27697149528E+02  0.51100000000E-03 0.  1.
         12    1    3    3    0    0 -0.30283831464E+01  0.76307611419E+01 -0.59498804214E+00  0.82312593725E+01  0.00000000000E+00 0. -1.
</event>
<event>
 7    1  0.4876728E-009  0.4778727E+02  0.7816164E-02  0.1312668E+00
        -11   -1    0    0    0    0  0.00000000000E+00  0.00000000000E+00  0.45593999997E+02  0.45594000000E+02  0.51100000000E-03 0. -1.
         11   -1    0    0    0    0 -0.00000000000E+00 -0.00000000000E+00 -0.45593999997E+02  0.45594000000E+02  0.51100000000E-03 0.  1.
    9900012    2    1    2    0    0  0.77008177953E+01  0.82576090768E+01 -0.41906236451E+02  0.47787270100E+02  0.19999995694E+02 0.  0.
         12    1    1    2    0    0 -0.77008177953E+01 -0.82576090768E+01  0.41906236451E+02  0.43400729900E+02  0.00000000000E+00 0. -1.
         11    1    3    3    0    0  0.51801272193E+01  0.50548517494E+01 -0.63829036920E+01  0.96502178224E+01  0.51100000000E-03 0. -1.
        -11    1    3    3    0    0 -0.20730804167E+01  0.55944972907E+01 -0.29910902807E+02  0.30500133924E+02  0.51100000000E-03 0.  1.
        -12    1    3    3    0    0  0.45937709928E+01 -0.23917399633E+01 -0.56124299513E+01  0.76369183539E+01  0.00000000000E+00 0.  1.
</event>
<event>
 7    1  0.4876728E-009  0.4778728E+02  0.7816164E-02  0.1312668E+00
        -11   -1    0    0    0    0  0.00000000000E+00  0.00000000000E+00  0.45593999997E+02  0.45594000000E+02  0.51100000000E-03 0. -1.
         11   -1    0    0    0    0 -0.00000000000E+00 -0.00000000000E+00 -0.45593999997E+02  0.45594000000E+02  0.51100000000E-03 0.  1.
    9900012    2    1    2    0    0 -0.11584307775E+02  0.18438588722E+02 -0.37542576948E+02  0.47787276220E+02  0.20000023599E+02 0.  0.
         12    1    1    2    0    0  0.11584307775E+02 -0.18438588722E+02  0.37542576948E+02  0.43400723780E+02  0.00000000000E+00 0. -1.
         11    1    3    3    0    0  0.28851719196E+00  0.47094484698E+00  0.46400373322E+00  0.72133968733E+00  0.51100000000E-03 0. -1.
        -11    1    3    3    0    0  0.13691868787E+01  0.50582148593E+01 -0.52018162833E+00  0.52660041264E+01  0.51100000000E-03 0.  1.
        -12    1    3    3    0    0 -0.13242011845E+02  0.12909429015E+02 -0.37486399053E+02  0.41799932407E+02  0.00000000000E+00 0.  1.
</event>
<event>
 7    1  0.4876728E-009  0.4778725E+02  0.7816164E-02  0.1312668E+00
        -11   -1    0    0    0    0  0.00000000000E+00  0.00000000000E+00  0.45593999997E+02  0.45594000000E+02  0.51100000000E-03 0.  1.
         11   -1    0    0    0    0 -0.00000000000E+00 -0.00000000000E+00 -0.45593999997E+02  0.45594000000E+02  0.51100000000E-03 0. -1.
    9900012    2    1    2    0    0 -0.14783375375E+02  0.25434571431E+02  0.31908607543E+02  0.47787252925E+02  0.19999917386E+02 0.  0.
         12    1    1    2    0    0  0.14783375375E+02 -0.25434571431E+02 -0.31908607543E+02  0.43400747075E+02  0.00000000000E+00 0. -1.
         11    1    3    3    0    0 -0.89211122542E+00 -0.24662065096E+01  0.51970346486E+01  0.58212718874E+01  0.51100000000E-03 0. -1.
        -11    1    3    3    0    0 -0.74914816858E+01  0.23227150154E+02  0.21013671365E+02  0.32205545899E+02  0.51100000000E-03 0.  1.
         12    1    3    3    0    0 -0.63997824637E+01  0.46736277864E+01  0.56979015289E+01  0.97604351389E+01  0.00000000000E+00 0. -1.
</event>
<event>
 7    1  0.4876728E-009  0.4778727E+02  0.7816164E-02  0.1312668E+00
        -11   -1    0    0    0    0  0.00000000000E+00  0.00000000000E+00  0.45593999997E+02  0.45594000000E+02  0.51100000000E-03 0.  1.
         11   -1    0    0    0    0 -0.00000000000E+00 -0.00000000000E+00 -0.45593999997E+02  0.45594000000E+02  0.51100000000E-03 0. -1.
    9900012    2    1    2    0    0  0.53957367498E+01  0.61434876997E+01  0.42623544550E+02  0.47787274589E+02  0.20000016162E+02 0.  0.
         12    1    1    2    0    0 -0.53957367498E+01 -0.61434876997E+01 -0.42623544550E+02  0.43400725411E+02  0.00000000000E+00 0. -1.
         11    1    3    3    0    0 -0.13154879547E+01  0.25823607151E+01  0.24050766477E+02  0.24224748994E+02  0.51100000000E-03 0. -1.
        -11    1    3    3    0    0  0.28170373480E+01 -0.42994356685E+01  0.38409247694E+01  0.64166618917E+01  0.51100000000E-03 0.  1.
        -12    1    3    3    0    0  0.38941873565E+01  0.78605626530E+01  0.14731853303E+02  0.17145863703E+02  0.00000000000E+00 0.  1.
</event>
<event>
 7    1  0.4876728E-009  0.4778727E+02  0.7816164E-02  0.1312668E+00
        -11   -1    0    0    0    0  0.00000000000E+00  0.00000000000E+00  0.45593999997E+02  0.45594000000E+02  0.51100000000E-03 0.  1.
         11   -1    0    0    0    0 -0.00000000000E+00 -0.00000000000E+00 -0.45593999997E+02  0.45594000000E+02  0.51100000000E-03 0. -1.
    9900012    2    1    2    0    0  0.29016678048E+02  0.23678044720E+02  0.21931847819E+02  0.47787270105E+02  0.19999995717E+02 0.  0.
         12    1    1    2    0    0 -0.29016678048E+02 -0.23678044720E+02 -0.21931847819E+02  0.43400729895E+02  0.00000000000E+00 0. -1.
         11    1    3    3    0    0  0.47603750236E+00  0.64442558533E+00 -0.18965306088E+01  0.20588163226E+01  0.51100000000E-03 0. -1.
        -11    1    3    3    0    0  0.33090922314E+01 -0.15876573288E+01  0.13128243624E+01  0.38979809206E+01  0.51100000000E-03 0.  1.
        -12    1    3    3    0    0  0.25231548314E+02  0.24621276463E+02  0.22515554065E+02  0.41830472862E+02  0.00000000000E+00 0.  1.
</event>
<event>
 7    1  0.4876728E-009  0.4778727E+02  0.7816164E-02  0.1312668E+00
        -11   -1    0    0    0    0  0.00000000000E+00  0.00000000000E+00  0.45593999997E+02  0.45594000000E+02  0.51100000000E-03 0.  1.
         11   -1    0    0    0    0 -0.00000000000E+00 -0.00000000000E+00 -0.45593999997E+02  0.45594000000E+02  0.51100000000E-03 0. -1.
    9900012    2    1    2    0    0  0.22102202544E+02  0.32977297125E+02 -0.17538927952E+02  0.47787268708E+02  0.19999989349E+02 0.  0.
         12    1    1    2    0    0 -0.22102202544E+02 -0.32977297125E+02  0.17538927952E+02  0.43400731292E+02  0.00000000000E+00 0. -1.
         11    1    3    3    0    0  0.10314081516E+02  0.25776407152E+02 -0.13352307396E+02  0.30807264666E+02  0.51100000000E-03 0. -1.
        -11    1    3    3    0    0  0.80398966690E+01  0.81477594474E+01 -0.23106798143E+00  0.11448987516E+02  0.51100000000E-03 0.  1.
         12    1    3    3    0    0  0.37482243585E+01 -0.94686947440E+00 -0.39555525750E+01  0.55310165265E+01  0.00000000000E+00 0. -1.
</event>
<event>
 7    1  0.4876728E-009  0.4778727E+02  0.7816164E-02  0.1312668E+00
        -11   -1    0    0    0    0  0.00000000000E+00  0.00000000000E+00  0.45593999997E+02  0.45594000000E+02  0.51100000000E-03 0.  1.
         11   -1    0    0    0    0 -0.00000000000E+00 -0.00000000000E+00 -0.45593999997E+02  0.45594000000E+02  0.51100000000E-03 0. -1.
    9900012    2    1    2    0    0  0.92159454015E+01  0.35901624369E+02  0.22577940238E+02  0.47787266512E+02  0.19999979334E+02 0.  0.
         12    1    1    2    0    0 -0.92159454015E+01 -0.35901624369E+02 -0.22577940238E+02  0.43400733488E+02  0.00000000000E+00 0. -1.
         11    1    3    3    0    0 -0.45996136731E+00  0.46283476110E+00 -0.11821317622E+01  0.13502652480E+01  0.51100000000E-03 0. -1.
        -11    1    3    3    0    0  0.10385049959E+02  0.13133650120E+02  0.55675629060E+01  0.17644823181E+02  0.51100000000E-03 0.  1.
        -12    1    3    3    0    0 -0.70914318973E+00  0.22305139488E+02  0.18192509094E+02  0.28792178083E+02  0.00000000000E+00 0.  1.
</event>
<event>
 7    1  0.4876728E-009  0.4778727E+02  0.7816164E-02  0.1312668E+00
        -11   -1    0    0    0    0  0.00000000000E+00  0.00000000000E+00  0.45593999997E+02  0.45594000000E+02  0.51100000000E-03 0.  1.
         11   -1    0    0    0    0 -0.00000000000E+00 -0.00000000000E+00 -0.45593999997E+02  0.45594000000E+02  0.51100000000E-03 0. -1.
    9900012    2    1    2    0    0 -0.29049608974E+02 -0.15112240678E+01  0.32209622723E+02  0.47787269871E+02  0.19999994652E+02 0.  0.
         12    1    1    2    0    0  0.29049608974E+02  0.15112240678E+01 -0.32209622723E+02  0.43400730129E+02  0.00000000000E+00 0. -1.
         11    1    3    3    0    0 -0.83250672543E+01  0.69871878002E+01  0.67012125887E+01  0.12768468529E+02  0.51100000000E-03 0. -1.
        -11    1    3    3    0    0 -0.13264567698E+02 -0.22602892622E+01  0.10208288571E+02  0.16889843681E+02  0.51100000000E-03 0.  1.
         12    1    3    3    0    0 -0.74599740217E+01 -0.62381226058E+01  0.15300121564E+02  0.18128957662E+02  0.00000000000E+00 0. -1.
</event>
<event>
 7    1  0.4876728E-009  0.4778728E+02  0.7816164E-02  0.1312668E+00
        -11   -1    0    0    0    0  0.00000000000E+00  0.00000000000E+00  0.45593999997E+02  0.45594000000E+02  0.51100000000E-03 0. -1.
         11   -1    0    0    0    0 -0.00000000000E+00 -0.00000000000E+00 -0.45593999997E+02  0.45594000000E+02  0.51100000000E-03 0.  1.
    9900012    2    1    2    0    0 -0.34120997591E+02 -0.26259956467E+02 -0.54584825993E+01  0.47787276244E+02  0.20000023707E+02 0.  0.
         12    1    1    2    0    0  0.34120997591E+02  0.26259956467E+02  0.54584825993E+01  0.43400723756E+02  0.00000000000E+00 0. -1.
         11    1    3    3    0    0 -0.18144358591E+02 -0.26288358950E+01 -0.57064643009E+01  0.19201360939E+02  0.51100000000E-03 0.  1.
        -11    1    3    3    0    0 -0.12595920727E+02 -0.19049754844E+02 -0.50228674283E+00  0.22843000477E+02  0.51100000000E-03 0. -1.
        -12    1    3    3    0    0 -0.33807182730E+01 -0.45813657284E+01  0.75026844450E+00  0.57429148276E+01  0.00000000000E+00 0.  1.
</event>
<event>
 7    1  0.4876728E-009  0.4778727E+02  0.7816164E-02  0.1312668E+00
        -11   -1    0    0    0    0  0.00000000000E+00  0.00000000000E+00  0.45593999997E+02  0.45594000000E+02  0.51100000000E-03 0.  1.
         11   -1    0    0    0    0 -0.00000000000E+00 -0.00000000000E+00 -0.45593999997E+02  0.45594000000E+02  0.51100000000E-03 0. -1.
    9900012    2    1    2    0    0  0.60432209345E+01 -0.42957753548E+02 -0.13167966505E+01  0.47787273478E+02  0.20000011097E+02 0.  0.
         12    1    1    2    0    0 -0.60432209345E+01  0.42957753548E+02  0.13167966505E+01  0.43400726522E+02  0.00000000000E+00 0. -1.
         11    1    3    3    0    0  0.89911007054E+01 -0.36071035391E+02  0.12610548859E+01  0.37196098529E+02  0.51100000000E-03 0.  1.
        -11    1    3    3    0    0 -0.50618272871E+01 -0.53980311236E+01 -0.29743176922E+01  0.79754248471E+01  0.51100000000E-03 0. -1.
         12    1    3    3    0    0  0.21139475163E+01 -0.14886870338E+01  0.39646615573E+00  0.26157501025E+01  0.00000000000E+00 0. -1.
</event>
<event>
 7    1  0.4876728E-009  0.4778727E+02  0.7816164E-02  0.1312668E+00
        -11   -1    0    0    0    0  0.00000000000E+00  0.00000000000E+00  0.45593999997E+02  0.45594000000E+02  0.51100000000E-03 0. -1.
         11   -1    0    0    0    0 -0.00000000000E+00 -0.00000000000E+00 -0.45593999997E+02  0.45594000000E+02  0.51100000000E-03 0.  1.
    9900012    2    1    2    0    0 -0.98779897509E+01  0.38330392848E+02 -0.17799707632E+02  0.47787270868E+02  0.19999999196E+02 0.  0.
         12    1    1    2    0    0  0.98779897509E+01 -0.38330392848E+02  0.17799707632E+02  0.43400729132E+02  0.00000000000E+00 0. -1.
         11    1    3    3    0    0 -0.29434525603E+01  0.26226907609E+02 -0.14898116073E+02  0.30306244547E+02  0.51100000000E-03 0. -1.
        -11    1    3    3    0    0 -0.34977727046E+00 -0.13157990810E+01 -0.21114818343E+01  0.25123748045E+01  0.51100000000E-03 0.  1.
        -12    1    3    3    0    0 -0.65847599201E+01  0.13419284320E+02 -0.79010972407E+00  0.14968651517E+02  0.00000000000E+00 0.  1.
</event>
<event>
 7    1  0.4876728E-009  0.4778727E+02  0.7816164E-02  0.1312668E+00
        -11   -1    0    0    0    0  0.00000000000E+00  0.00000000000E+00  0.45593999997E+02  0.45594000000E+02  0.51100000000E-03 0. -1.
         11   -1    0    0    0    0 -0.00000000000E+00 -0.00000000000E+00 -0.45593999997E+02  0.45594000000E+02  0.51100000000E-03 0.  1.
    9900012    2    1    2    0    0  0.10993010872E+02  0.38785650678E+02 -0.16076394637E+02  0.47787269003E+02  0.19999990691E+02 0.  0.
         12    1    1    2    0    0 -0.10993010872E+02 -0.38785650678E+02  0.16076394637E+02  0.43400730997E+02  0.00000000000E+00 0. -1.
         11    1    3    3    0    0 -0.29784317804E+01  0.14228481786E+02 -0.10006293980E+02  0.17647851691E+02  0.51100000000E-03 0. -1.
        -11    1    3    3    0    0  0.18208714005E+01  0.12902262516E+01 -0.29603584709E+01  0.37072872798E+01  0.51100000000E-03 0.  1.
         12    1    3    3    0    0  0.12150571252E+02  0.23266942640E+02 -0.31097421860E+01  0.26432130032E+02  0.00000000000E+00 0. -1.
</event>
<event>
 7    1  0.4876728E-009  0.4778727E+02  0.7816164E-02  0.1312668E+00
        -11   -1    0    0    0    0  0.00000000000E+00  0.00000000000E+00  0.45593999997E+02  0.45594000000E+02  0.51100000000E-03 0.  1.
         11   -1    0    0    0    0 -0.00000000000E+00 -0.00000000000E+00 -0.45593999997E+02  0.45594000000E+02  0.51100000000E-03 0. -1.
    9900012    2    1    2    0    0 -0.67678224539E+01  0.39171791275E+02  0.17418109178E+02  0.47787272128E+02  0.20000004942E+02 0.  0.
         12    1    1    2    0    0  0.67678224539E+01 -0.39171791275E+02 -0.17418109178E+02  0.43400727872E+02  0.00000000000E+00 0. -1.
         11    1    3    3    0    0 -0.48155159860E+01  0.34833169755E+01  0.18858786855E+01  0.62353211658E+01  0.51100000000E-03 0. -1.
        -11    1    3    3    0    0  0.25550394580E+01  0.30531332080E+02  0.86349699688E+01  0.31831637907E+02  0.51100000000E-03 0.  1.
        -12    1    3    3    0    0 -0.45073459260E+01  0.51571422194E+01  0.68972605237E+01  0.97203130556E+01  0.00000000000E+00 0.  1.
</event>
<event>
 7    1  0.4876728E-009  0.4778727E+02  0.7816164E-02  0.1312668E+00
        -11   -1    0    0    0    0  0.00000000000E+00  0.00000000000E+00  0.45593999997E+02  0.45594000000E+02  0.51100000000E-03 0.  1.
         11   -1    0    0    0    0 -0.00000000000E+00 -0.00000000000E+00 -0.45593999997E+02  0.45594000000E+02  0.51100000000E-03 0. -1.
    9900012    2    1    2    0    0  0.42508879717E+02  0.56059822559E+01 -0.67224600686E+01  0.47787270038E+02  0.19999995411E+02 0.  0.
         12    1    1    2    0    0 -0.42508879717E+02 -0.56059822559E+01  0.67224600686E+01  0.43400729962E+02  0.00000000000E+00 0. -1.
         11    1    3    3    0    0  0.30888526398E+02 -0.37162804113E+00 -0.52194884530E+01  0.31328616797E+02  0.51100000000E-03 0. -1.
        -11    1    3    3    0    0  0.45298426472E+00  0.51498963155E+01 -0.78165472012E-01  0.51703710608E+01  0.51100000000E-03 0.  1.
        -12    1    3    3    0    0  0.11167369055E+02  0.82771398159E+00 -0.14248061436E+01  0.11288282180E+02  0.00000000000E+00 0.  1.
</event>
<event>
 7    1  0.4876728E-009  0.4778725E+02  0.7816164E-02  0.1312668E+00
        -11   -1    0    0    0    0  0.00000000000E+00  0.00000000000E+00  0.45593999997E+02  0.45594000000E+02  0.51100000000E-03 0.  1.
         11   -1    0    0    0    0 -0.00000000000E+00 -0.00000000000E+00 -0.45593999997E+02  0.45594000000E+02  0.51100000000E-03 0. -1.
    9900012    2    1    2    0    0  0.13163756455E+02 -0.30436665325E+02  0.27999102985E+02  0.47787252909E+02  0.19999917313E+02 0.  0.
         12    1    1    2    0    0 -0.13163756455E+02  0.30436665325E+02 -0.27999102985E+02  0.43400747091E+02  0.00000000000E+00 0. -1.
         11    1    3    3    0    0  0.66456596179E+01 -0.19833042297E+02  0.22973701215E+02  0.31069362824E+02  0.51100000000E-03 0.  1.
        -11    1    3    3    0    0  0.91186173869E+01 -0.84833706539E+01  0.30439020244E+01  0.12821158313E+02  0.51100000000E-03 0. -1.
         12    1    3    3    0    0 -0.26005205497E+01 -0.21202523746E+01  0.19814997447E+01  0.38967317716E+01  0.00000000000E+00 0. -1.
</event>
<event>
 7    1  0.4876728E-009  0.4778728E+02  0.7816164E-02  0.1312668E+00
        -11   -1    0    0    0    0  0.00000000000E+00  0.00000000000E+00  0.45593999997E+02  0.45594000000E+02  0.51100000000E-03 0. -1.
         11   -1    0    0    0    0 -0.00000000000E+00 -0.00000000000E+00 -0.45593999997E+02  0.45594000000E+02  0.51100000000E-03 0.  1.
    9900012    2    1    2    0    0 -0.11057591343E+02  0.40122259942E+02 -0.12310840937E+02  0.47787275654E+02  0.20000021018E+02 0.  0.
         12    1    1    2    0    0  0.11057591343E+02 -0.40122259942E+02  0.12310840937E+02  0.43400724346E+02  0.00000000000E+00 0. -1.
         11    1    3    3    0    0 -0.48162121277E+00  0.10965588927E+02  0.41595195239E+01  0.11737874698E+02  0.51100000000E-03 0. -1.
        -11    1    3    3    0    0  0.40744826342E+00  0.77037090965E+01 -0.21240141076E+01  0.80015363600E+01  0.51100000000E-03 0.  1.
         12    1    3    3    0    0 -0.10983418393E+02  0.21452961919E+02 -0.14346346354E+02  0.28047864596E+02  0.00000000000E+00 0. -1.
</event>
<event>
 7    1  0.4876728E-009  0.4778727E+02  0.7816164E-02  0.1312668E+00
        -11   -1    0    0    0    0  0.00000000000E+00  0.00000000000E+00  0.45593999997E+02  0.45594000000E+02  0.51100000000E-03 0.  1.
         11   -1    0    0    0    0 -0.00000000000E+00 -0.00000000000E+00 -0.45593999997E+02  0.45594000000E+02  0.51100000000E-03 0. -1.
    9900012    2    1    2    0    0 -0.11918202930E+02  0.34901353231E+02  0.22879584478E+02  0.47787269542E+02  0.19999993148E+02 0.  0.
         12    1    1    2    0    0  0.11918202930E+02 -0.34901353231E+02 -0.22879584478E+02  0.43400730458E+02  0.00000000000E+00 0. -1.
         11    1    3    3    0    0 -0.16068223868E+01  0.21661817512E+02  0.67121937975E+01  0.22734769890E+02  0.51100000000E-03 0. -1.
        -11    1    3    3    0    0 -0.11015493327E+02  0.76713752504E+01  0.12541508415E+02  0.18370643022E+02  0.51100000000E-03 0.  1.
        -12    1    3    3    0    0  0.70411278339E+00  0.55681604682E+01  0.36258822651E+01  0.66818566290E+01  0.00000000000E+00 0.  1.
</event>
<event>
 7    1  0.4876728E-009  0.4778727E+02  0.7816164E-02  0.1312668E+00
        -11   -1    0    0    0    0  0.00000000000E+00  0.00000000000E+00  0.45593999997E+02  0.45594000000E+02  0.51100000000E-03 0.  1.
         11   -1    0    0    0    0 -0.00000000000E+00 -0.00000000000E+00 -0.45593999997E+02  0.45594000000E+02  0.51100000000E-03 0. -1.
    9900012    2    1    2    0    0  0.29240512086E+02 -0.50183190550E+01  0.31676997030E+02  0.47787271734E+02  0.20000003142E+02 0.  0.
         12    1    1    2    0    0 -0.29240512086E+02  0.50183190550E+01 -0.31676997030E+02  0.43400728266E+02  0.00000000000E+00 0. -1.
         11    1    3    3    0    0  0.35368649650E+01  0.28917562130E+01  0.14791152784E+01  0.48020256189E+01  0.51100000000E-03 0. -1.
        -11    1    3    3    0    0  0.27549319710E+02 -0.70973947959E+01  0.27112008651E+02  0.39298842766E+02  0.51100000000E-03 0.  1.
        -12    1    3    3    0    0 -0.18456725892E+01 -0.81268047204E+00  0.30858731006E+01  0.36864033487E+01  0.00000000000E+00 0.  1.
</event>
<event>
 7    1  0.4876728E-009  0.4778727E+02  0.7816164E-02  0.1312668E+00
        -11   -1    0    0    0    0  0.00000000000E+00  0.00000000000E+00  0.45593999997E+02  0.45594000000E+02  0.51100000000E-03 0.  1.
         11   -1    0    0    0    0 -0.00000000000E+00 -0.00000000000E+00 -0.45593999997E+02  0.45594000000E+02  0.51100000000E-03 0. -1.
    9900012    2    1    2    0    0 -0.30021640208E+02 -0.19427864242E+01  0.31281782513E+02  0.47787271699E+02  0.20000002985E+02 0.  0.
         12    1    1    2    0    0  0.30021640208E+02  0.19427864242E+01 -0.31281782513E+02  0.43400728301E+02  0.00000000000E+00 0. -1.
         11    1    3    3    0    0 -0.16292565215E+02 -0.95554407226E+01  0.16405525529E+02  0.25017901528E+02  0.51100000000E-03 0. -1.
        -11    1    3    3    0    0 -0.13827794014E+02  0.51233790877E+01  0.12694874490E+02  0.19458076451E+02  0.51100000000E-03 0.  1.
         12    1    3    3    0    0  0.98719021923E-01  0.24892752107E+01  0.21813824938E+01  0.33112937206E+01  0.00000000000E+00 0. -1.
</event>
<event>
 7    1  0.4876728E-009  0.4778727E+02  0.7816164E-02  0.1312668E+00
        -11   -1    0    0    0    0  0.00000000000E+00  0.00000000000E+00  0.45593999997E+02  0.45594000000E+02  0.51100000000E-03 0. -1.
         11   -1    0    0    0    0 -0.00000000000E+00 -0.00000000000E+00 -0.45593999997E+02  0.45594000000E+02  0.51100000000E-03 0.  1.
    9900012    2    1    2    0    0  0.36746906198E+02  0.22936451912E+02  0.26845915662E+01  0.47787274507E+02  0.20000015786E+02 0.  0.
         12    1    1    2    0    0 -0.36746906198E+02 -0.22936451912E+02 -0.26845915662E+01  0.43400725493E+02  0.00000000000E+00 0. -1.
         11    1    3    3    0    0  0.80026631964E+01 -0.12930499081E+01  0.12666902662E+01  0.82048218013E+01  0.51100000000E-03 0. -1.
        -11    1    3    3    0    0  0.21183119354E+02  0.15518009591E+02 -0.44615763737E+01  0.26635292964E+02  0.51100000000E-03 0.  1.
        -12    1    3    3    0    0  0.75611236474E+01  0.87114922291E+01  0.58794776737E+01  0.12947159742E+02  0.00000000000E+00 0.  1.
</event>
<event>
 7    1  0.4876728E-009  0.4778729E+02  0.7816164E-02  0.1312668E+00
        -11   -1    0    0    0    0  0.00000000000E+00  0.00000000000E+00  0.45593999997E+02  0.45594000000E+02  0.51100000000E-03 0.  1.
         11   -1    0    0    0    0 -0.00000000000E+00 -0.00000000000E+00 -0.45593999997E+02  0.45594000000E+02  0.51100000000E-03 0. -1.
    9900012    2    1    2    0    0  0.27439585086E+02  0.33297077437E+02 -0.46899674534E+01  0.47787285832E+02  0.20000067423E+02 0.  0.
         12    1    1    2    0    0 -0.27439585086E+02 -0.33297077437E+02  0.46899674534E+01  0.43400714168E+02  0.00000000000E+00 0. -1.
         11    1    3    3    0    0  0.15493945624E+02  0.86425627613E+01  0.13573629704E+01  0.17793219961E+02  0.51100000000E-03 0. -1.
        -11    1    3    3    0    0  0.10252924990E+01  0.14194436248E+02 -0.23144038444E+01  0.14418380995E+02  0.51100000000E-03 0.  1.
        -12    1    3    3    0    0  0.10920346962E+02  0.10460078428E+02 -0.37329265794E+01  0.15575684876E+02  0.00000000000E+00 0.  1.
</event>
<event>
 7    1  0.4876728E-009  0.4778728E+02  0.7816164E-02  0.1312668E+00
        -11   -1    0    0    0    0  0.00000000000E+00  0.00000000000E+00  0.45593999997E+02  0.45594000000E+02  0.51100000000E-03 0.  1.
         11   -1    0    0    0    0 -0.00000000000E+00 -0.00000000000E+00 -0.45593999997E+02  0.45594000000E+02  0.51100000000E-03 0. -1.
    9900012    2    1    2    0    0 -0.27854575902E+02 -0.24222347245E+02 -0.22825933121E+02  0.47787277338E+02  0.20000028695E+02 0.  0.
         12    1    1    2    0    0  0.27854575902E+02  0.24222347245E+02  0.22825933121E+02  0.43400722662E+02  0.00000000000E+00 0. -1.
         11    1    3    3    0    0 -0.48826689493E+01  0.24176112531E+00 -0.43847696338E+01  0.65669711064E+01  0.51100000000E-03 0. -1.
        -11    1    3    3    0    0 -0.24388788666E+02 -0.20456699414E+02 -0.18775174925E+02  0.36956687585E+02  0.51100000000E-03 0.  1.
        -12    1    3    3    0    0  0.14168817128E+01 -0.40074089555E+01  0.33401143799E+00  0.42636186468E+01  0.00000000000E+00 0.  1.
</event>
<event>
 7    1  0.4876728E-009  0.4778727E+02  0.7816164E-02  0.1312668E+00
        -11   -1    0    0    0    0  0.00000000000E+00  0.00000000000E+00  0.45593999997E+02  0.45594000000E+02  0.51100000000E-03 0.  1.
         11   -1    0    0    0    0 -0.00000000000E+00 -0.00000000000E+00 -0.45593999997E+02  0.45594000000E+02  0.51100000000E-03 0. -1.
    9900012    2    1    2    0    0 -0.31875840187E+01 -0.20699508456E+01  0.43233987232E+02  0.47787273734E+02  0.20000012265E+02 0.  0.
         12    1    1    2    0    0  0.31875840187E+01  0.20699508456E+01 -0.43233987232E+02  0.43400726266E+02  0.00000000000E+00 0. -1.
         11    1    3    3    0    0  0.12642347242E+01  0.20362586909E+01  0.38140484868E+00  0.24269546378E+01  0.51100000000E-03 0. -1.
        -11    1    3    3    0    0 -0.83802297502E+01 -0.54536796732E+01  0.23021218091E+02  0.25098752067E+02  0.51100000000E-03 0.  1.
        -12    1    3    3    0    0  0.39284110073E+01  0.13474701367E+01  0.19831364292E+02  0.20261567030E+02  0.00000000000E+00 0.  1.
</event>
<event>
 7    1  0.4876728E-009  0.4778727E+02  0.7816164E-02  0.1312668E+00
        -11   -1    0    0    0    0  0.00000000000E+00  0.00000000000E+00  0.45593999997E+02  0.45594000000E+02  0.51100000000E-03 0.  1.
         11   -1    0    0    0    0 -0.00000000000E+00 -0.00000000000E+00 -0.45593999997E+02  0.45594000000E+02  0.51100000000E-03 0. -1.
    9900012    2    1    2    0    0  0.21848585865E+02 -0.23787485161E+02  0.28989966236E+02  0.47787270779E+02  0.19999998788E+02 0.  0.
         12    1    1    2    0    0 -0.21848585865E+02  0.23787485161E+02 -0.28989966236E+02  0.43400729221E+02  0.00000000000E+00 0. -1.
         11    1    3    3    0    0 -0.78753486463E+00 -0.59168238970E+01  0.16229560058E+01  0.61857095510E+01  0.51100000000E-03 0. -1.
        -11    1    3    3    0    0  0.16777790789E+02 -0.55195930841E+01  0.15339477200E+02  0.23393583150E+02  0.51100000000E-03 0.  1.
        -12    1    3    3    0    0  0.58583299411E+01 -0.12351068180E+02  0.12027533029E+02  0.18207978077E+02  0.00000000000E+00 0.  1.
</event>
<event>
 7    1  0.4876728E-009  0.4778727E+02  0.7816164E-02  0.1312668E+00
        -11   -1    0    0    0    0  0.00000000000E+00  0.00000000000E+00  0.45593999997E+02  0.45594000000E+02  0.51100000000E-03 0. -1.
         11   -1    0    0    0    0 -0.00000000000E+00 -0.00000000000E+00 -0.45593999997E+02  0.45594000000E+02  0.51100000000E-03 0.  1.
    9900012    2    1    2    0    0 -0.17430630064E+02 -0.27702791305E+02 -0.28501784651E+02  0.47787271449E+02  0.20000001843E+02 0.  0.
         12    1    1    2    0    0  0.17430630064E+02  0.27702791305E+02  0.28501784651E+02  0.43400728551E+02  0.00000000000E+00 0. -1.
         11    1    3    3    0    0 -0.45321158267E+01  0.17561782220E+01 -0.49501067607E+01  0.69374197665E+01  0.51100000000E-03 0. -1.
        -11    1    3    3    0    0 -0.38406151887E+01 -0.22382431547E+01 -0.15919044030E+01  0.47216752680E+01  0.51100000000E-03 0.  1.
         12    1    3    3    0    0 -0.90578990484E+01 -0.27220726372E+02 -0.21959773487E+02  0.36128176414E+02  0.00000000000E+00 0. -1.
</event>
<event>
 7    1  0.4876728E-009  0.4778726E+02  0.7816164E-02  0.1312668E+00
        -11   -1    0    0    0    0  0.00000000000E+00  0.00000000000E+00  0.45593999997E+02  0.45594000000E+02  0.51100000000E-03 0.  1.
         11   -1    0    0    0    0 -0.00000000000E+00 -0.00000000000E+00 -0.45593999997E+02  0.45594000000E+02  0.51100000000E-03 0. -1.
    9900012    2    1    2    0    0  0.16294173444E+02  0.28727131061E+02  0.28158057670E+02  0.47787258543E+02  0.19999943002E+02 0.  0.
         12    1    1    2    0    0 -0.16294173444E+02 -0.28727131061E+02 -0.28158057670E+02  0.43400741457E+02  0.00000000000E+00 0. -1.
         11    1    3    3    0    0  0.17364031118E+01  0.16334145376E+02  0.40772927247E+01  0.16924648213E+02  0.51100000000E-03 0. -1.
        -11    1    3    3    0    0  0.10841360368E+02  0.82035261532E+01  0.15517945080E+02  0.20631033803E+02  0.51100000000E-03 0.  1.
         12    1    3    3    0    0  0.37164099635E+01  0.41894595326E+01  0.85628198650E+01  0.10231576527E+02  0.00000000000E+00 0. -1.
</event>
<event>
 7    1  0.4876728E-009  0.4778727E+02  0.7816164E-02  0.1312668E+00
        -11   -1    0    0    0    0  0.00000000000E+00  0.00000000000E+00  0.45593999997E+02  0.45594000000E+02  0.51100000000E-03 0. -1.
         11   -1    0    0    0    0 -0.00000000000E+00 -0.00000000000E+00 -0.45593999997E+02  0.45594000000E+02  0.51100000000E-03 0.  1.
    9900012    2    1    2    0    0 -0.40041563039E+02 -0.74630032726E+01 -0.14986658970E+02  0.47787272638E+02  0.20000007267E+02 0.  0.
         12    1    1    2    0    0  0.40041563039E+02  0.74630032726E+01  0.14986658970E+02  0.43400727362E+02  0.00000000000E+00 0. -1.
         11    1    3    3    0    0  0.83723888357E+00  0.12085373296E+01  0.12732628764E+01  0.19449241730E+01  0.51100000000E-03 0. -1.
        -11    1    3    3    0    0 -0.15958994698E+02 -0.34173138220E+01 -0.11418445034E+02  0.19918544947E+02  0.51100000000E-03 0.  1.
         12    1    3    3    0    0 -0.24919807224E+02 -0.52542267802E+01 -0.48414768128E+01  0.25923803519E+02  0.00000000000E+00 0. -1.
</event>
<event>
 7    1  0.4876728E-009  0.4778727E+02  0.7816164E-02  0.1312668E+00
        -11   -1    0    0    0    0  0.00000000000E+00  0.00000000000E+00  0.45593999997E+02  0.45594000000E+02  0.51100000000E-03 0. -1.
         11   -1    0    0    0    0 -0.00000000000E+00 -0.00000000000E+00 -0.45593999997E+02  0.45594000000E+02  0.51100000000E-03 0.  1.
    9900012    2    1    2    0    0  0.25388350229E+01 -0.26445397498E+02 -0.34319365130E+02  0.47787267805E+02  0.19999985232E+02 0.  0.
         12    1    1    2    0    0 -0.25388350229E+01  0.26445397498E+02  0.34319365130E+02  0.43400732195E+02  0.00000000000E+00 0. -1.
         11    1    3    3    0    0  0.36203882212E+01 -0.11495446543E+02 -0.21589910204E+01  0.12243926844E+02  0.51100000000E-03 0. -1.
        -11    1    3    3    0    0 -0.10503005683E+01 -0.67089162208E+01 -0.16603044695E+02  0.17938054007E+02  0.51100000000E-03 0.  1.
         12    1    3    3    0    0 -0.31252630024E-01 -0.82410347347E+01 -0.15557329415E+02  0.17605286954E+02  0.00000000000E+00 0. -1.
</event>
<event>
 7    1  0.4876728E-009  0.4778727E+02  0.7816164E-02  0.1312668E+00
        -11   -1    0    0    0    0  0.00000000000E+00  0.00000000000E+00  0.45593999997E+02  0.45594000000E+02  0.51100000000E-03 0. -1.
         11   -1    0    0    0    0 -0.00000000000E+00 -0.00000000000E+00 -0.45593999997E+02  0.45594000000E+02  0.51100000000E-03 0.  1.
    9900012    2    1    2    0    0  0.64961343368E+00 -0.18620255911E+02 -0.39198055956E+02  0.47787268226E+02  0.19999987148E+02 0.  0.
         12    1    1    2    0    0 -0.64961343368E+00  0.18620255911E+02  0.39198055956E+02  0.43400731774E+02  0.00000000000E+00 0. -1.
         11    1    3    3    0    0 -0.51516812463E+01 -0.25856471805E+01 -0.59428150664E+01  0.82790363074E+01  0.51100000000E-03 0. -1.
        -11    1    3    3    0    0  0.85021702805E+01 -0.10629410547E+02 -0.29241354279E+02  0.32254117077E+02  0.51100000000E-03 0.  1.
        -12    1    3    3    0    0 -0.27008756006E+01 -0.54051981834E+01 -0.40138866108E+01  0.72541148417E+01  0.00000000000E+00 0.  1.
</event>
<event>
 7    1  0.4876728E-009  0.4778727E+02  0.7816164E-02  0.1312668E+00
        -11   -1    0    0    0    0  0.00000000000E+00  0.00000000000E+00  0.45593999997E+02  0.45594000000E+02  0.51100000000E-03 0. -1.
         11   -1    0    0    0    0 -0.00000000000E+00 -0.00000000000E+00 -0.45593999997E+02  0.45594000000E+02  0.51100000000E-03 0.  1.
    9900012    2    1    2    0    0  0.28728167164E+02 -0.30440925040E+02 -0.11474574835E+02  0.47787269896E+02  0.19999994764E+02 0.  0.
         12    1    1    2    0    0 -0.28728167164E+02  0.30440925040E+02  0.11474574835E+02  0.43400730104E+02  0.00000000000E+00 0. -1.
         11    1    3    3    0    0 -0.70956983911E+00  0.12830293815E+00  0.27953847255E+01  0.28868888141E+01  0.51100000000E-03 0. -1.
        -11    1    3    3    0    0  0.96479748202E+01 -0.12279952148E+02 -0.56793977342E+01  0.16617346412E+02  0.51100000000E-03 0.  1.
         12    1    3    3    0    0  0.19789762183E+02 -0.18289275830E+02 -0.85905618264E+01  0.28283034670E+02  0.00000000000E+00 0. -1.
</event>
<event>
 7    1  0.4876728E-009  0.4778727E+02  0.7816164E-02  0.1312668E+00
        -11   -1    0    0    0    0  0.00000000000E+00  0.00000000000E+00  0.45593999997E+02  0.45594000000E+02  0.51100000000E-03 0.  1.
         11   -1    0    0    0    0 -0.00000000000E+00 -0.00000000000E+00 -0.45593999997E+02  0.45594000000E+02  0.51100000000E-03 0. -1.
    9900012    2    1    2    0    0 -0.13763789212E+02  0.22489138075E+02  0.34473471358E+02  0.47787268988E+02  0.19999990626E+02 0.  0.
         12    1    1    2    0    0  0.13763789212E+02 -0.22489138075E+02 -0.34473471358E+02  0.43400731012E+02  0.00000000000E+00 0. -1.
         11    1    3    3    0    0 -0.11628589327E+01 -0.27159151316E+01  0.44219715046E+01  0.53181075720E+01  0.51100000000E-03 0. -1.
        -11    1    3    3    0    0 -0.10310088897E+02  0.20763859230E+02  0.17769411344E+02  0.29209377997E+02  0.51100000000E-03 0.  1.
        -12    1    3    3    0    0 -0.22908413824E+01  0.44411939770E+01  0.12282088509E+02  0.13259783420E+02  0.00000000000E+00 0.  1.
</event>
<event>
 7    1  0.4876728E-009  0.4778727E+02  0.7816164E-02  0.1312668E+00
        -11   -1    0    0    0    0  0.00000000000E+00  0.00000000000E+00  0.45593999997E+02  0.45594000000E+02  0.51100000000E-03 0.  1.
         11   -1    0    0    0    0 -0.00000000000E+00 -0.00000000000E+00 -0.45593999997E+02  0.45594000000E+02  0.51100000000E-03 0. -1.
    9900012    2    1    2    0    0  0.93485844135E+01 -0.85800903665E+01  0.41504328262E+02  0.47787271369E+02  0.20000001479E+02 0.  0.
         12    1    1    2    0    0 -0.93485844135E+01  0.85800903665E+01 -0.41504328262E+02  0.43400728631E+02  0.00000000000E+00 0. -1.
         11    1    3    3    0    0  0.12322538138E+02 -0.60777168371E+01  0.24837295853E+02  0.28384412160E+02  0.51100000000E-03 0. -1.
        -11    1    3    3    0    0 -0.55257391327E+01 -0.27482449620E+01  0.66902897979E+01  0.91020119301E+01  0.51100000000E-03 0.  1.
        -12    1    3    3    0    0  0.25517854078E+01  0.24587143259E+00  0.99767426109E+01  0.10300847278E+02  0.00000000000E+00 0.  1.
</event>
<event>
 7    1  0.4876728E-009  0.4778727E+02  0.7816164E-02  0.1312668E+00
        -11   -1    0    0    0    0  0.00000000000E+00  0.00000000000E+00  0.45593999997E+02  0.45594000000E+02  0.51100000000E-03 0.  1.
         11   -1    0    0    0    0 -0.00000000000E+00 -0.00000000000E+00 -0.45593999997E+02  0.45594000000E+02  0.51100000000E-03 0. -1.
    9900012    2    1    2    0    0  0.43441108888E+01 -0.32707942210E+02  0.28194728343E+02  0.47787268562E+02  0.19999988683E+02 0.  0.
         12    1    1    2    0    0 -0.43441108888E+01  0.32707942210E+02 -0.28194728343E+02  0.43400731438E+02  0.00000000000E+00 0. -1.
         11    1    3    3    0    0 -0.35271448383E+01  0.96576438316E-01  0.70385639759E+01  0.78734656170E+01  0.51100000000E-03 0. -1.
        -11    1    3    3    0    0  0.67264782167E+01 -0.30373078794E+02  0.20032126202E+02  0.37000750061E+02  0.51100000000E-03 0.  1.
         12    1    3    3    0    0  0.11447775104E+01 -0.24314398538E+01  0.11240381646E+01  0.29130528842E+01  0.00000000000E+00 0. -1.
</event>
<event>
 7    1  0.4876728E-009  0.4778727E+02  0.7816164E-02  0.1312668E+00
        -11   -1    0    0    0    0  0.00000000000E+00  0.00000000000E+00  0.45593999997E+02  0.45594000000E+02  0.51100000000E-03 0.  1.
         11   -1    0    0    0    0 -0.00000000000E+00 -0.00000000000E+00 -0.45593999997E+02  0.45594000000E+02  0.51100000000E-03 0. -1.
    9900012    2    1    2    0    0  0.24830908117E+02  0.25462723099E+02  0.24873659133E+02  0.47787272077E+02  0.20000004709E+02 0.  0.
         12    1    1    2    0    0 -0.24830908117E+02 -0.25462723099E+02 -0.24873659133E+02  0.43400727923E+02  0.00000000000E+00 0. -1.
         11    1    3    3    0    0  0.35940539525E+01  0.25056999586E+01 -0.28703443666E+01  0.52378080473E+01  0.51100000000E-03 0. -1.
        -11    1    3    3    0    0  0.21293478533E+02  0.21708135859E+02  0.27926391081E+02  0.41286059507E+02  0.51100000000E-03 0.  1.
        -12    1    3    3    0    0 -0.56624368007E-01  0.12488872810E+01 -0.18238758139E+00  0.12634045233E+01  0.00000000000E+00 0.  1.
</event>
<event>
 7    1  0.4876728E-009  0.4778727E+02  0.7816164E-02  0.1312668E+00
        -11   -1    0    0    0    0  0.00000000000E+00  0.00000000000E+00  0.45593999997E+02  0.45594000000E+02  0.51100000000E-03 0.  1.
         11   -1    0    0    0    0 -0.00000000000E+00 -0.00000000000E+00 -0.45593999997E+02  0.45594000000E+02  0.51100000000E-03 0. -1.
    9900012    2    1    2    0    0 -0.27824405054E+02 -0.16753021837E+02  0.28788228653E+02  0.47787269981E+02  0.19999995150E+02 0.  0.
         12    1    1    2    0    0  0.27824405054E+02  0.16753021837E+02 -0.28788228653E+02  0.43400730019E+02  0.00000000000E+00 0. -1.
         11    1    3    3    0    0 -0.19334445813E+02 -0.46293199549E+00  0.15648154330E+02  0.24877697545E+02  0.51100000000E-03 0. -1.
        -11    1    3    3    0    0 -0.44603524146E+01 -0.11105384850E+02  0.67160085965E+01  0.13723304561E+02  0.51100000000E-03 0.  1.
         12    1    3    3    0    0 -0.40296068256E+01 -0.51847049908E+01  0.64240657267E+01  0.91862678750E+01  0.00000000000E+00 0. -1.
</event>
<event>
 7    1  0.4876728E-009  0.4778727E+02  0.7816164E-02  0.1312668E+00
        -11   -1    0    0    0    0  0.00000000000E+00  0.00000000000E+00  0.45593999997E+02  0.45594000000E+02  0.51100000000E-03 0.  1.
         11   -1    0    0    0    0 -0.00000000000E+00 -0.00000000000E+00 -0.45593999997E+02  0.45594000000E+02  0.51100000000E-03 0. -1.
    9900012    2    1    2    0    0  0.42833431701E+02  0.21569982199E+01 -0.66534140674E+01  0.47787269230E+02  0.19999991729E+02 0.  0.
         12    1    1    2    0    0 -0.42833431701E+02 -0.21569982199E+01  0.66534140674E+01  0.43400730770E+02  0.00000000000E+00 0. -1.
         11    1    3    3    0    0  0.27669085317E+02 -0.65693496336E+01 -0.90328946087E+01  0.29838361587E+02  0.51100000000E-03 0. -1.
        -11    1    3    3    0    0  0.46033896973E+01  0.24193001111E+01  0.22001782338E+01  0.56466799320E+01  0.51100000000E-03 0.  1.
         12    1    3    3    0    0  0.10560956686E+02  0.63070477424E+01  0.17930230742E+00  0.12302227712E+02  0.00000000000E+00 0. -1.
</event>
<event>
 7    1  0.4876728E-009  0.4778727E+02  0.7816164E-02  0.1312668E+00
        -11   -1    0    0    0    0  0.00000000000E+00  0.00000000000E+00  0.45593999997E+02  0.45594000000E+02  0.51100000000E-03 0.  1.
         11   -1    0    0    0    0 -0.00000000000E+00 -0.00000000000E+00 -0.45593999997E+02  0.45594000000E+02  0.51100000000E-03 0. -1.
    9900012    2    1    2    0    0 -0.12597196003E+02 -0.20111231806E+02  0.36338302679E+02  0.47787271510E+02  0.20000002122E+02 0.  0.
         12    1    1    2    0    0  0.12597196003E+02  0.20111231806E+02 -0.36338302679E+02  0.43400728490E+02  0.00000000000E+00 0. -1.
         11    1    3    3    0    0  0.70669863211E+00 -0.13564766173E+02  0.15201518356E+02  0.20385986973E+02  0.51100000000E-03 0. -1.
        -11    1    3    3    0    0 -0.12009350448E+02 -0.80929494891E+01  0.20817773038E+02  0.25359416478E+02  0.51100000000E-03 0.  1.
         12    1    3    3    0    0 -0.12945441878E+01  0.15464838556E+01  0.31901128540E+00  0.20418680590E+01  0.00000000000E+00 0. -1.
</event>
<event>
 7    1  0.4876728E-009  0.4778727E+02  0.7816164E-02  0.1312668E+00
        -11   -1    0    0    0    0  0.00000000000E+00  0.00000000000E+00  0.45593999997E+02  0.45594000000E+02  0.51100000000E-03 0. -1.
         11   -1    0    0    0    0 -0.00000000000E+00 -0.00000000000E+00 -0.45593999997E+02  0.45594000000E+02  0.51100000000E-03 0.  1.
    9900012    2    1    2    0    0  0.26261492588E+02 -0.34553080720E+02  0.20477803872E+00  0.47787270580E+02  0.19999997882E+02 0.  0.
         12    1    1    2    0    0 -0.26261492588E+02  0.34553080720E+02 -0.20477803872E+00  0.43400729420E+02  0.00000000000E+00 0. -1.
         11    1    3    3    0    0  0.64601727356E+01 -0.12416838069E+01 -0.18191295816E+01  0.68253090147E+01  0.51100000000E-03 0. -1.
        -11    1    3    3    0    0  0.46640409748E+01 -0.19562530574E+02  0.36841387805E+01  0.20445507074E+02  0.51100000000E-03 0.  1.
        -12    1    3    3    0    0  0.15137278877E+02 -0.13748866339E+02 -0.16602311602E+01  0.20516454492E+02  0.00000000000E+00 0.  1.
</event>
<event>
 7    1  0.4876728E-009  0.4778727E+02  0.7816164E-02  0.1312668E+00
        -11   -1    0    0    0    0  0.00000000000E+00  0.00000000000E+00  0.45593999997E+02  0.45594000000E+02  0.51100000000E-03 0.  1.
         11   -1    0    0    0    0 -0.00000000000E+00 -0.00000000000E+00 -0.45593999997E+02  0.45594000000E+02  0.51100000000E-03 0. -1.
    9900012    2    1    2    0    0  0.14245478849E+02  0.34597685668E+02  0.21992947229E+02  0.47787271331E+02  0.20000001305E+02 0.  0.
         12    1    1    2    0    0 -0.14245478849E+02 -0.34597685668E+02 -0.21992947229E+02  0.43400728669E+02  0.00000000000E+00 0. -1.
         11    1    3    3    0    0  0.10401692156E+02  0.87570413995E+01  0.65061310272E+01  0.15073510374E+02  0.51100000000E-03 0. -1.
        -11    1    3    3    0    0 -0.71652208956E+00  0.23058034377E+02  0.10287345434E+02  0.25258975228E+02  0.51100000000E-03 0.  1.
        -12    1    3    3    0    0  0.45603087825E+01  0.27826098916E+01  0.51994707676E+01  0.74547857289E+01  0.00000000000E+00 0.  1.
</event>
<event>
 7    1  0.4876728E-009  0.4778727E+02  0.7816164E-02  0.1312668E+00
        -11   -1    0    0    0    0  0.00000000000E+00  0.00000000000E+00  0.45593999997E+02  0.45594000000E+02  0.51100000000E-03 0.  1.
         11   -1    0    0    0    0 -0.00000000000E+00 -0.00000000000E+00 -0.45593999997E+02  0.45594000000E+02  0.51100000000E-03 0. -1.
    9900012    2    1    2    0    0 -0.28032914503E+02  0.15331125996E+01  0.33097257020E+02  0.47787272448E+02  0.20000006399E+02 0.  0.
         12    1    1    2    0    0  0.28032914503E+02 -0.15331125996E+01 -0.33097257020E+02  0.43400727552E+02  0.00000000000E+00 0. -1.
         11    1    3    3    0    0 -0.25617193153E+02  0.40474453562E+01  0.28313497404E+02  0.38396308865E+02  0.51100000000E-03 0. -1.
        -11    1    3    3    0    0 -0.46031460372E+01  0.16427212005E+00  0.24310009942E+01  0.52082343327E+01  0.51100000000E-03 0.  1.
         12    1    3    3    0    0  0.21874246870E+01 -0.26786048767E+01  0.23527586218E+01  0.41827292501E+01  0.00000000000E+00 0. -1.
</event>
<event>
 7    1  0.4876728E-009  0.4778727E+02  0.7816164E-02  0.1312668E+00
        -11   -1    0    0    0    0  0.00000000000E+00  0.00000000000E+00  0.45593999997E+02  0.45594000000E+02  0.51100000000E-03 0.  1.
         11   -1    0    0    0    0 -0.00000000000E+00 -0.00000000000E+00 -0.45593999997E+02  0.45594000000E+02  0.51100000000E-03 0. -1.
    9900012    2    1    2    0    0  0.15892744450E+02 -0.39727244468E+02  0.72656691930E+01  0.47787271573E+02  0.20000002411E+02 0.  0.
         12    1    1    2    0    0 -0.15892744450E+02  0.39727244468E+02 -0.72656691930E+01  0.43400728427E+02  0.00000000000E+00 0. -1.
         11    1    3    3    0    0  0.56625351930E+01 -0.11315957360E+02 -0.64927056073E+01  0.14222180640E+02  0.51100000000E-03 0. -1.
        -11    1    3    3    0    0  0.64251890211E+01 -0.22814882954E+02  0.93027045962E+01  0.25462565684E+02  0.51100000000E-03 0.  1.
         12    1    3    3    0    0  0.38050202357E+01 -0.55964041537E+01  0.44556702041E+01  0.81025252492E+01  0.00000000000E+00 0. -1.
</event>
<event>
 7    1  0.4876728E-009  0.4778727E+02  0.7816164E-02  0.1312668E+00
        -11   -1    0    0    0    0  0.00000000000E+00  0.00000000000E+00  0.45593999997E+02  0.45594000000E+02  0.51100000000E-03 0.  1.
         11   -1    0    0    0    0 -0.00000000000E+00 -0.00000000000E+00 -0.45593999997E+02  0.45594000000E+02  0.51100000000E-03 0. -1.
    9900012    2    1    2    0    0 -0.38099833314E+02  0.15597180219E+02  0.13738770852E+02  0.47787272427E+02  0.20000006302E+02 0.  0.
         12    1    1    2    0    0  0.38099833314E+02 -0.15597180219E+02 -0.13738770852E+02  0.43400727573E+02  0.00000000000E+00 0. -1.
         11    1    3    3    0    0 -0.34120619733E+01 -0.34276741752E+01  0.42318402164E+00  0.48549152555E+01  0.51100000000E-03 0. -1.
        -11    1    3    3    0    0 -0.27819225611E+02  0.10924462551E+02  0.12095372014E+02  0.32242072204E+02  0.51100000000E-03 0.  1.
        -12    1    3    3    0    0 -0.68685457298E+01  0.81003918442E+01  0.12202148164E+01  0.10690284967E+02  0.00000000000E+00 0.  1.
</event>
<event>
 7    1  0.4876728E-009  0.4778727E+02  0.7816164E-02  0.1312668E+00
        -11   -1    0    0    0    0  0.00000000000E+00  0.00000000000E+00  0.45593999997E+02  0.45594000000E+02  0.51100000000E-03 0.  1.
         11   -1    0    0    0    0 -0.00000000000E+00 -0.00000000000E+00 -0.45593999997E+02  0.45594000000E+02  0.51100000000E-03 0. -1.
    9900012    2    1    2    0    0  0.18199917337E+02 -0.38193069461E+02  0.96786154022E+01  0.47787272563E+02  0.20000006923E+02 0.  0.
         12    1    1    2    0    0 -0.18199917337E+02  0.38193069461E+02 -0.96786154022E+01  0.43400727437E+02  0.00000000000E+00 0. -1.
         11    1    3    3    0    0  0.10791270531E+02 -0.11554027403E+02 -0.45929540653E+01  0.16463362239E+02  0.51100000000E-03 0. -1.
        -11    1    3    3    0    0  0.58713834351E+01 -0.14875227879E+02  0.88849306748E+01  0.18294467504E+02  0.51100000000E-03 0.  1.
         12    1    3    3    0    0  0.15372633712E+01 -0.11763814179E+02  0.53866387927E+01  0.13029442820E+02  0.00000000000E+00 0. -1.
</event>
<event>
 7    1  0.4876728E-009  0.4778727E+02  0.7816164E-02  0.1312668E+00
        -11   -1    0    0    0    0  0.00000000000E+00  0.00000000000E+00  0.45593999997E+02  0.45594000000E+02  0.51100000000E-03 0.  1.
         11   -1    0    0    0    0 -0.00000000000E+00 -0.00000000000E+00 -0.45593999997E+02  0.45594000000E+02  0.51100000000E-03 0. -1.
    9900012    2    1    2    0    0  0.21628670785E+02  0.37392861624E+02  0.41949785687E+01  0.47787270218E+02  0.19999996234E+02 0.  0.
         12    1    1    2    0    0 -0.21628670785E+02 -0.37392861624E+02 -0.41949785687E+01  0.43400729782E+02  0.00000000000E+00 0. -1.
         11    1    3    3    0    0  0.66348512305E+01  0.64069197335E+01 -0.42384648221E+01  0.10150588930E+02  0.51100000000E-03 0. -1.
        -11    1    3    3    0    0  0.16236248293E+02  0.25597046531E+02  0.99479910747E+01  0.31902775372E+02  0.51100000000E-03 0.  1.
        -12    1    3    3    0    0 -0.12424287386E+01  0.53888953593E+01 -0.15145476839E+01  0.57339059158E+01  0.00000000000E+00 0.  1.
</event>
<event>
 7    1  0.4876728E-009  0.4778727E+02  0.7816164E-02  0.1312668E+00
        -11   -1    0    0    0    0  0.00000000000E+00  0.00000000000E+00  0.45593999997E+02  0.45594000000E+02  0.51100000000E-03 0. -1.
         11   -1    0    0    0    0 -0.00000000000E+00 -0.00000000000E+00 -0.45593999997E+02  0.45594000000E+02  0.51100000000E-03 0.  1.
    9900012    2    1    2    0    0  0.28702270784E+02 -0.59320075966E+01  0.32009599694E+02  0.47787268038E+02  0.19999986291E+02 0.  0.
         12    1    1    2    0    0 -0.28702270784E+02  0.59320075966E+01 -0.32009599694E+02  0.43400731962E+02  0.00000000000E+00 0. -1.
         11    1    3    3    0    0 -0.17829661825E+01  0.73089925848E+00  0.21595567473E+01  0.28942819040E+01  0.51100000000E-03 0. -1.
        -11    1    3    3    0    0  0.18834766791E+02 -0.61182903355E+01  0.10802487073E+02  0.22558272184E+02  0.51100000000E-03 0.  1.
        -12    1    3    3    0    0  0.11650470176E+02 -0.54461651963E+00  0.19047555874E+02  0.22334713950E+02  0.00000000000E+00 0.  1.
</event>
<event>
 7    1  0.4876728E-009  0.4778727E+02  0.7816164E-02  0.1312668E+00
        -11   -1    0    0    0    0  0.00000000000E+00  0.00000000000E+00  0.45593999997E+02  0.45594000000E+02  0.51100000000E-03 0. -1.
         11   -1    0    0    0    0 -0.00000000000E+00 -0.00000000000E+00 -0.45593999997E+02  0.45594000000E+02  0.51100000000E-03 0.  1.
    9900012    2    1    2    0    0  0.34231821049E+02 -0.18770110082E+02 -0.18960181403E+02  0.47787273236E+02  0.20000009990E+02 0.  0.
         12    1    1    2    0    0 -0.34231821049E+02  0.18770110082E+02  0.18960181403E+02  0.43400726764E+02  0.00000000000E+00 0. -1.
         11    1    3    3    0    0  0.21957747922E+02 -0.24846190125E+01 -0.11969318484E+02  0.25131267590E+02  0.51100000000E-03 0. -1.
        -11    1    3    3    0    0  0.12249160570E+02 -0.11748195458E+02 -0.49401519493E+01  0.17676739879E+02  0.51100000000E-03 0.  1.
         12    1    3    3    0    0  0.24912557727E-01 -0.45372956114E+01 -0.20507109698E+01  0.49792657674E+01  0.00000000000E+00 0. -1.
</event>
<event>
 7    1  0.4876728E-009  0.4778727E+02  0.7816164E-02  0.1312668E+00
        -11   -1    0    0    0    0  0.00000000000E+00  0.00000000000E+00  0.45593999997E+02  0.45594000000E+02  0.51100000000E-03 0.  1.
         11   -1    0    0    0    0 -0.00000000000E+00 -0.00000000000E+00 -0.45593999997E+02  0.45594000000E+02  0.51100000000E-03 0. -1.
    9900012    2    1    2    0    0  0.23197047822E+02 -0.36318841702E+02  0.51441116270E+01  0.47787272187E+02  0.20000005210E+02 0.  0.
         12    1    1    2    0    0 -0.23197047822E+02  0.36318841702E+02 -0.51441116270E+01  0.43400727813E+02  0.00000000000E+00 0. -1.
         11    1    3    3    0    0 -0.17259614422E+01 -0.21964179399E+00 -0.64227968369E+00  0.18546452143E+01  0.51100000000E-03 0. -1.
        -11    1    3    3    0    0  0.26316854660E+02 -0.34838625582E+02  0.52344202491E+01  0.43973922127E+02  0.51100000000E-03 0.  1.
        -12    1    3    3    0    0 -0.13938453959E+01 -0.12605743260E+01  0.55197106153E+00  0.19587048455E+01  0.00000000000E+00 0.  1.
</event>
<event>
 7    1  0.4876728E-009  0.4778727E+02  0.7816164E-02  0.1312668E+00
        -11   -1    0    0    0    0  0.00000000000E+00  0.00000000000E+00  0.45593999997E+02  0.45594000000E+02  0.51100000000E-03 0.  1.
         11   -1    0    0    0    0 -0.00000000000E+00 -0.00000000000E+00 -0.45593999997E+02  0.45594000000E+02  0.51100000000E-03 0. -1.
    9900012    2    1    2    0    0 -0.40958901302E+02 -0.68962226292E-01  0.14352241178E+02  0.47787272144E+02  0.20000005012E+02 0.  0.
         12    1    1    2    0    0  0.40958901302E+02  0.68962226292E-01 -0.14352241178E+02  0.43400727856E+02  0.00000000000E+00 0. -1.
         11    1    3    3    0    0 -0.35548657894E+00  0.36578396484E+01  0.22795691328E+01  0.43246499620E+01  0.51100000000E-03 0. -1.
        -11    1    3    3    0    0 -0.30390062532E+02 -0.16632863701E+01  0.49360551143E+01  0.30833213627E+02  0.51100000000E-03 0.  1.
         12    1    3    3    0    0 -0.10213352191E+02 -0.20635155046E+01  0.71366169312E+01  0.12629408554E+02  0.00000000000E+00 0. -1.
</event>
<event>
 7    1  0.4876728E-009  0.4778727E+02  0.7816164E-02  0.1312668E+00
        -11   -1    0    0    0    0  0.00000000000E+00  0.00000000000E+00  0.45593999997E+02  0.45594000000E+02  0.51100000000E-03 0. -1.
         11   -1    0    0    0    0 -0.00000000000E+00 -0.00000000000E+00 -0.45593999997E+02  0.45594000000E+02  0.51100000000E-03 0.  1.
    9900012    2    1    2    0    0  0.21218589849E+02 -0.24649443839E+02 -0.28736729158E+02  0.47787271441E+02  0.20000001808E+02 0.  0.
         12    1    1    2    0    0 -0.21218589849E+02  0.24649443839E+02  0.28736729158E+02  0.43400728559E+02  0.00000000000E+00 0. -1.
         11    1    3    3    0    0 -0.30781232506E+00 -0.63930266177E+01 -0.45315322763E+01  0.78422141512E+01  0.51100000000E-03 0. -1.
        -11    1    3    3    0    0  0.17959569422E+02 -0.13324307309E+02 -0.25293758246E+02  0.33761775806E+02  0.51100000000E-03 0.  1.
        -12    1    3    3    0    0  0.35668327521E+01 -0.49321099120E+01  0.10885613643E+01  0.61832814839E+01  0.00000000000E+00 0.  1.
</event>
<event>
 7    1  0.4876728E-009  0.4778726E+02  0.7816164E-02  0.1312668E+00
        -11   -1    0    0    0    0  0.00000000000E+00  0.00000000000E+00  0.45593999997E+02  0.45594000000E+02  0.51100000000E-03 0.  1.
         11   -1    0    0    0    0 -0.00000000000E+00 -0.00000000000E+00 -0.45593999997E+02  0.45594000000E+02  0.51100000000E-03 0. -1.
    9900012    2    1    2    0    0 -0.40518536767E+02  0.89932417004E+00  0.15526230288E+02  0.47787257694E+02  0.19999939131E+02 0.  0.
         12    1    1    2    0    0  0.40518536767E+02 -0.89932417004E+00 -0.15526230288E+02  0.43400742306E+02  0.00000000000E+00 0. -1.
         11    1    3    3    0    0 -0.79503109372E+00  0.29121388838E-01 -0.24921436259E+01  0.26160471342E+01  0.51100000000E-03 0. -1.
        -11    1    3    3    0    0 -0.32862201148E+02 -0.24397904815E+01  0.10802131598E+02  0.34677988540E+02  0.51100000000E-03 0.  1.
        -12    1    3    3    0    0 -0.68613045259E+01  0.33099932627E+01  0.72162423158E+01  0.10493222020E+02  0.00000000000E+00 0.  1.
</event>
<event>
 7    1  0.5525981E-009  0.4778729E+02  0.7816164E-02  0.1312668E+00
        -11   -1    0    0    0    0  0.00000000000E+00  0.00000000000E+00  0.45593999997E+02  0.45594000000E+02  0.51100000000E-03 0. -1.
         11   -1    0    0    0    0 -0.00000000000E+00 -0.00000000000E+00 -0.45593999997E+02  0.45594000000E+02  0.51100000000E-03 0.  1.
    9900012    2    1    2    0    0 -0.32697019536E+02  0.15801396981E+02 -0.23766411190E+02  0.47787291089E+02  0.20000091392E+02 0.  0.
         12    1    1    2    0    0  0.32697019536E+02 -0.15801396981E+02  0.23766411190E+02  0.43400708911E+02  0.00000000000E+00 0. -1.
         11    1    3    3    0    0 -0.11709952958E+02 -0.16435973929E+01 -0.11562281214E+02  0.16538160653E+02  0.51100000000E-03 0. -1.
        -11    1    3    3    0    0 -0.18319145954E+02  0.10956333827E+02 -0.11367405149E+02  0.24183677542E+02  0.51100000000E-03 0.  1.
         12    1    3    3    0    0 -0.26679206250E+01  0.64886605470E+01 -0.83672482703E+00  0.70654528935E+01  0.00000000000E+00 0. -1.
</event>
<event>
 7    1  0.4876728E-009  0.4778727E+02  0.7816164E-02  0.1312668E+00
        -11   -1    0    0    0    0  0.00000000000E+00  0.00000000000E+00  0.45593999997E+02  0.45594000000E+02  0.51100000000E-03 0.  1.
         11   -1    0    0    0    0 -0.00000000000E+00 -0.00000000000E+00 -0.45593999997E+02  0.45594000000E+02  0.51100000000E-03 0. -1.
    9900012    2    1    2    0    0  0.42232216610E+01 -0.19149687219E+02  0.38717919260E+02  0.47787269665E+02  0.19999993709E+02 0.  0.
         12    1    1    2    0    0 -0.42232216610E+01  0.19149687219E+02 -0.38717919260E+02  0.43400730335E+02  0.00000000000E+00 0. -1.
         11    1    3    3    0    0 -0.11497583014E+01 -0.57723718525E+01  0.55767086454E+00  0.59121246612E+01  0.51100000000E-03 0. -1.
        -11    1    3    3    0    0 -0.24225169274E+01 -0.51763527368E+01  0.16063774451E+02  0.17050163219E+02  0.51100000000E-03 0.  1.
         12    1    3    3    0    0  0.77954968898E+01 -0.82009626301E+01  0.22096473945E+02  0.24824981785E+02  0.00000000000E+00 0. -1.
</event>
<event>
 7    1  0.4876728E-009  0.4778727E+02  0.7816164E-02  0.1312668E+00
        -11   -1    0    0    0    0  0.00000000000E+00  0.00000000000E+00  0.45593999997E+02  0.45594000000E+02  0.51100000000E-03 0.  1.
         11   -1    0    0    0    0 -0.00000000000E+00 -0.00000000000E+00 -0.45593999997E+02  0.45594000000E+02  0.51100000000E-03 0. -1.
    9900012    2    1    2    0    0 -0.14273890096E+02  0.15605074019E+02  0.37899356531E+02  0.47787268450E+02  0.19999988172E+02 0.  0.
         12    1    1    2    0    0  0.14273890096E+02 -0.15605074019E+02 -0.37899356531E+02  0.43400731550E+02  0.00000000000E+00 0. -1.
         11    1    3    3    0    0 -0.89237108872E+01  0.11909630016E+02  0.12823423624E+02  0.19644645500E+02  0.51100000000E-03 0. -1.
        -11    1    3    3    0    0 -0.39562455511E+01  0.74670506467E+01  0.13920333133E+02  0.16284483382E+02  0.51100000000E-03 0.  1.
         12    1    3    3    0    0 -0.13939336575E+01 -0.37716066436E+01  0.11155599774E+02  0.11858139569E+02  0.00000000000E+00 0. -1.
</event>
<event>
 7    1  0.4876728E-009  0.4778727E+02  0.7816164E-02  0.1312668E+00
        -11   -1    0    0    0    0  0.00000000000E+00  0.00000000000E+00  0.45593999997E+02  0.45594000000E+02  0.51100000000E-03 0.  1.
         11   -1    0    0    0    0 -0.00000000000E+00 -0.00000000000E+00 -0.45593999997E+02  0.45594000000E+02  0.51100000000E-03 0. -1.
    9900012    2    1    2    0    0 -0.14518914676E+02 -0.19821869311E+02  0.35775938024E+02  0.47787272727E+02  0.20000007670E+02 0.  0.
         12    1    1    2    0    0  0.14518914676E+02  0.19821869311E+02 -0.35775938024E+02  0.43400727273E+02  0.00000000000E+00 0. -1.
         11    1    3    3    0    0 -0.71393950652E+01 -0.10617034555E+01  0.83337178317E+01  0.11024927632E+02  0.51100000000E-03 0. -1.
        -11    1    3    3    0    0 -0.39195939751E+01 -0.19098136680E+02  0.26932950411E+02  0.33248847494E+02  0.51100000000E-03 0.  1.
        -12    1    3    3    0    0 -0.34599256355E+01  0.33797082494E+00  0.50926978207E+00  0.35134976011E+01  0.00000000000E+00 0.  1.
</event>
<event>
 7    1  0.4876728E-009  0.4778727E+02  0.7816164E-02  0.1312668E+00
        -11   -1    0    0    0    0  0.00000000000E+00  0.00000000000E+00  0.45593999997E+02  0.45594000000E+02  0.51100000000E-03 0.  1.
         11   -1    0    0    0    0 -0.00000000000E+00 -0.00000000000E+00 -0.45593999997E+02  0.45594000000E+02  0.51100000000E-03 0. -1.
    9900012    2    1    2    0    0  0.28156626580E+02  0.22059788214E+02  0.24580353075E+02  0.47787266899E+02  0.19999981097E+02 0.  0.
         12    1    1    2    0    0 -0.28156626580E+02 -0.22059788214E+02 -0.24580353075E+02  0.43400733101E+02  0.00000000000E+00 0. -1.
         11    1    3    3    0    0  0.63510996550E+00  0.45450629513E+01  0.22870050756E+01  0.51275095687E+01  0.51100000000E-03 0.  1.
        -11    1    3    3    0    0  0.73518471122E+01  0.86717454774E+01  0.16232893109E+02  0.19818063592E+02  0.51100000000E-03 0. -1.
        -12    1    3    3    0    0  0.20169669503E+02  0.88429797854E+01  0.60604548903E+01  0.22841693738E+02  0.00000000000E+00 0.  1.
</event>
<event>
 7    1  0.4876728E-009  0.4778727E+02  0.7816164E-02  0.1312668E+00
        -11   -1    0    0    0    0  0.00000000000E+00  0.00000000000E+00  0.45593999997E+02  0.45594000000E+02  0.51100000000E-03 0.  1.
         11   -1    0    0    0    0 -0.00000000000E+00 -0.00000000000E+00 -0.45593999997E+02  0.45594000000E+02  0.51100000000E-03 0. -1.
    9900012    2    1    2    0    0  0.31388686352E+01 -0.41457849333E+02  0.12450599844E+02  0.47787271848E+02  0.20000003663E+02 0.  0.
         12    1    1    2    0    0 -0.31388686352E+01  0.41457849333E+02 -0.12450599844E+02  0.43400728152E+02  0.00000000000E+00 0. -1.
         11    1    3    3    0    0 -0.41475677711E+01 -0.11054204766E+02  0.33822427778E+01  0.12281584909E+02  0.51100000000E-03 0. -1.
        -11    1    3    3    0    0  0.10612790905E+02 -0.27699499009E+02  0.60790543620E+01  0.30279505913E+02  0.51100000000E-03 0.  1.
        -12    1    3    3    0    0 -0.33263544985E+01 -0.27041455592E+01  0.29893027046E+01  0.52261810258E+01  0.00000000000E+00 0.  1.
</event>
<event>
 7    1  0.4876728E-009  0.4778727E+02  0.7816164E-02  0.1312668E+00
        -11   -1    0    0    0    0  0.00000000000E+00  0.00000000000E+00  0.45593999997E+02  0.45594000000E+02  0.51100000000E-03 0.  1.
         11   -1    0    0    0    0 -0.00000000000E+00 -0.00000000000E+00 -0.45593999997E+02  0.45594000000E+02  0.51100000000E-03 0. -1.
    9900012    2    1    2    0    0 -0.34106729334E+02 -0.24240518155E+02 -0.11521785627E+02  0.47787271316E+02  0.20000001239E+02 0.  0.
         12    1    1    2    0    0  0.34106729334E+02  0.24240518155E+02  0.11521785627E+02  0.43400728684E+02  0.00000000000E+00 0. -1.
         11    1    3    3    0    0  0.24593253959E+00 -0.40063638324E+01 -0.50521365672E+01  0.64525590370E+01  0.51100000000E-03 0. -1.
        -11    1    3    3    0    0 -0.20144703632E+02 -0.67723868998E+01 -0.34056864368E+01  0.21523777761E+02  0.51100000000E-03 0.  1.
         12    1    3    3    0    0 -0.14207958241E+02 -0.13461767422E+02 -0.30639626235E+01  0.19810934518E+02  0.00000000000E+00 0. -1.
</event>
<event>
 7    1  0.4876728E-009  0.4778727E+02  0.7816164E-02  0.1312668E+00
        -11   -1    0    0    0    0  0.00000000000E+00  0.00000000000E+00  0.45593999997E+02  0.45594000000E+02  0.51100000000E-03 0.  1.
         11   -1    0    0    0    0 -0.00000000000E+00 -0.00000000000E+00 -0.45593999997E+02  0.45594000000E+02  0.51100000000E-03 0. -1.
    9900012    2    1    2    0    0  0.23891268529E+02  0.19056266878E+02  0.30817031714E+02  0.47787268866E+02  0.19999990069E+02 0.  0.
         12    1    1    2    0    0 -0.23891268529E+02 -0.19056266878E+02 -0.30817031714E+02  0.43400731134E+02  0.00000000000E+00 0. -1.
         11    1    3    3    0    0 -0.60135755528E+00  0.52390259683E+01  0.31895859165E+00  0.52830633964E+01  0.51100000000E-03 0. -1.
        -11    1    3    3    0    0  0.21158176676E+02  0.15060174055E+02  0.27758000767E+02  0.38012943712E+02  0.51100000000E-03 0.  1.
         12    1    3    3    0    0  0.33344494085E+01 -0.12429331458E+01  0.27400723557E+01  0.44912617578E+01  0.00000000000E+00 0. -1.
</event>
<event>
 7    1  0.4876728E-009  0.4778727E+02  0.7816164E-02  0.1312668E+00
        -11   -1    0    0    0    0  0.00000000000E+00  0.00000000000E+00  0.45593999997E+02  0.45594000000E+02  0.51100000000E-03 0.  1.
         11   -1    0    0    0    0 -0.00000000000E+00 -0.00000000000E+00 -0.45593999997E+02  0.45594000000E+02  0.51100000000E-03 0. -1.
    9900012    2    1    2    0    0  0.35918287187E+02  0.24349910557E+02 -0.76276829961E+00  0.47787270581E+02  0.19999997887E+02 0.  0.
         12    1    1    2    0    0 -0.35918287187E+02 -0.24349910557E+02  0.76276829961E+00  0.43400729419E+02  0.00000000000E+00 0. -1.
         11    1    3    3    0    0 -0.12140809160E+01  0.67562093205E+00 -0.24586888349E+01  0.28241117475E+01  0.51100000000E-03 0. -1.
        -11    1    3    3    0    0  0.28072000790E+02  0.19010519978E+02  0.49570351593E+01  0.34263819052E+02  0.51100000000E-03 0.  1.
         12    1    3    3    0    0  0.90603673130E+01  0.46637696470E+01 -0.32611146240E+01  0.10699339781E+02  0.00000000000E+00 0. -1.
</event>
<event>
 7    1  0.4876728E-009  0.4778727E+02  0.7816164E-02  0.1312668E+00
        -11   -1    0    0    0    0  0.00000000000E+00  0.00000000000E+00  0.45593999997E+02  0.45594000000E+02  0.51100000000E-03 0.  1.
         11   -1    0    0    0    0 -0.00000000000E+00 -0.00000000000E+00 -0.45593999997E+02  0.45594000000E+02  0.51100000000E-03 0. -1.
    9900012    2    1    2    0    0  0.11308180133E+01  0.10861883917E+02  0.42004333390E+02  0.47787270799E+02  0.19999998882E+02 0.  0.
         12    1    1    2    0    0 -0.11308180133E+01 -0.10861883917E+02 -0.42004333390E+02  0.43400729201E+02  0.00000000000E+00 0. -1.
         11    1    3    3    0    0  0.43336615772E+01  0.11592953975E+02  0.17868071635E+02  0.21735804304E+02  0.51100000000E-03 0. -1.
        -11    1    3    3    0    0 -0.24979263581E+01 -0.34702739167E+01  0.44808280974E+01  0.61935658427E+01  0.51100000000E-03 0.  1.
        -12    1    3    3    0    0 -0.70491720580E+00  0.27392038591E+01  0.19655433658E+02  0.19857900653E+02  0.00000000000E+00 0.  1.
</event>
<event>
 7    1  0.4876728E-009  0.4778727E+02  0.7816164E-02  0.1312668E+00
        -11   -1    0    0    0    0  0.00000000000E+00  0.00000000000E+00  0.45593999997E+02  0.45594000000E+02  0.51100000000E-03 0.  1.
         11   -1    0    0    0    0 -0.00000000000E+00 -0.00000000000E+00 -0.45593999997E+02  0.45594000000E+02  0.51100000000E-03 0. -1.
    9900012    2    1    2    0    0  0.15058565693E+01  0.40779140564E+02  0.14778940318E+02  0.47787274360E+02  0.20000015118E+02 0.  0.
         12    1    1    2    0    0 -0.15058565693E+01 -0.40779140564E+02 -0.14778940318E+02  0.43400725640E+02  0.00000000000E+00 0. -1.
         11    1    3    3    0    0  0.47442381419E+01  0.26889400504E+02  0.92312286456E+01  0.28822963720E+02  0.51100000000E-03 0. -1.
        -11    1    3    3    0    0  0.34693960950E+01  0.95114150690E+01  0.31216279931E+01  0.10594729230E+02  0.51100000000E-03 0.  1.
         12    1    3    3    0    0 -0.67077776676E+01  0.43783249905E+01  0.24260836790E+01  0.83695814100E+01  0.00000000000E+00 0. -1.
</event>
<event>
 7    1  0.4876728E-009  0.4778727E+02  0.7816164E-02  0.1312668E+00
        -11   -1    0    0    0    0  0.00000000000E+00  0.00000000000E+00  0.45593999997E+02  0.45594000000E+02  0.51100000000E-03 0.  1.
         11   -1    0    0    0    0 -0.00000000000E+00 -0.00000000000E+00 -0.45593999997E+02  0.45594000000E+02  0.51100000000E-03 0. -1.
    9900012    2    1    2    0    0  0.23416670893E+02  0.36532892397E+02 -0.79409731586E+00  0.47787270822E+02  0.19999998987E+02 0.  0.
         12    1    1    2    0    0 -0.23416670893E+02 -0.36532892397E+02  0.79409731586E+00  0.43400729178E+02  0.00000000000E+00 0. -1.
         11    1    3    3    0    0  0.19406307320E+02  0.13186169433E+02  0.26842703591E+01  0.23615358048E+02  0.51100000000E-03 0. -1.
        -11    1    3    3    0    0  0.42888009787E+01  0.16590604263E+02 -0.20205752242E+01  0.17254700465E+02  0.51100000000E-03 0.  1.
         12    1    3    3    0    0 -0.27843740615E+00  0.67561187011E+01 -0.14577924508E+01  0.69172123086E+01  0.00000000000E+00 0. -1.
</event>
<event>
 7    1  0.4876728E-009  0.4778727E+02  0.7816164E-02  0.1312668E+00
        -11   -1    0    0    0    0  0.00000000000E+00  0.00000000000E+00  0.45593999997E+02  0.45594000000E+02  0.51100000000E-03 0.  1.
         11   -1    0    0    0    0 -0.00000000000E+00 -0.00000000000E+00 -0.45593999997E+02  0.45594000000E+02  0.51100000000E-03 0. -1.
    9900012    2    1    2    0    0  0.29878898220E+02 -0.92719570604E+01  0.30081647851E+02  0.47787270928E+02  0.19999999468E+02 0.  0.
         12    1    1    2    0    0 -0.29878898220E+02  0.92719570604E+01 -0.30081647851E+02  0.43400729072E+02  0.00000000000E+00 0. -1.
         11    1    3    3    0    0  0.18532457810E+01  0.82764867690E+00  0.38618107212E+01  0.43626946449E+01  0.51100000000E-03 0. -1.
        -11    1    3    3    0    0  0.22322587840E+02 -0.50171186147E+00  0.22392419360E+02  0.31622303643E+02  0.51100000000E-03 0.  1.
        -12    1    3    3    0    0  0.57030645990E+01 -0.95978938758E+01  0.38274177705E+01  0.11802272640E+02  0.00000000000E+00 0.  1.
</event>
<event>
 7    1  0.4876728E-009  0.4778727E+02  0.7816164E-02  0.1312668E+00
        -11   -1    0    0    0    0  0.00000000000E+00  0.00000000000E+00  0.45593999997E+02  0.45594000000E+02  0.51100000000E-03 0.  1.
         11   -1    0    0    0    0 -0.00000000000E+00 -0.00000000000E+00 -0.45593999997E+02  0.45594000000E+02  0.51100000000E-03 0. -1.
    9900012    2    1    2    0    0  0.33847198649E+01  0.20079247541E+02  0.38327413673E+02  0.47787272480E+02  0.20000006546E+02 0.  0.
         12    1    1    2    0    0 -0.33847198649E+01 -0.20079247541E+02 -0.38327413673E+02  0.43400727520E+02  0.00000000000E+00 0. -1.
         11    1    3    3    0    0  0.65983950745E+01  0.15774022879E+02  0.15200055064E+02  0.22877943298E+02  0.51100000000E-03 0. -1.
        -11    1    3    3    0    0 -0.41583489298E+01  0.58875304280E+01  0.16018894058E+02  0.17565871669E+02  0.51100000000E-03 0.  1.
         12    1    3    3    0    0  0.94467372016E+00 -0.15823057667E+01  0.71084645508E+01  0.73434575132E+01  0.00000000000E+00 0. -1.
</event>
<event>
 7    1  0.4876728E-009  0.4778725E+02  0.7816164E-02  0.1312668E+00
        -11   -1    0    0    0    0  0.00000000000E+00  0.00000000000E+00  0.45593999997E+02  0.45594000000E+02  0.51100000000E-03 0.  1.
         11   -1    0    0    0    0 -0.00000000000E+00 -0.00000000000E+00 -0.45593999997E+02  0.45594000000E+02  0.51100000000E-03 0. -1.
    9900012    2    1    2    0    0  0.76983904362E+01  0.30177490803E+02  0.30227122951E+02  0.47787249679E+02  0.19999902588E+02 0.  0.
         12    1    1    2    0    0 -0.76983904362E+01 -0.30177490803E+02 -0.30227122951E+02  0.43400750321E+02  0.00000000000E+00 0. -1.
         11    1    3    3    0    0  0.22249603316E+01  0.26168441414E+01  0.17053313855E+01  0.38349024933E+01  0.51100000000E-03 0. -1.
        -11    1    3    3    0    0  0.16477206383E+01  0.22745841695E+02  0.10876855376E+02  0.25266465540E+02  0.51100000000E-03 0.  1.
        -12    1    3    3    0    0  0.38257094663E+01  0.48148049667E+01  0.17644936189E+02  0.18685881647E+02  0.00000000000E+00 0.  1.
</event>
<event>
 7    1  0.4876728E-009  0.4778727E+02  0.7816164E-02  0.1312668E+00
        -11   -1    0    0    0    0  0.00000000000E+00  0.00000000000E+00  0.45593999997E+02  0.45594000000E+02  0.51100000000E-03 0.  1.
         11   -1    0    0    0    0 -0.00000000000E+00 -0.00000000000E+00 -0.45593999997E+02  0.45594000000E+02  0.51100000000E-03 0. -1.
    9900012    2    1    2    0    0 -0.32661321119E+01 -0.42849555552E+02 -0.60721648755E+01  0.47787271708E+02  0.20000003026E+02 0.  0.
         12    1    1    2    0    0  0.32661321119E+01  0.42849555552E+02  0.60721648755E+01  0.43400728292E+02  0.00000000000E+00 0. -1.
         11    1    3    3    0    0 -0.46431735247E+01 -0.32155757505E+02 -0.69759803573E+01  0.33229747265E+02  0.51100000000E-03 0.  1.
        -11    1    3    3    0    0  0.88494797346E+00  0.17846984307E+01 -0.28724904494E+00  0.20126583613E+01  0.51100000000E-03 0. -1.
         12    1    3    3    0    0  0.49209343934E+00 -0.12478496478E+02  0.11910645268E+01  0.12544866081E+02  0.00000000000E+00 0. -1.
</event>
<event>
 7    1  0.4876728E-009  0.4778727E+02  0.7816164E-02  0.1312668E+00
        -11   -1    0    0    0    0  0.00000000000E+00  0.00000000000E+00  0.45593999997E+02  0.45594000000E+02  0.51100000000E-03 0.  1.
         11   -1    0    0    0    0 -0.00000000000E+00 -0.00000000000E+00 -0.45593999997E+02  0.45594000000E+02  0.51100000000E-03 0. -1.
    9900012    2    1    2    0    0 -0.23919632973E+02  0.11443889273E+02  0.34358573447E+02  0.47787274055E+02  0.20000013728E+02 0.  0.
         12    1    1    2    0    0  0.23919632973E+02 -0.11443889273E+02 -0.34358573447E+02  0.43400725945E+02  0.00000000000E+00 0. -1.
         11    1    3    3    0    0 -0.15649256321E+02  0.15052664970E+02  0.31333707450E+02  0.38121951274E+02  0.51100000000E-03 0.  1.
        -11    1    3    3    0    0 -0.62505293876E+01 -0.26549139322E+01  0.14828244448E+01  0.69510038274E+01  0.51100000000E-03 0. -1.
        -12    1    3    3    0    0 -0.20198472636E+01 -0.95386176536E+00  0.15420415514E+01  0.27143189537E+01  0.00000000000E+00 0.  1.
</event>
<event>
 7    1  0.4876728E-009  0.4778727E+02  0.7816164E-02  0.1312668E+00
        -11   -1    0    0    0    0  0.00000000000E+00  0.00000000000E+00  0.45593999997E+02  0.45594000000E+02  0.51100000000E-03 0. -1.
         11   -1    0    0    0    0 -0.00000000000E+00 -0.00000000000E+00 -0.45593999997E+02  0.45594000000E+02  0.51100000000E-03 0.  1.
    9900012    2    1    2    0    0 -0.39710837381E+02 -0.17503553152E+02 -0.54622493450E+00  0.47787270281E+02  0.19999996520E+02 0.  0.
         12    1    1    2    0    0  0.39710837381E+02  0.17503553152E+02  0.54622493450E+00  0.43400729719E+02  0.00000000000E+00 0. -1.
         11    1    3    3    0    0 -0.77378399167E+00 -0.21434536560E+01  0.93879592324E+00  0.24646446575E+01  0.51100000000E-03 0. -1.
        -11    1    3    3    0    0 -0.69943222921E+01 -0.90074170014E+01 -0.52177773737E+01  0.12541104670E+02  0.51100000000E-03 0.  1.
        -12    1    3    3    0    0 -0.31942731097E+02 -0.63526824945E+01  0.37327565160E+01  0.32781520954E+02  0.00000000000E+00 0.  1.
</event>
<event>
 7    1  0.4876728E-009  0.4778727E+02  0.7816164E-02  0.1312668E+00
        -11   -1    0    0    0    0  0.00000000000E+00  0.00000000000E+00  0.45593999997E+02  0.45594000000E+02  0.51100000000E-03 0.  1.
         11   -1    0    0    0    0 -0.00000000000E+00 -0.00000000000E+00 -0.45593999997E+02  0.45594000000E+02  0.51100000000E-03 0. -1.
    9900012    2    1    2    0    0  0.41325108226E+01  0.11377054715E+02  0.41678635475E+02  0.47787266426E+02  0.19999978943E+02 0.  0.
         12    1    1    2    0    0 -0.41325108226E+01 -0.11377054715E+02 -0.41678635475E+02  0.43400733574E+02  0.00000000000E+00 0. -1.
         11    1    3    3    0    0 -0.38107712900E+01  0.53586985245E+01  0.99682863928E+01  0.11941706811E+02  0.51100000000E-03 0. -1.
        -11    1    3    3    0    0  0.11673554499E+02  0.48246401078E+01  0.21889024515E+02  0.25272087790E+02  0.51100000000E-03 0.  1.
        -12    1    3    3    0    0 -0.37302723859E+01  0.11937160824E+01  0.98213245677E+01  0.10573471824E+02  0.00000000000E+00 0.  1.
</event>
<event>
 7    1  0.4876728E-009  0.4778726E+02  0.7816164E-02  0.1312668E+00
        -11   -1    0    0    0    0  0.00000000000E+00  0.00000000000E+00  0.45593999997E+02  0.45594000000E+02  0.51100000000E-03 0.  1.
         11   -1    0    0    0    0 -0.00000000000E+00 -0.00000000000E+00 -0.45593999997E+02  0.45594000000E+02  0.51100000000E-03 0. -1.
    9900012    2    1    2    0    0 -0.13063440896E+02  0.16553603237E+02  0.37933478626E+02  0.47787261886E+02  0.19999958241E+02 0.  0.
         12    1    1    2    0    0  0.13063440896E+02 -0.16553603237E+02 -0.37933478626E+02  0.43400738114E+02  0.00000000000E+00 0. -1.
         11    1    3    3    0    0 -0.70975003242E+01  0.89535558351E+01  0.43387346368E+01  0.12221509377E+02  0.51100000000E-03 0. -1.
        -11    1    3    3    0    0 -0.72962309656E+01  0.64936413656E+01  0.25942017235E+02  0.27719859721E+02  0.51100000000E-03 0.  1.
         12    1    3    3    0    0  0.13302903933E+01  0.11064060367E+01  0.76527267546E+01  0.78458927873E+01  0.00000000000E+00 0. -1.
</event>
<event>
 7    1  0.4876728E-009  0.4778725E+02  0.7816164E-02  0.1312668E+00
        -11   -1    0    0    0    0  0.00000000000E+00  0.00000000000E+00  0.45593999997E+02  0.45594000000E+02  0.51100000000E-03 0. -1.
         11   -1    0    0    0    0 -0.00000000000E+00 -0.00000000000E+00 -0.45593999997E+02  0.45594000000E+02  0.51100000000E-03 0.  1.
    9900012    2    1    2    0    0  0.22785429637E+02  0.34532170700E+02 -0.13114052215E+02  0.47787251360E+02  0.19999910252E+02 0.  0.
         12    1    1    2    0    0 -0.22785429637E+02 -0.34532170700E+02  0.13114052215E+02  0.43400748640E+02  0.00000000000E+00 0. -1.
         11    1    3    3    0    0 -0.80031621917E+00  0.60639744531E+00  0.19437340354E+01  0.21877673948E+01  0.51100000000E-03 0. -1.
        -11    1    3    3    0    0  0.16911764953E+02  0.31333376671E+02 -0.14406640336E+02  0.38410149355E+02  0.51100000000E-03 0.  1.
         12    1    3    3    0    0  0.66739809032E+01  0.25923965837E+01 -0.65114591458E+00  0.71893346108E+01  0.00000000000E+00 0. -1.
</event>
<event>
 7    1  0.4876728E-009  0.4778727E+02  0.7816164E-02  0.1312668E+00
        -11   -1    0    0    0    0  0.00000000000E+00  0.00000000000E+00  0.45593999997E+02  0.45594000000E+02  0.51100000000E-03 0. -1.
         11   -1    0    0    0    0 -0.00000000000E+00 -0.00000000000E+00 -0.45593999997E+02  0.45594000000E+02  0.51100000000E-03 0.  1.
    9900012    2    1    2    0    0 -0.60818041643E-02  0.34079020642E+02 -0.26874591273E+02  0.47787270271E+02  0.19999996473E+02 0.  0.
         12    1    1    2    0    0  0.60818041643E-02 -0.34079020642E+02  0.26874591273E+02  0.43400729729E+02  0.00000000000E+00 0. -1.
         11    1    3    3    0    0 -0.70577269444E+01  0.45059723029E+01 -0.47384205015E+01  0.96212226420E+01  0.51100000000E-03 0. -1.
        -11    1    3    3    0    0  0.66223229293E+01  0.17717737012E+02 -0.16183014422E+02  0.24893037618E+02  0.51100000000E-03 0.  1.
         12    1    3    3    0    0  0.42932221095E+00  0.11855311327E+02 -0.59531563498E+01  0.13273010011E+02  0.00000000000E+00 0. -1.
</event>
<event>
 7    1  0.4876728E-009  0.4778727E+02  0.7816164E-02  0.1312668E+00
        -11   -1    0    0    0    0  0.00000000000E+00  0.00000000000E+00  0.45593999997E+02  0.45594000000E+02  0.51100000000E-03 0.  1.
         11   -1    0    0    0    0 -0.00000000000E+00 -0.00000000000E+00 -0.45593999997E+02  0.45594000000E+02  0.51100000000E-03 0. -1.
    9900012    2    1    2    0    0 -0.15869614337E+02 -0.36383548850E+02  0.17550388182E+02  0.47787269459E+02  0.19999992770E+02 0.  0.
         12    1    1    2    0    0  0.15869614337E+02  0.36383548850E+02 -0.17550388182E+02  0.43400730541E+02  0.00000000000E+00 0. -1.
         11    1    3    3    0    0 -0.22374879572E+01 -0.60964434290E+01 -0.31584179695E+01  0.72213973145E+01  0.51100000000E-03 0. -1.
        -11    1    3    3    0    0 -0.10018179049E+02 -0.29078369078E+02  0.16552678708E+02  0.34927161814E+02  0.51100000000E-03 0.  1.
         12    1    3    3    0    0 -0.36139473310E+01 -0.12087363434E+01  0.41561274437E+01  0.56387103302E+01  0.00000000000E+00 0. -1.
</event>
<event>
 7    1  0.4876728E-009  0.4778727E+02  0.7816164E-02  0.1312668E+00
        -11   -1    0    0    0    0  0.00000000000E+00  0.00000000000E+00  0.45593999997E+02  0.45594000000E+02  0.51100000000E-03 0.  1.
         11   -1    0    0    0    0 -0.00000000000E+00 -0.00000000000E+00 -0.45593999997E+02  0.45594000000E+02  0.51100000000E-03 0. -1.
    9900012    2    1    2    0    0 -0.16955961964E+02 -0.20846742814E+02  0.34081255736E+02  0.47787270460E+02  0.19999997335E+02 0.  0.
         12    1    1    2    0    0  0.16955961964E+02  0.20846742814E+02 -0.34081255736E+02  0.43400729540E+02  0.00000000000E+00 0. -1.
         11    1    3    3    0    0 -0.70254711315E+01 -0.11882061168E+02  0.25762787648E+02  0.29227758208E+02  0.51100000000E-03 0. -1.
        -11    1    3    3    0    0 -0.74568866505E+01 -0.65285217800E+01  0.10516227707E+02  0.14450529423E+02  0.51100000000E-03 0.  1.
         12    1    3    3    0    0 -0.24736041822E+01 -0.24361598663E+01 -0.21977596195E+01  0.41089828291E+01  0.00000000000E+00 0. -1.
</event>
<event>
 7    1  0.4876728E-009  0.4778727E+02  0.7816164E-02  0.1312668E+00
        -11   -1    0    0    0    0  0.00000000000E+00  0.00000000000E+00  0.45593999997E+02  0.45594000000E+02  0.51100000000E-03 0. -1.
         11   -1    0    0    0    0 -0.00000000000E+00 -0.00000000000E+00 -0.45593999997E+02  0.45594000000E+02  0.51100000000E-03 0.  1.
    9900012    2    1    2    0    0 -0.12287688601E+02  0.19856625422E+02 -0.36583476114E+02  0.47787267415E+02  0.19999983454E+02 0.  0.
         12    1    1    2    0    0  0.12287688601E+02 -0.19856625422E+02  0.36583476114E+02  0.43400732585E+02  0.00000000000E+00 0. -1.
         11    1    3    3    0    0 -0.41548827702E+00 -0.82675648285E+00  0.99102480053E+00  0.13558345056E+01  0.51100000000E-03 0. -1.
        -11    1    3    3    0    0 -0.22436581222E+01  0.12754345623E+02 -0.27504480628E+02  0.30400720204E+02  0.51100000000E-03 0.  1.
        -12    1    3    3    0    0 -0.96285422015E+01  0.79290362825E+01 -0.10070020287E+02  0.16030712706E+02  0.00000000000E+00 0.  1.
</event>
<event>
 7    1  0.4876728E-009  0.4778727E+02  0.7816164E-02  0.1312668E+00
        -11   -1    0    0    0    0  0.00000000000E+00  0.00000000000E+00  0.45593999997E+02  0.45594000000E+02  0.51100000000E-03 0.  1.
         11   -1    0    0    0    0 -0.00000000000E+00 -0.00000000000E+00 -0.45593999997E+02  0.45594000000E+02  0.51100000000E-03 0. -1.
    9900012    2    1    2    0    0  0.79553406490E+01 -0.38747197491E+02  0.17860302674E+02  0.47787272243E+02  0.20000005465E+02 0.  0.
         12    1    1    2    0    0 -0.79553406490E+01  0.38747197491E+02 -0.17860302674E+02  0.43400727757E+02  0.00000000000E+00 0. -1.
         11    1    3    3    0    0  0.85668046696E+01 -0.38161239550E+02  0.11041284855E+02  0.40639639734E+02  0.51100000000E-03 0. -1.
        -11    1    3    3    0    0  0.27967211676E+00  0.59429671466E+00  0.18456353377E+01  0.19590240272E+01  0.51100000000E-03 0.  1.
         12    1    3    3    0    0 -0.89113613736E+00 -0.11802546556E+01  0.49733824816E+01  0.51886084817E+01  0.00000000000E+00 0. -1.
</event>
<event>
 7    1  0.4876728E-009  0.4778727E+02  0.7816164E-02  0.1312668E+00
        -11   -1    0    0    0    0  0.00000000000E+00  0.00000000000E+00  0.45593999997E+02  0.45594000000E+02  0.51100000000E-03 0.  1.
         11   -1    0    0    0    0 -0.00000000000E+00 -0.00000000000E+00 -0.45593999997E+02  0.45594000000E+02  0.51100000000E-03 0. -1.
    9900012    2    1    2    0    0  0.43240871451E+02 -0.30188105431E+01 -0.21764127689E+01  0.47787274736E+02  0.20000016830E+02 0.  0.
         12    1    1    2    0    0 -0.43240871451E+02  0.30188105431E+01  0.21764127689E+01  0.43400725264E+02  0.00000000000E+00 0. -1.
         11    1    3    3    0    0  0.20779305651E+01 -0.88367655633E+00  0.13615509266E+01  0.26367595409E+01  0.51100000000E-03 0. -1.
        -11    1    3    3    0    0  0.69895479993E+01 -0.51454072126E+01  0.46992148493E+01  0.98697323712E+01  0.51100000000E-03 0.  1.
        -12    1    3    3    0    0  0.34173392886E+02  0.30102732258E+01 -0.82371785448E+01  0.35280782824E+02  0.00000000000E+00 0.  1.
</event>
<event>
 7    1  0.4876728E-009  0.4778727E+02  0.7816164E-02  0.1312668E+00
        -11   -1    0    0    0    0  0.00000000000E+00  0.00000000000E+00  0.45593999997E+02  0.45594000000E+02  0.51100000000E-03 0.  1.
         11   -1    0    0    0    0 -0.00000000000E+00 -0.00000000000E+00 -0.45593999997E+02  0.45594000000E+02  0.51100000000E-03 0. -1.
    9900012    2    1    2    0    0  0.64309864965E+01 -0.16801743511E+02  0.39496418674E+02  0.47787271200E+02  0.20000000708E+02 0.  0.
         12    1    1    2    0    0 -0.64309864965E+01  0.16801743511E+02 -0.39496418674E+02  0.43400728800E+02  0.00000000000E+00 0. -1.
         11    1    3    3    0    0  0.27993590456E+01  0.28887026660E+01  0.90811422692E+01  0.99321779753E+01  0.51100000000E-03 0. -1.
        -11    1    3    3    0    0  0.61418494598E+01 -0.18902665794E+02  0.26192391124E+02  0.32879696500E+02  0.51100000000E-03 0.  1.
         12    1    3    3    0    0 -0.25102220089E+01 -0.78778038283E+00  0.42228852809E+01  0.49753967240E+01  0.00000000000E+00 0. -1.
</event>
<event>
 7    1  0.4876728E-009  0.4778727E+02  0.7816164E-02  0.1312668E+00
        -11   -1    0    0    0    0  0.00000000000E+00  0.00000000000E+00  0.45593999997E+02  0.45594000000E+02  0.51100000000E-03 0. -1.
         11   -1    0    0    0    0 -0.00000000000E+00 -0.00000000000E+00 -0.45593999997E+02  0.45594000000E+02  0.51100000000E-03 0.  1.
    9900012    2    1    2    0    0  0.16703093180E+02  0.34471974935E+02 -0.20403759899E+02  0.47787265033E+02  0.19999972589E+02 0.  0.
         12    1    1    2    0    0 -0.16703093180E+02 -0.34471974935E+02  0.20403759899E+02  0.43400734967E+02  0.00000000000E+00 0. -1.
         11    1    3    3    0    0 -0.20143928766E+01  0.51638549007E+00  0.79668993730E+00  0.22269144018E+01  0.51100000000E-03 0. -1.
        -11    1    3    3    0    0  0.13202259641E+02  0.29085191354E+02 -0.20948782454E+02  0.38198160980E+02  0.51100000000E-03 0.  1.
        -12    1    3    3    0    0  0.55152264151E+01  0.48703980914E+01 -0.25166738270E+00  0.73621896505E+01  0.00000000000E+00 0.  1.
</event>
<event>
 7    1  0.4876728E-009  0.4778727E+02  0.7816164E-02  0.1312668E+00
        -11   -1    0    0    0    0  0.00000000000E+00  0.00000000000E+00  0.45593999997E+02  0.45594000000E+02  0.51100000000E-03 0. -1.
         11   -1    0    0    0    0 -0.00000000000E+00 -0.00000000000E+00 -0.45593999997E+02  0.45594000000E+02  0.51100000000E-03 0.  1.
    9900012    2    1    2    0    0  0.94788644692E+01  0.28139507966E+02 -0.31653474781E+02  0.47787271367E+02  0.20000001471E+02 0.  0.
         12    1    1    2    0    0 -0.94788644692E+01 -0.28139507966E+02  0.31653474781E+02  0.43400728633E+02  0.00000000000E+00 0. -1.
         11    1    3    3    0    0  0.44529541601E+01  0.72456390705E+01 -0.12687077465E+02  0.15273834527E+02  0.51100000000E-03 0. -1.
        -11    1    3    3    0    0  0.18928902193E+01  0.15875871500E+02 -0.40888304240E+01  0.16502874409E+02  0.51100000000E-03 0.  1.
        -12    1    3    3    0    0  0.31330200898E+01  0.50179973953E+01 -0.14877566892E+02  0.16010562431E+02  0.00000000000E+00 0.  1.
</event>
<event>
 7    1  0.4876728E-009  0.4778727E+02  0.7816164E-02  0.1312668E+00
        -11   -1    0    0    0    0  0.00000000000E+00  0.00000000000E+00  0.45593999997E+02  0.45594000000E+02  0.51100000000E-03 0. -1.
         11   -1    0    0    0    0 -0.00000000000E+00 -0.00000000000E+00 -0.45593999997E+02  0.45594000000E+02  0.51100000000E-03 0.  1.
    9900012    2    1    2    0    0  0.35806982539E+01 -0.42038437110E+02 -0.10177015623E+02  0.47787271416E+02  0.20000001695E+02 0.  0.
         12    1    1    2    0    0 -0.35806982539E+01  0.42038437110E+02  0.10177015623E+02  0.43400728584E+02  0.00000000000E+00 0. -1.
         11    1    3    3    0    0 -0.64407569621E+01 -0.64617305975E+01 -0.51088217561E+01  0.10456451241E+02  0.51100000000E-03 0.  1.
        -11    1    3    3    0    0  0.68653387610E+01 -0.22125827520E+02 -0.33855384761E+01  0.23412539178E+02  0.51100000000E-03 0. -1.
        -12    1    3    3    0    0  0.31561164550E+01 -0.13450878992E+02 -0.16826553913E+01  0.13918280997E+02  0.00000000000E+00 0.  1.
</event>
<event>
 7    1  0.4876728E-009  0.4778728E+02  0.7816164E-02  0.1312668E+00
        -11   -1    0    0    0    0  0.00000000000E+00  0.00000000000E+00  0.45593999997E+02  0.45594000000E+02  0.51100000000E-03 0. -1.
         11   -1    0    0    0    0 -0.00000000000E+00 -0.00000000000E+00 -0.45593999997E+02  0.45594000000E+02  0.51100000000E-03 0.  1.
    9900012    2    1    2    0    0  0.20119892918E+02  0.30846094296E+02  0.22963694868E+02  0.47787275279E+02  0.20000019305E+02 0.  0.
         12    1    1    2    0    0 -0.20119892918E+02 -0.30846094296E+02 -0.22963694868E+02  0.43400724721E+02  0.00000000000E+00 0. -1.
         11    1    3    3    0    0  0.35986108497E+01  0.49251792388E+01  0.10436016475E+02  0.12087920859E+02  0.51100000000E-03 0. -1.
        -11    1    3    3    0    0  0.15266150376E+02  0.26555355183E+02  0.13986602952E+02  0.33672946093E+02  0.51100000000E-03 0.  1.
        -12    1    3    3    0    0  0.12551316919E+01 -0.63444012553E+00 -0.14589245584E+01  0.20264083261E+01  0.00000000000E+00 0.  1.
</event>
<event>
 7    1  0.4876728E-009  0.4778728E+02  0.7816164E-02  0.1312668E+00
        -11   -1    0    0    0    0  0.00000000000E+00  0.00000000000E+00  0.45593999997E+02  0.45594000000E+02  0.51100000000E-03 0.  1.
         11   -1    0    0    0    0 -0.00000000000E+00 -0.00000000000E+00 -0.45593999997E+02  0.45594000000E+02  0.51100000000E-03 0. -1.
    9900012    2    1    2    0    0 -0.40260158973E+02  0.44678018039E+00  0.16203173847E+02  0.47787275861E+02  0.20000021960E+02 0.  0.
         12    1    1    2    0    0  0.40260158973E+02 -0.44678018039E+00 -0.16203173847E+02  0.43400724139E+02  0.00000000000E+00 0. -1.
         11    1    3    3    0    0 -0.70315694483E+01 -0.43201363731E+01  0.93747445423E+01  0.12489691056E+02  0.51100000000E-03 0. -1.
        -11    1    3    3    0    0 -0.69828345550E+01  0.32460098648E+01  0.44662089154E+01  0.89018863620E+01  0.51100000000E-03 0.  1.
         12    1    3    3    0    0 -0.26245754970E+02  0.15209066887E+01  0.23622203895E+01  0.26395698443E+02  0.00000000000E+00 0. -1.
</event>
<event>
 7    1  0.4876728E-009  0.4778727E+02  0.7816164E-02  0.1312668E+00
        -11   -1    0    0    0    0  0.00000000000E+00  0.00000000000E+00  0.45593999997E+02  0.45594000000E+02  0.51100000000E-03 0.  1.
         11   -1    0    0    0    0 -0.00000000000E+00 -0.00000000000E+00 -0.45593999997E+02  0.45594000000E+02  0.51100000000E-03 0. -1.
    9900012    2    1    2    0    0 -0.25496743539E+02 -0.10942255646E+02  0.33373741622E+02  0.47787268214E+02  0.19999987097E+02 0.  0.
         12    1    1    2    0    0  0.25496743539E+02  0.10942255646E+02 -0.33373741622E+02  0.43400731786E+02  0.00000000000E+00 0. -1.
         11    1    3    3    0    0 -0.10607440972E+02 -0.11886457322E+02  0.77106196898E+01  0.17699133535E+02  0.51100000000E-03 0. -1.
        -11    1    3    3    0    0 -0.13036874141E+02 -0.85075014200E+00  0.20363590663E+02  0.24194207739E+02  0.51100000000E-03 0.  1.
         12    1    3    3    0    0 -0.18524284257E+01  0.17949518184E+01  0.52995312695E+01  0.58939269404E+01  0.00000000000E+00 0. -1.
</event>
<event>
 7    1  0.4876728E-009  0.4778726E+02  0.7816164E-02  0.1312668E+00
        -11   -1    0    0    0    0  0.00000000000E+00  0.00000000000E+00  0.45593999997E+02  0.45594000000E+02  0.51100000000E-03 0.  1.
         11   -1    0    0    0    0 -0.00000000000E+00 -0.00000000000E+00 -0.45593999997E+02  0.45594000000E+02  0.51100000000E-03 0. -1.
    9900012    2    1    2    0    0 -0.30907867396E+02  0.86561795701E+01  0.29212981073E+02  0.47787262968E+02  0.19999963176E+02 0.  0.
         12    1    1    2    0    0  0.30907867396E+02 -0.86561795701E+01 -0.29212981073E+02  0.43400737032E+02  0.00000000000E+00 0. -1.
         11    1    3    3    0    0 -0.46460713922E+01 -0.75601468814E+00  0.11736752531E+02  0.12645508998E+02  0.51100000000E-03 0. -1.
        -11    1    3    3    0    0 -0.20472119681E+02  0.27552443519E+01  0.78862423039E+01  0.22110899430E+02  0.51100000000E-03 0.  1.
         12    1    3    3    0    0 -0.57896763234E+01  0.66569499063E+01  0.95899862382E+01  0.13030854540E+02  0.00000000000E+00 0. -1.
</event>
<event>
 7    1  0.4876728E-009  0.4778727E+02  0.7816164E-02  0.1312668E+00
        -11   -1    0    0    0    0  0.00000000000E+00  0.00000000000E+00  0.45593999997E+02  0.45594000000E+02  0.51100000000E-03 0.  1.
         11   -1    0    0    0    0 -0.00000000000E+00 -0.00000000000E+00 -0.45593999997E+02  0.45594000000E+02  0.51100000000E-03 0. -1.
    9900012    2    1    2    0    0  0.37033043214E+02 -0.16669073690E+02  0.15307479437E+02  0.47787271502E+02  0.20000002088E+02 0.  0.
         12    1    1    2    0    0 -0.37033043214E+02  0.16669073690E+02 -0.15307479437E+02  0.43400728498E+02  0.00000000000E+00 0. -1.
         11    1    3    3    0    0  0.81468331403E+01 -0.74351646045E+01  0.91484294455E-01  0.11030001475E+02  0.51100000000E-03 0. -1.
        -11    1    3    3    0    0  0.19676453913E+02 -0.95773953348E+01  0.16560724611E+02  0.27443522731E+02  0.51100000000E-03 0.  1.
        -12    1    3    3    0    0  0.92097561607E+01  0.34348624907E+00 -0.13447294684E+01  0.93137472956E+01  0.00000000000E+00 0.  1.
</event>
<event>
 7    1  0.4876728E-009  0.4778727E+02  0.7816164E-02  0.1312668E+00
        -11   -1    0    0    0    0  0.00000000000E+00  0.00000000000E+00  0.45593999997E+02  0.45594000000E+02  0.51100000000E-03 0.  1.
         11   -1    0    0    0    0 -0.00000000000E+00 -0.00000000000E+00 -0.45593999997E+02  0.45594000000E+02  0.51100000000E-03 0. -1.
    9900012    2    1    2    0    0 -0.46657794752E+01 -0.33629177738E+02  0.27035755293E+02  0.47787272383E+02  0.20000006101E+02 0.  0.
         12    1    1    2    0    0  0.46657794752E+01  0.33629177738E+02 -0.27035755293E+02  0.43400727617E+02  0.00000000000E+00 0. -1.
         11    1    3    3    0    0  0.46152598391E+01 -0.75979070151E+01  0.11919863419E+01  0.89693726700E+01  0.51100000000E-03 0. -1.
        -11    1    3    3    0    0 -0.52721955441E+01 -0.22287568076E+02  0.23616429405E+02  0.32897833890E+02  0.51100000000E-03 0.  1.
         12    1    3    3    0    0 -0.40088437701E+01 -0.37437026473E+01  0.22273395463E+01  0.59200658222E+01  0.00000000000E+00 0. -1.
</event>
<event>
 7    1  0.4876728E-009  0.4778729E+02  0.7816164E-02  0.1312668E+00
        -11   -1    0    0    0    0  0.00000000000E+00  0.00000000000E+00  0.45593999997E+02  0.45594000000E+02  0.51100000000E-03 0. -1.
         11   -1    0    0    0    0 -0.00000000000E+00 -0.00000000000E+00 -0.45593999997E+02  0.45594000000E+02  0.51100000000E-03 0.  1.
    9900012    2    1    2    0    0  0.66658738941E+01 -0.16590781480E+02 -0.39546600440E+02  0.47787291351E+02  0.20000092587E+02 0.  0.
         12    1    1    2    0    0 -0.66658738941E+01  0.16590781480E+02  0.39546600440E+02  0.43400708649E+02  0.00000000000E+00 0. -1.
         11    1    3    3    0    0 -0.37720666583E+01 -0.43641511758E+01 -0.25571096053E+02  0.26213646369E+02  0.51100000000E-03 0. -1.
        -11    1    3    3    0    0  0.62427212189E+01 -0.67790028257E+01 -0.57899537100E+01  0.10883474250E+02  0.51100000000E-03 0.  1.
         12    1    3    3    0    0  0.41952193335E+01 -0.54476274782E+01 -0.81855506766E+01  0.10690170732E+02  0.00000000000E+00 0. -1.
</event>
<event>
 7    1  0.4876728E-009  0.4778726E+02  0.7816164E-02  0.1312668E+00
        -11   -1    0    0    0    0  0.00000000000E+00  0.00000000000E+00  0.45593999997E+02  0.45594000000E+02  0.51100000000E-03 0. -1.
         11   -1    0    0    0    0 -0.00000000000E+00 -0.00000000000E+00 -0.45593999997E+02  0.45594000000E+02  0.51100000000E-03 0.  1.
    9900012    2    1    2    0    0  0.23701304830E+02 -0.30533907669E+02 -0.19737087452E+02  0.47787262803E+02  0.19999962426E+02 0.  0.
         12    1    1    2    0    0 -0.23701304830E+02  0.30533907669E+02  0.19737087452E+02  0.43400737197E+02  0.00000000000E+00 0. -1.
         11    1    3    3    0    0  0.63652619341E+01 -0.14244439159E+02 -0.16438737324E+02  0.22663907242E+02  0.51100000000E-03 0. -1.
        -11    1    3    3    0    0  0.14651471431E+02 -0.16412543994E+02 -0.18705579676E+01  0.22080221983E+02  0.51100000000E-03 0.  1.
        -12    1    3    3    0    0  0.26845714641E+01  0.12307548389E+00 -0.14277921604E+01  0.30431335781E+01  0.00000000000E+00 0.  1.
</event>
<event>
 7    1  0.4876728E-009  0.4778727E+02  0.7816164E-02  0.1312668E+00
        -11   -1    0    0    0    0  0.00000000000E+00  0.00000000000E+00  0.45593999997E+02  0.45594000000E+02  0.51100000000E-03 0. -1.
         11   -1    0    0    0    0 -0.00000000000E+00 -0.00000000000E+00 -0.45593999997E+02  0.45594000000E+02  0.51100000000E-03 0.  1.
    9900012    2    1    2    0    0  0.20886078072E+02  0.53294121777E+01 -0.37669513481E+02  0.47787272618E+02  0.20000007175E+02 0.  0.
         12    1    1    2    0    0 -0.20886078072E+02 -0.53294121777E+01  0.37669513481E+02  0.43400727382E+02  0.00000000000E+00 0. -1.
         11    1    3    3    0    0  0.12412666102E+02 -0.45939398382E+00 -0.26869846179E+02  0.29601924879E+02  0.51100000000E-03 0.  1.
        -11    1    3    3    0    0  0.56556438811E+01  0.95591720703E-01 -0.55957101005E-03  0.56564517201E+01  0.51100000000E-03 0. -1.
         12    1    3    3    0    0  0.28177680889E+01  0.56932144408E+01 -0.10799107731E+02  0.12528896019E+02  0.00000000000E+00 0. -1.
</event>
<event>
 7    1  0.4876728E-009  0.4778727E+02  0.7816164E-02  0.1312668E+00
        -11   -1    0    0    0    0  0.00000000000E+00  0.00000000000E+00  0.45593999997E+02  0.45594000000E+02  0.51100000000E-03 0.  1.
         11   -1    0    0    0    0 -0.00000000000E+00 -0.00000000000E+00 -0.45593999997E+02  0.45594000000E+02  0.51100000000E-03 0. -1.
    9900012    2    1    2    0    0  0.21898398888E+02 -0.20865430783E+02  0.31124223742E+02  0.47787269831E+02  0.19999994467E+02 0.  0.
         12    1    1    2    0    0 -0.21898398888E+02  0.20865430783E+02 -0.31124223742E+02  0.43400730169E+02  0.00000000000E+00 0. -1.
         11    1    3    3    0    0 -0.28212999716E+01 -0.81992169557E+00  0.71892491218E+01  0.77664218474E+01  0.51100000000E-03 0. -1.
        -11    1    3    3    0    0  0.16884370485E+02 -0.15846041284E+02  0.18052281662E+02  0.29360924109E+02  0.51100000000E-03 0.  1.
         12    1    3    3    0    0  0.78353283745E+01 -0.41994678038E+01  0.58826929585E+01  0.10659923875E+02  0.00000000000E+00 0. -1.
</event>
<event>
 7    1  0.4876728E-009  0.4778727E+02  0.7816164E-02  0.1312668E+00
        -11   -1    0    0    0    0  0.00000000000E+00  0.00000000000E+00  0.45593999997E+02  0.45594000000E+02  0.51100000000E-03 0.  1.
         11   -1    0    0    0    0 -0.00000000000E+00 -0.00000000000E+00 -0.45593999997E+02  0.45594000000E+02  0.51100000000E-03 0. -1.
    9900012    2    1    2    0    0 -0.27496755689E+01  0.17405456126E+02  0.39662480368E+02  0.47787274572E+02  0.20000016086E+02 0.  0.
         12    1    1    2    0    0  0.27496755689E+01 -0.17405456126E+02 -0.39662480368E+02  0.43400725428E+02  0.00000000000E+00 0. -1.
         11    1    3    3    0    0 -0.85532785681E+01  0.40672242203E+01  0.12305708365E+02  0.15528404482E+02  0.51100000000E-03 0. -1.
        -11    1    3    3    0    0  0.30422313398E+00  0.73959518609E+01  0.19974874739E+02  0.21302306841E+02  0.51100000000E-03 0.  1.
         12    1    3    3    0    0  0.54993798653E+01  0.59422800444E+01  0.73818972640E+01  0.10956563250E+02  0.00000000000E+00 0. -1.
</event>
<event>
 7    1  0.4876728E-009  0.4778727E+02  0.7816164E-02  0.1312668E+00
        -11   -1    0    0    0    0  0.00000000000E+00  0.00000000000E+00  0.45593999997E+02  0.45594000000E+02  0.51100000000E-03 0. -1.
         11   -1    0    0    0    0 -0.00000000000E+00 -0.00000000000E+00 -0.45593999997E+02  0.45594000000E+02  0.51100000000E-03 0.  1.
    9900012    2    1    2    0    0  0.15730902058E+01  0.15218816913E+02 -0.40614484496E+02  0.47787270146E+02  0.19999995903E+02 0.  0.
         12    1    1    2    0    0 -0.15730902058E+01 -0.15218816913E+02  0.40614484496E+02  0.43400729854E+02  0.00000000000E+00 0. -1.
         11    1    3    3    0    0  0.90456855122E+01  0.81803838005E+01 -0.21663380360E+02  0.24860513961E+02  0.51100000000E-03 0. -1.
        -11    1    3    3    0    0 -0.86604009898E+01  0.50834029858E+01 -0.17618243667E+02  0.20279202188E+02  0.51100000000E-03 0.  1.
        -12    1    3    3    0    0  0.11878056834E+01  0.19550301268E+01 -0.13328604689E+01  0.26475539971E+01  0.00000000000E+00 0.  1.
</event>
<event>
 7    1  0.4876728E-009  0.4778727E+02  0.7816164E-02  0.1312668E+00
        -11   -1    0    0    0    0  0.00000000000E+00  0.00000000000E+00  0.45593999997E+02  0.45594000000E+02  0.51100000000E-03 0.  1.
         11   -1    0    0    0    0 -0.00000000000E+00 -0.00000000000E+00 -0.45593999997E+02  0.45594000000E+02  0.51100000000E-03 0. -1.
    9900012    2    1    2    0    0 -0.35310256657E+02 -0.21743883791E+02  0.12806753632E+02  0.47787266756E+02  0.19999980447E+02 0.  0.
         12    1    1    2    0    0  0.35310256657E+02  0.21743883791E+02 -0.12806753632E+02  0.43400733244E+02  0.00000000000E+00 0. -1.
         11    1    3    3    0    0 -0.14062460364E+02 -0.14828049777E+02  0.14257831391E+02  0.24918057868E+02  0.51100000000E-03 0. -1.
        -11    1    3    3    0    0 -0.17567104407E+02 -0.38069008527E+01 -0.16243849545E+01  0.18048110097E+02  0.51100000000E-03 0.  1.
         12    1    3    3    0    0 -0.36806918869E+01 -0.31089331614E+01  0.17330719522E+00  0.48210987910E+01  0.00000000000E+00 0. -1.
</event>
<event>
 7    1  0.4876728E-009  0.4778727E+02  0.7816164E-02  0.1312668E+00
        -11   -1    0    0    0    0  0.00000000000E+00  0.00000000000E+00  0.45593999997E+02  0.45594000000E+02  0.51100000000E-03 0.  1.
         11   -1    0    0    0    0 -0.00000000000E+00 -0.00000000000E+00 -0.45593999997E+02  0.45594000000E+02  0.51100000000E-03 0. -1.
    9900012    2    1    2    0    0  0.13927506555E+02  0.15580137830E+02  0.38038232941E+02  0.47787270756E+02  0.19999998684E+02 0.  0.
         12    1    1    2    0    0 -0.13927506555E+02 -0.15580137830E+02 -0.38038232941E+02  0.43400729244E+02  0.00000000000E+00 0. -1.
         11    1    3    3    0    0  0.74424348672E+01  0.73325983767E+01  0.55464879597E+01  0.11828793880E+02  0.51100000000E-03 0. -1.
        -11    1    3    3    0    0  0.66649120727E+01  0.66104994075E+01  0.11245873715E+02  0.14648871330E+02  0.51100000000E-03 0.  1.
         12    1    3    3    0    0 -0.17984038485E+00  0.16370400461E+01  0.21245871266E+02  0.21309605546E+02  0.00000000000E+00 0. -1.
</event>
<event>
 7    1  0.4876728E-009  0.4778727E+02  0.7816164E-02  0.1312668E+00
        -11   -1    0    0    0    0  0.00000000000E+00  0.00000000000E+00  0.45593999997E+02  0.45594000000E+02  0.51100000000E-03 0.  1.
         11   -1    0    0    0    0 -0.00000000000E+00 -0.00000000000E+00 -0.45593999997E+02  0.45594000000E+02  0.51100000000E-03 0. -1.
    9900012    2    1    2    0    0  0.10347255722E+02 -0.41133625361E+02 -0.91968645621E+01  0.47787272425E+02  0.20000006293E+02 0.  0.
         12    1    1    2    0    0 -0.10347255722E+02  0.41133625361E+02  0.91968645621E+01  0.43400727575E+02  0.00000000000E+00 0. -1.
         11    1    3    3    0    0  0.25845782363E+01 -0.18690950559E+01 -0.45252904689E+01  0.55364081386E+01  0.51100000000E-03 0. -1.
        -11    1    3    3    0    0  0.88308794566E+01 -0.33239826099E+02  0.25738150076E+00  0.34393847074E+02  0.51100000000E-03 0.  1.
         12    1    3    3    0    0 -0.10682019710E+01 -0.60247042060E+01 -0.49289555939E+01  0.78570172118E+01  0.00000000000E+00 0. -1.
</event>
<event>
 7    1  0.4876728E-009  0.4778730E+02  0.7816164E-02  0.1312668E+00
        -11   -1    0    0    0    0  0.00000000000E+00  0.00000000000E+00  0.45593999997E+02  0.45594000000E+02  0.51100000000E-03 0. -1.
         11   -1    0    0    0    0 -0.00000000000E+00 -0.00000000000E+00 -0.45593999997E+02  0.45594000000E+02  0.51100000000E-03 0.  1.
    9900012    2    1    2    0    0  0.14555661986E+02  0.67217566228E+00 -0.40881557826E+02  0.47787298551E+02  0.20000125414E+02 0.  0.
         12    1    1    2    0    0 -0.14555661986E+02 -0.67217566228E+00  0.40881557826E+02  0.43400701449E+02  0.00000000000E+00 0. -1.
         11    1    3    3    0    0 -0.97537552125E+00 -0.22765753986E+01 -0.30848612217E+01  0.39560740604E+01  0.51100000000E-03 0. -1.
        -11    1    3    3    0    0  0.63519991656E+01 -0.44855569721E+01 -0.25997594870E+02  0.27135641765E+02  0.51100000000E-03 0.  1.
        -12    1    3    3    0    0  0.91790383415E+01  0.74343080330E+01 -0.11799101735E+02  0.16695582726E+02  0.00000000000E+00 0.  1.
</event>
<event>
 7    1  0.4876728E-009  0.4778727E+02  0.7816164E-02  0.1312668E+00
        -11   -1    0    0    0    0  0.00000000000E+00  0.00000000000E+00  0.45593999997E+02  0.45594000000E+02  0.51100000000E-03 0.  1.
         11   -1    0    0    0    0 -0.00000000000E+00 -0.00000000000E+00 -0.45593999997E+02  0.45594000000E+02  0.51100000000E-03 0. -1.
    9900012    2    1    2    0    0  0.36241642274E+02 -0.12636240601E+02  0.20260615028E+02  0.47787265760E+02  0.19999975907E+02 0.  0.
         12    1    1    2    0    0 -0.36241642274E+02  0.12636240601E+02 -0.20260615028E+02  0.43400734240E+02  0.00000000000E+00 0. -1.
         11    1    3    3    0    0 -0.17638235838E+01 -0.15927780041E+01  0.39836010514E+01  0.46386520674E+01  0.51100000000E-03 0. -1.
        -11    1    3    3    0    0  0.21178875013E+02 -0.60770266435E+01  0.12005139700E+02  0.25091799042E+02  0.51100000000E-03 0.  1.
         12    1    3    3    0    0  0.16826590844E+02 -0.49664359537E+01  0.42718742771E+01  0.18056814651E+02  0.00000000000E+00 0. -1.
</event>
<event>
 7    1  0.4876728E-009  0.4778727E+02  0.7816164E-02  0.1312668E+00
        -11   -1    0    0    0    0  0.00000000000E+00  0.00000000000E+00  0.45593999997E+02  0.45594000000E+02  0.51100000000E-03 0.  1.
         11   -1    0    0    0    0 -0.00000000000E+00 -0.00000000000E+00 -0.45593999997E+02  0.45594000000E+02  0.51100000000E-03 0. -1.
    9900012    2    1    2    0    0 -0.35390745519E+02 -0.10584536224E+02  0.22783461577E+02  0.47787269627E+02  0.19999993539E+02 0.  0.
         12    1    1    2    0    0  0.35390745519E+02  0.10584536224E+02 -0.22783461577E+02  0.43400730373E+02  0.00000000000E+00 0. -1.
         11    1    3    3    0    0 -0.13673019515E+01 -0.15559815166E+01  0.22376246316E+01  0.30491896234E+01  0.51100000000E-03 0. -1.
        -11    1    3    3    0    0 -0.10706446856E+02 -0.17414261940E+01  0.16837526195E+02  0.20029050355E+02  0.51100000000E-03 0.  1.
        -12    1    3    3    0    0 -0.23316996711E+02 -0.72871285131E+01  0.37083107506E+01  0.24709029649E+02  0.00000000000E+00 0.  1.
</event>
<event>
 7    1  0.4876728E-009  0.4778727E+02  0.7816164E-02  0.1312668E+00
        -11   -1    0    0    0    0  0.00000000000E+00  0.00000000000E+00  0.45593999997E+02  0.45594000000E+02  0.51100000000E-03 0. -1.
         11   -1    0    0    0    0 -0.00000000000E+00 -0.00000000000E+00 -0.45593999997E+02  0.45594000000E+02  0.51100000000E-03 0.  1.
    9900012    2    1    2    0    0  0.37910021478E+02 -0.16434919933E+02  0.13279562005E+02  0.47787273177E+02  0.20000009724E+02 0.  0.
         12    1    1    2    0    0 -0.37910021478E+02  0.16434919933E+02 -0.13279562005E+02  0.43400726823E+02  0.00000000000E+00 0. -1.
         11    1    3    3    0    0  0.20908209497E+02 -0.77314528785E+01  0.16076015325E+02  0.27483938164E+02  0.51100000000E-03 0. -1.
        -11    1    3    3    0    0  0.55782917404E+01 -0.22430747441E+01 -0.38466491887E+01  0.71376069723E+01  0.51100000000E-03 0.  1.
         12    1    3    3    0    0  0.11423520241E+02 -0.64603923107E+01  0.10501958686E+01  0.13165728041E+02  0.00000000000E+00 0. -1.
</event>
<event>
 7    1  0.4876728E-009  0.4778727E+02  0.7816164E-02  0.1312668E+00
        -11   -1    0    0    0    0  0.00000000000E+00  0.00000000000E+00  0.45593999997E+02  0.45594000000E+02  0.51100000000E-03 0. -1.
         11   -1    0    0    0    0 -0.00000000000E+00 -0.00000000000E+00 -0.45593999997E+02  0.45594000000E+02  0.51100000000E-03 0.  1.
    9900012    2    1    2    0    0 -0.24740227671E+02 -0.33276110715E+02 -0.12815809805E+02  0.47787269701E+02  0.19999993874E+02 0.  0.
         12    1    1    2    0    0  0.24740227671E+02  0.33276110715E+02  0.12815809805E+02  0.43400730299E+02  0.00000000000E+00 0. -1.
         11    1    3    3    0    0 -0.70716477624E+01 -0.23649921436E+01  0.16960706190E+01  0.76470939396E+01  0.51100000000E-03 0. -1.
        -11    1    3    3    0    0 -0.62608758957E+01 -0.15121644405E+02 -0.12426697110E+02  0.20549586318E+02  0.51100000000E-03 0.  1.
        -12    1    3    3    0    0 -0.11407704013E+02 -0.15789474166E+02 -0.20851833138E+01  0.19590589444E+02  0.00000000000E+00 0.  1.
</event>
<event>
 7    1  0.4876728E-009  0.4778727E+02  0.7816164E-02  0.1312668E+00
        -11   -1    0    0    0    0  0.00000000000E+00  0.00000000000E+00  0.45593999997E+02  0.45594000000E+02  0.51100000000E-03 0. -1.
         11   -1    0    0    0    0 -0.00000000000E+00 -0.00000000000E+00 -0.45593999997E+02  0.45594000000E+02  0.51100000000E-03 0.  1.
    9900012    2    1    2    0    0 -0.30172609137E+02  0.31081124010E+02 -0.26833556968E+01  0.47787274089E+02  0.20000013879E+02 0.  0.
         12    1    1    2    0    0  0.30172609137E+02 -0.31081124010E+02  0.26833556968E+01  0.43400725911E+02  0.00000000000E+00 0. -1.
         11    1    3    3    0    0 -0.25750366285E+02  0.22395441205E+02 -0.28719997070E+01  0.34247416445E+02  0.51100000000E-03 0.  1.
        -11    1    3    3    0    0 -0.10998032631E+01  0.90035194925E+01 -0.23225210755E+01  0.93630675997E+01  0.51100000000E-03 0. -1.
        -12    1    3    3    0    0 -0.33224395888E+01 -0.31783668794E+00  0.25111650857E+01  0.41767900437E+01  0.00000000000E+00 0.  1.
</event>
<event>
 7    1  0.4876728E-009  0.4778727E+02  0.7816164E-02  0.1312668E+00
        -11   -1    0    0    0    0  0.00000000000E+00  0.00000000000E+00  0.45593999997E+02  0.45594000000E+02  0.51100000000E-03 0. -1.
         11   -1    0    0    0    0 -0.00000000000E+00 -0.00000000000E+00 -0.45593999997E+02  0.45594000000E+02  0.51100000000E-03 0.  1.
    9900012    2    1    2    0    0  0.38105438596E+02  0.20711979906E+02  0.16163697985E+01  0.47787271740E+02  0.20000003170E+02 0.  0.
         12    1    1    2    0    0 -0.38105438596E+02 -0.20711979906E+02 -0.16163697985E+01  0.43400728260E+02  0.00000000000E+00 0. -1.
         11    1    3    3    0    0  0.68443634784E+01  0.35566829275E+00 -0.38499829646E+01  0.78609274547E+01  0.51100000000E-03 0. -1.
        -11    1    3    3    0    0  0.28374825212E+02  0.17411126099E+02  0.90107980582E+01  0.34488730040E+02  0.51100000000E-03 0.  1.
        -12    1    3    3    0    0  0.28862499050E+01  0.29451855142E+01 -0.35444452952E+01  0.54376142450E+01  0.00000000000E+00 0.  1.
</event>
<event>
 7    1  0.6481946E-009  0.4778727E+02  0.7816164E-02  0.1312668E+00
        -11   -1    0    0    0    0  0.00000000000E+00  0.00000000000E+00  0.45593999997E+02  0.45594000000E+02  0.51100000000E-03 0. -1.
         11   -1    0    0    0    0 -0.00000000000E+00 -0.00000000000E+00 -0.45593999997E+02  0.45594000000E+02  0.51100000000E-03 0.  1.
    9900012    2    1    2    0    0 -0.27628664796E+02  0.15707917998E+02 -0.29555736210E+02  0.47787270177E+02  0.19999996044E+02 0.  0.
         12    1    1    2    0    0  0.27628664796E+02 -0.15707917998E+02  0.29555736210E+02  0.43400729823E+02  0.00000000000E+00 0. -1.
         11    1    3    3    0    0 -0.22630202110E+02  0.15780687719E+02 -0.22703780541E+02  0.35729788742E+02  0.51100000000E-03 0.  1.
        -11    1    3    3    0    0 -0.63363674701E+01  0.18435726558E+01 -0.71166024093E+01  0.97053770132E+01  0.51100000000E-03 0. -1.
         12    1    3    3    0    0  0.13379047838E+01 -0.19163423764E+01  0.26464674011E+00  0.23521044218E+01  0.00000000000E+00 0. -1.
</event>
<event>
 7    1  0.4876728E-009  0.4778727E+02  0.7816164E-02  0.1312668E+00
        -11   -1    0    0    0    0  0.00000000000E+00  0.00000000000E+00  0.45593999997E+02  0.45594000000E+02  0.51100000000E-03 0. -1.
         11   -1    0    0    0    0 -0.00000000000E+00 -0.00000000000E+00 -0.45593999997E+02  0.45594000000E+02  0.51100000000E-03 0.  1.
    9900012    2    1    2    0    0  0.29429570150E+02 -0.29841182335E+02 -0.11270649562E+02  0.47787270698E+02  0.19999998419E+02 0.  0.
         12    1    1    2    0    0 -0.29429570150E+02  0.29841182335E+02  0.11270649562E+02  0.43400729302E+02  0.00000000000E+00 0. -1.
         11    1    3    3    0    0  0.14239181105E+02 -0.61993230155E+01 -0.52545929226E+01  0.16395018494E+02  0.51100000000E-03 0.  1.
        -11    1    3    3    0    0  0.22209026733E+01 -0.92207942357E+01 -0.72793425619E+01  0.11955930889E+02  0.51100000000E-03 0. -1.
        -12    1    3    3    0    0  0.12969486372E+02 -0.14421065084E+02  0.12632859221E+01  0.19436321314E+02  0.00000000000E+00 0.  1.
</event>
<event>
 7    1  0.4876728E-009  0.4778727E+02  0.7816164E-02  0.1312668E+00
        -11   -1    0    0    0    0  0.00000000000E+00  0.00000000000E+00  0.45593999997E+02  0.45594000000E+02  0.51100000000E-03 0.  1.
         11   -1    0    0    0    0 -0.00000000000E+00 -0.00000000000E+00 -0.45593999997E+02  0.45594000000E+02  0.51100000000E-03 0. -1.
    9900012    2    1    2    0    0 -0.28679750919E+02  0.25316104299E+02  0.20498538978E+02  0.47787270169E+02  0.19999996007E+02 0.  0.
         12    1    1    2    0    0  0.28679750919E+02 -0.25316104299E+02 -0.20498538978E+02  0.43400729831E+02  0.00000000000E+00 0. -1.
         11    1    3    3    0    0 -0.37340832364E+01  0.11458945242E+02  0.10995191522E+01  0.12102055458E+02  0.51100000000E-03 0. -1.
        -11    1    3    3    0    0 -0.24525610590E+02  0.12364008616E+02  0.15612028769E+02  0.31592874614E+02  0.51100000000E-03 0.  1.
         12    1    3    3    0    0 -0.42005709309E+00  0.14931504407E+01  0.37869910572E+01  0.40923400967E+01  0.00000000000E+00 0. -1.
</event>
<event>
 7    1  0.4876728E-009  0.4778727E+02  0.7816164E-02  0.1312668E+00
        -11   -1    0    0    0    0  0.00000000000E+00  0.00000000000E+00  0.45593999997E+02  0.45594000000E+02  0.51100000000E-03 0.  1.
         11   -1    0    0    0    0 -0.00000000000E+00 -0.00000000000E+00 -0.45593999997E+02  0.45594000000E+02  0.51100000000E-03 0. -1.
    9900012    2    1    2    0    0 -0.23815938420E+02  0.17610099930E+02  0.31722369479E+02  0.47787271115E+02  0.20000000322E+02 0.  0.
         12    1    1    2    0    0  0.23815938420E+02 -0.17610099930E+02 -0.31722369479E+02  0.43400728885E+02  0.00000000000E+00 0. -1.
         11    1    3    3    0    0 -0.83468682899E+01  0.13012535978E+01  0.21279714415E+01  0.87115861869E+01  0.51100000000E-03 0. -1.
        -11    1    3    3    0    0 -0.11329835588E+02  0.14065315666E+02  0.29221872950E+02  0.34352818490E+02  0.51100000000E-03 0.  1.
        -12    1    3    3    0    0 -0.41392345430E+01  0.22435306662E+01  0.37252508735E+00  0.47228664382E+01  0.00000000000E+00 0.  1.
</event>
<event>
 7    1  0.4876728E-009  0.4778728E+02  0.7816164E-02  0.1312668E+00
        -11   -1    0    0    0    0  0.00000000000E+00  0.00000000000E+00  0.45593999997E+02  0.45594000000E+02  0.51100000000E-03 0.  1.
         11   -1    0    0    0    0 -0.00000000000E+00 -0.00000000000E+00 -0.45593999997E+02  0.45594000000E+02  0.51100000000E-03 0. -1.
    9900012    2    1    2    0    0 -0.29908357687E+02  0.14847804522E+02  0.27724639013E+02  0.47787276883E+02  0.20000026621E+02 0.  0.
         12    1    1    2    0    0  0.29908357687E+02 -0.14847804522E+02 -0.27724639013E+02  0.43400723117E+02  0.00000000000E+00 0. -1.
         11    1    3    3    0    0 -0.27195414750E+02  0.12256606095E+02  0.20277366019E+02  0.36069191137E+02  0.51100000000E-03 0. -1.
        -11    1    3    3    0    0  0.63578831351E-01  0.46516860144E+01  0.15897924964E+01  0.49162654004E+01  0.51100000000E-03 0.  1.
         12    1    3    3    0    0 -0.27765217685E+01 -0.20604875874E+01  0.58574804984E+01  0.68018203459E+01  0.00000000000E+00 0. -1.
</event>
<event>
 7    1  0.4876728E-009  0.4778727E+02  0.7816164E-02  0.1312668E+00
        -11   -1    0    0    0    0  0.00000000000E+00  0.00000000000E+00  0.45593999997E+02  0.45594000000E+02  0.51100000000E-03 0. -1.
         11   -1    0    0    0    0 -0.00000000000E+00 -0.00000000000E+00 -0.45593999997E+02  0.45594000000E+02  0.51100000000E-03 0.  1.
    9900012    2    1    2    0    0 -0.20109756009E+02  0.23651093561E+00 -0.38459914267E+02  0.47787271555E+02  0.20000002327E+02 0.  0.
         12    1    1    2    0    0  0.20109756009E+02 -0.23651093561E+00  0.38459914267E+02  0.43400728445E+02  0.00000000000E+00 0. -1.
         11    1    3    3    0    0 -0.16056404325E+02  0.56823655754E+01 -0.22592454744E+02  0.28293398700E+02  0.51100000000E-03 0.  1.
        -11    1    3    3    0    0 -0.45141286610E+00 -0.55370817339E+01 -0.33933759697E+01  0.65098424279E+01  0.51100000000E-03 0. -1.
        -12    1    3    3    0    0 -0.36019388171E+01  0.91227094153E-01 -0.12474083554E+02  0.12984030427E+02  0.00000000000E+00 0.  1.
</event>
<event>
 7    1  0.4876728E-009  0.4778727E+02  0.7816164E-02  0.1312668E+00
        -11   -1    0    0    0    0  0.00000000000E+00  0.00000000000E+00  0.45593999997E+02  0.45594000000E+02  0.51100000000E-03 0.  1.
         11   -1    0    0    0    0 -0.00000000000E+00 -0.00000000000E+00 -0.45593999997E+02  0.45594000000E+02  0.51100000000E-03 0. -1.
    9900012    2    1    2    0    0  0.42212210107E+02  0.94077502134E+01  0.36396613783E+01  0.47787267505E+02  0.19999983862E+02 0.  0.
         12    1    1    2    0    0 -0.42212210107E+02 -0.94077502134E+01 -0.36396613783E+01  0.43400732495E+02  0.00000000000E+00 0. -1.
         11    1    3    3    0    0  0.56832313344E+01  0.74483852850E+00 -0.58456173981E+01  0.81868886556E+01  0.51100000000E-03 0. -1.
        -11    1    3    3    0    0  0.19771438725E+02  0.86401622332E+01  0.38292317788E+01  0.21914041365E+02  0.51100000000E-03 0.  1.
         12    1    3    3    0    0  0.16757540047E+02  0.22749451690E-01  0.56560469976E+01  0.17686337484E+02  0.00000000000E+00 0. -1.
</event>
<event>
 7    1  0.4876728E-009  0.4778727E+02  0.7816164E-02  0.1312668E+00
        -11   -1    0    0    0    0  0.00000000000E+00  0.00000000000E+00  0.45593999997E+02  0.45594000000E+02  0.51100000000E-03 0.  1.
         11   -1    0    0    0    0 -0.00000000000E+00 -0.00000000000E+00 -0.45593999997E+02  0.45594000000E+02  0.51100000000E-03 0. -1.
    9900012    2    1    2    0    0  0.21721306754E+02  0.57879527266E+01  0.37125566689E+02  0.47787271137E+02  0.20000000420E+02 0.  0.
         12    1    1    2    0    0 -0.21721306754E+02 -0.57879527266E+01 -0.37125566689E+02  0.43400728863E+02  0.00000000000E+00 0. -1.
         11    1    3    3    0    0  0.18810055000E+02  0.10528382745E+02  0.22025813157E+02  0.30818849067E+02  0.51100000000E-03 0. -1.
        -11    1    3    3    0    0  0.39332776300E+01 -0.36922579592E+01  0.14335475883E+02  0.15316961539E+02  0.51100000000E-03 0.  1.
         12    1    3    3    0    0 -0.10220258760E+01 -0.10481720591E+01  0.76427764938E+00  0.16514605300E+01  0.00000000000E+00 0. -1.
</event>
<event>
 7    1  0.4876728E-009  0.4778727E+02  0.7816164E-02  0.1312668E+00
        -11   -1    0    0    0    0  0.00000000000E+00  0.00000000000E+00  0.45593999997E+02  0.45594000000E+02  0.51100000000E-03 0. -1.
         11   -1    0    0    0    0 -0.00000000000E+00 -0.00000000000E+00 -0.45593999997E+02  0.45594000000E+02  0.51100000000E-03 0.  1.
    9900012    2    1    2    0    0 -0.16578320074E+02 -0.36034141576E+02 -0.17615996722E+02  0.47787269636E+02  0.19999993579E+02 0.  0.
         12    1    1    2    0    0  0.16578320074E+02  0.36034141576E+02  0.17615996722E+02  0.43400730364E+02  0.00000000000E+00 0. -1.
         11    1    3    3    0    0 -0.65031308421E+01 -0.19493607041E+01 -0.53372402775E+01  0.86357890170E+01  0.51100000000E-03 0. -1.
        -11    1    3    3    0    0 -0.81954563712E+01 -0.10831486717E+02 -0.67906145679E+01  0.15185488339E+02  0.51100000000E-03 0.  1.
         12    1    3    3    0    0 -0.18797328611E+01 -0.23253294155E+02 -0.54881418764E+01  0.23965992280E+02  0.00000000000E+00 0. -1.
</event>
<event>
 7    1  0.4876728E-009  0.4778727E+02  0.7816164E-02  0.1312668E+00
        -11   -1    0    0    0    0  0.00000000000E+00  0.00000000000E+00  0.45593999997E+02  0.45594000000E+02  0.51100000000E-03 0. -1.
         11   -1    0    0    0    0 -0.00000000000E+00 -0.00000000000E+00 -0.45593999997E+02  0.45594000000E+02  0.51100000000E-03 0.  1.
    9900012    2    1    2    0    0  0.37631589836E+02  0.21500016824E+02 -0.22882116028E+01  0.47787272018E+02  0.20000004439E+02 0.  0.
         12    1    1    2    0    0 -0.37631589836E+02 -0.21500016824E+02  0.22882116028E+01  0.43400727982E+02  0.00000000000E+00 0. -1.
         11    1    3    3    0    0  0.15213442378E+01 -0.10902891404E+01 -0.33437364089E+01  0.38319436495E+01  0.51100000000E-03 0. -1.
        -11    1    3    3    0    0  0.20987671915E+02  0.11591945905E+02  0.57917109728E+01  0.24665755584E+02  0.51100000000E-03 0.  1.
        -12    1    3    3    0    0  0.15122573683E+02  0.10998360059E+02 -0.47361861668E+01  0.19289572784E+02  0.00000000000E+00 0.  1.
</event>
<event>
 7    1  0.4876728E-009  0.4778724E+02  0.7816164E-02  0.1312668E+00
        -11   -1    0    0    0    0  0.00000000000E+00  0.00000000000E+00  0.45593999997E+02  0.45594000000E+02  0.51100000000E-03 0.  1.
         11   -1    0    0    0    0 -0.00000000000E+00 -0.00000000000E+00 -0.45593999997E+02  0.45594000000E+02  0.51100000000E-03 0. -1.
    9900012    2    1    2    0    0 -0.54834192245E+00 -0.19673245585E+02  0.38681890130E+02  0.47787240851E+02  0.19999862333E+02 0.  0.
         12    1    1    2    0    0  0.54834192245E+00  0.19673245585E+02 -0.38681890130E+02  0.43400759149E+02  0.00000000000E+00 0. -1.
         11    1    3    3    0    0  0.50202439257E+01 -0.10988524083E+01  0.11950777726E+02  0.13008897501E+02  0.51100000000E-03 0. -1.
        -11    1    3    3    0    0 -0.72413321358E+01 -0.12649306175E+02  0.23918610314E+02  0.28009672569E+02  0.51100000000E-03 0.  1.
        -12    1    3    3    0    0  0.16727462877E+01 -0.59250870020E+01  0.28125020906E+01  0.67686707805E+01  0.00000000000E+00 0.  1.
</event>
<event>
 7    1  0.4876728E-009  0.4778727E+02  0.7816164E-02  0.1312668E+00
        -11   -1    0    0    0    0  0.00000000000E+00  0.00000000000E+00  0.45593999997E+02  0.45594000000E+02  0.51100000000E-03 0. -1.
         11   -1    0    0    0    0 -0.00000000000E+00 -0.00000000000E+00 -0.45593999997E+02  0.45594000000E+02  0.51100000000E-03 0.  1.
    9900012    2    1    2    0    0 -0.68105869206E+01 -0.28013117894E+02 -0.32442324068E+02  0.47787271213E+02  0.20000000768E+02 0.  0.
         12    1    1    2    0    0  0.68105869206E+01  0.28013117894E+02  0.32442324068E+02  0.43400728787E+02  0.00000000000E+00 0. -1.
         11    1    3    3    0    0  0.48164074797E+01 -0.55102656614E+01 -0.93849007863E+01  0.11901141613E+02  0.51100000000E-03 0. -1.
        -11    1    3    3    0    0 -0.10302083208E+02 -0.22641938021E+02 -0.23743076110E+02  0.34387845806E+02  0.51100000000E-03 0.  1.
        -12    1    3    3    0    0 -0.13249111923E+01  0.13908578809E+00  0.68565282876E+00  0.14982837934E+01  0.00000000000E+00 0.  1.
</event>
<event>
 7    1  0.4876728E-009  0.4778727E+02  0.7816164E-02  0.1312668E+00
        -11   -1    0    0    0    0  0.00000000000E+00  0.00000000000E+00  0.45593999997E+02  0.45594000000E+02  0.51100000000E-03 0.  1.
         11   -1    0    0    0    0 -0.00000000000E+00 -0.00000000000E+00 -0.45593999997E+02  0.45594000000E+02  0.51100000000E-03 0. -1.
    9900012    2    1    2    0    0  0.92853357538E+00 -0.13965436330E+02  0.41081961668E+02  0.47787272345E+02  0.20000005930E+02 0.  0.
         12    1    1    2    0    0 -0.92853357538E+00  0.13965436330E+02 -0.41081961668E+02  0.43400727655E+02  0.00000000000E+00 0. -1.
         11    1    3    3    0    0 -0.63084221257E+01 -0.19503883303E+00  0.62000265276E+01  0.88472910581E+01  0.51100000000E-03 0. -1.
        -11    1    3    3    0    0  0.34645179684E+01 -0.12956983045E+02  0.28105885759E+02  0.31142047282E+02  0.51100000000E-03 0.  1.
         12    1    3    3    0    0  0.37724377327E+01 -0.81341445178E+00  0.67760493818E+01  0.77979340047E+01  0.00000000000E+00 0. -1.
</event>
<event>
 7    1  0.5053143E-009  0.4778727E+02  0.7816164E-02  0.1312668E+00
        -11   -1    0    0    0    0  0.00000000000E+00  0.00000000000E+00  0.45593999997E+02  0.45594000000E+02  0.51100000000E-03 0.  1.
         11   -1    0    0    0    0 -0.00000000000E+00 -0.00000000000E+00 -0.45593999997E+02  0.45594000000E+02  0.51100000000E-03 0. -1.
    9900012    2    1    2    0    0  0.70980725685E+01  0.37606757748E+02  0.20468813108E+02  0.47787272212E+02  0.20000005323E+02 0.  0.
         12    1    1    2    0    0 -0.70980725685E+01 -0.37606757748E+02 -0.20468813108E+02  0.43400727788E+02  0.00000000000E+00 0. -1.
         11    1    3    3    0    0  0.31048576745E+01  0.68256517986E-01  0.83102952119E+00  0.32148733191E+01  0.51100000000E-03 0. -1.
        -11    1    3    3    0    0 -0.49129302869E+00  0.19762618320E+02  0.16956194587E+02  0.26044480928E+02  0.51100000000E-03 0.  1.
        -12    1    3    3    0    0  0.44845079227E+01  0.17775882910E+02  0.26815890000E+01  0.18527917964E+02  0.00000000000E+00 0.  1.
</event>
<event>
 7    1  0.4876728E-009  0.4778727E+02  0.7816164E-02  0.1312668E+00
        -11   -1    0    0    0    0  0.00000000000E+00  0.00000000000E+00  0.45593999997E+02  0.45594000000E+02  0.51100000000E-03 0. -1.
         11   -1    0    0    0    0 -0.00000000000E+00 -0.00000000000E+00 -0.45593999997E+02  0.45594000000E+02  0.51100000000E-03 0.  1.
    9900012    2    1    2    0    0 -0.12839615086E+02 -0.22437375262E+02 -0.34861607232E+02  0.47787272091E+02  0.20000004771E+02 0.  0.
         12    1    1    2    0    0  0.12839615086E+02  0.22437375262E+02  0.34861607232E+02  0.43400727909E+02  0.00000000000E+00 0. -1.
         11    1    3    3    0    0  0.14015545933E+01 -0.84903442294E+01 -0.15777483527E+02  0.17971624499E+02  0.51100000000E-03 0. -1.
        -11    1    3    3    0    0 -0.11565292050E+02 -0.15833850909E+02 -0.15841988388E+02  0.25207844238E+02  0.51100000000E-03 0.  1.
        -12    1    3    3    0    0 -0.26758776302E+01  0.18868198755E+01 -0.32421353168E+01  0.46078033537E+01  0.00000000000E+00 0.  1.
</event>
<event>
 7    1  0.4876728E-009  0.4778728E+02  0.7816164E-02  0.1312668E+00
        -11   -1    0    0    0    0  0.00000000000E+00  0.00000000000E+00  0.45593999997E+02  0.45594000000E+02  0.51100000000E-03 0.  1.
         11   -1    0    0    0    0 -0.00000000000E+00 -0.00000000000E+00 -0.45593999997E+02  0.45594000000E+02  0.51100000000E-03 0. -1.
    9900012    2    1    2    0    0  0.41104372704E+02 -0.12304642320E+01  0.13875849036E+02  0.47787277839E+02  0.20000030980E+02 0.  0.
         12    1    1    2    0    0 -0.41104372704E+02  0.12304642320E+01 -0.13875849036E+02  0.43400722161E+02  0.00000000000E+00 0. -1.
         11    1    3    3    0    0  0.19493177068E+00 -0.17996347978E+01 -0.17986205513E+01  0.25518071928E+01  0.51100000000E-03 0. -1.
        -11    1    3    3    0    0  0.21616819664E+02  0.90013670300E+00  0.14209466572E+02  0.25884475637E+02  0.51100000000E-03 0.  1.
        -12    1    3    3    0    0  0.19292621269E+02 -0.33096613721E+00  0.14650030148E+01  0.19350995010E+02  0.00000000000E+00 0.  1.
</event>
<event>
 7    1  0.4876728E-009  0.4778727E+02  0.7816164E-02  0.1312668E+00
        -11   -1    0    0    0    0  0.00000000000E+00  0.00000000000E+00  0.45593999997E+02  0.45594000000E+02  0.51100000000E-03 0.  1.
         11   -1    0    0    0    0 -0.00000000000E+00 -0.00000000000E+00 -0.45593999997E+02  0.45594000000E+02  0.51100000000E-03 0. -1.
    9900012    2    1    2    0    0  0.27022600317E+02  0.89418904618E+01  0.32763468412E+02  0.47787271949E+02  0.20000004125E+02 0.  0.
         12    1    1    2    0    0 -0.27022600317E+02 -0.89418904618E+01 -0.32763468412E+02  0.43400728051E+02  0.00000000000E+00 0. -1.
         11    1    3    3    0    0  0.14163632355E+02  0.23714471541E+01  0.74950733702E+01  0.16199023680E+02  0.51100000000E-03 0. -1.
        -11    1    3    3    0    0  0.11273237978E+02  0.53647138014E+01  0.26466731867E+02  0.29263525841E+02  0.51100000000E-03 0.  1.
         12    1    3    3    0    0  0.15857299841E+01  0.12057295063E+01 -0.11983368243E+01  0.23247224284E+01  0.00000000000E+00 0. -1.
</event>
<event>
 7    1  0.4876728E-009  0.4778727E+02  0.7816164E-02  0.1312668E+00
        -11   -1    0    0    0    0  0.00000000000E+00  0.00000000000E+00  0.45593999997E+02  0.45594000000E+02  0.51100000000E-03 0. -1.
         11   -1    0    0    0    0 -0.00000000000E+00 -0.00000000000E+00 -0.45593999997E+02  0.45594000000E+02  0.51100000000E-03 0.  1.
    9900012    2    1    2    0    0 -0.11218408332E+02  0.39101614980E+02 -0.15127269363E+02  0.47787271228E+02  0.20000000839E+02 0.  0.
         12    1    1    2    0    0  0.11218408332E+02 -0.39101614980E+02  0.15127269363E+02  0.43400728772E+02  0.00000000000E+00 0. -1.
         11    1    3    3    0    0  0.25986563698E+01 -0.59518699299E+00 -0.81408772069E+00  0.27874722533E+01  0.51100000000E-03 0. -1.
        -11    1    3    3    0    0 -0.12808475120E+02  0.39606206583E+02 -0.14198164225E+02  0.43980637812E+02  0.51100000000E-03 0.  1.
        -12    1    3    3    0    0 -0.10085895818E+01  0.90595390168E-01 -0.11501741699E+00  0.10191611626E+01  0.00000000000E+00 0.  1.
</event>
<event>
 7    1  0.4876728E-009  0.4778728E+02  0.7816164E-02  0.1312668E+00
        -11   -1    0    0    0    0  0.00000000000E+00  0.00000000000E+00  0.45593999997E+02  0.45594000000E+02  0.51100000000E-03 0.  1.
         11   -1    0    0    0    0 -0.00000000000E+00 -0.00000000000E+00 -0.45593999997E+02  0.45594000000E+02  0.51100000000E-03 0. -1.
    9900012    2    1    2    0    0  0.11342300737E+01  0.43070832828E+02 -0.52191550914E+01  0.47787277676E+02  0.20000030238E+02 0.  0.
         12    1    1    2    0    0 -0.11342300737E+01 -0.43070832828E+02  0.52191550914E+01  0.43400722324E+02  0.00000000000E+00 0. -1.
         11    1    3    3    0    0 -0.92879132156E+00 -0.11207375626E+01  0.18227464234E+01  0.23326188691E+01  0.51100000000E-03 0. -1.
        -11    1    3    3    0    0 -0.10982819052E+01  0.24969932323E+02 -0.82828410637E+00  0.25007794748E+02  0.51100000000E-03 0.  1.
         12    1    3    3    0    0  0.31613033004E+01  0.19221638068E+02 -0.62136174084E+01  0.20446864059E+02  0.00000000000E+00 0. -1.
</event>
<event>
 7    1  0.4876728E-009  0.4778727E+02  0.7816164E-02  0.1312668E+00
        -11   -1    0    0    0    0  0.00000000000E+00  0.00000000000E+00  0.45593999997E+02  0.45594000000E+02  0.51100000000E-03 0.  1.
         11   -1    0    0    0    0 -0.00000000000E+00 -0.00000000000E+00 -0.45593999997E+02  0.45594000000E+02  0.51100000000E-03 0. -1.
    9900012    2    1    2    0    0  0.45771755541E+01  0.34961509227E+01  0.43016852503E+02  0.47787271820E+02  0.20000003536E+02 0.  0.
         12    1    1    2    0    0 -0.45771755541E+01 -0.34961509227E+01 -0.43016852503E+02  0.43400728180E+02  0.00000000000E+00 0. -1.
         11    1    3    3    0    0 -0.59826319440E+01  0.88175668983E+00  0.13843495762E+02  0.15106679153E+02  0.51100000000E-03 0. -1.
        -11    1    3    3    0    0  0.98206251029E+01  0.54462905331E+01  0.18764518520E+02  0.21868102650E+02  0.51100000000E-03 0.  1.
        -12    1    3    3    0    0  0.73918239515E+00 -0.28318963002E+01  0.10408838220E+02  0.10812490017E+02  0.00000000000E+00 0.  1.
</event>
<event>
 7    1  0.4876728E-009  0.4778727E+02  0.7816164E-02  0.1312668E+00
        -11   -1    0    0    0    0  0.00000000000E+00  0.00000000000E+00  0.45593999997E+02  0.45594000000E+02  0.51100000000E-03 0. -1.
         11   -1    0    0    0    0 -0.00000000000E+00 -0.00000000000E+00 -0.45593999997E+02  0.45594000000E+02  0.51100000000E-03 0.  1.
    9900012    2    1    2    0    0 -0.10108450650E+02  0.37666472444E+02  0.19044142545E+02  0.47787270903E+02  0.19999999354E+02 0.  0.
         12    1    1    2    0    0  0.10108450650E+02 -0.37666472444E+02 -0.19044142545E+02  0.43400729097E+02  0.00000000000E+00 0. -1.
         11    1    3    3    0    0 -0.57615705095E+00  0.85884146516E+00  0.28246212077E+01  0.30079978121E+01  0.51100000000E-03 0. -1.
        -11    1    3    3    0    0 -0.79583658894E+01  0.30620293090E+02  0.19933103045E+02  0.37393402277E+02  0.51100000000E-03 0.  1.
        -12    1    3    3    0    0 -0.15739277100E+01  0.61873378884E+01 -0.37135817079E+01  0.73858708141E+01  0.00000000000E+00 0.  1.
</event>
<event>
 7    1  0.4876728E-009  0.4778723E+02  0.7816164E-02  0.1312668E+00
        -11   -1    0    0    0    0  0.00000000000E+00  0.00000000000E+00  0.45593999997E+02  0.45594000000E+02  0.51100000000E-03 0. -1.
         11   -1    0    0    0    0 -0.00000000000E+00 -0.00000000000E+00 -0.45593999997E+02  0.45594000000E+02  0.51100000000E-03 0.  1.
    9900012    2    1    2    0    0 -0.84450795590E+01  0.26658502372E+02  0.33190839378E+02  0.47787228854E+02  0.19999807635E+02 0.  0.
         12    1    1    2    0    0  0.84450795590E+01 -0.26658502372E+02 -0.33190839378E+02  0.43400771146E+02  0.00000000000E+00 0. -1.
         11    1    3    3    0    0  0.21986197651E+01  0.37805142191E+01  0.96024182271E+01  0.10551428941E+02  0.51100000000E-03 0. -1.
        -11    1    3    3    0    0 -0.98480790156E+01  0.21848758203E+02  0.25454400084E+02  0.34961112385E+02  0.51100000000E-03 0.  1.
        -12    1    3    3    0    0 -0.79562030853E+00  0.10292299502E+01 -0.18659789337E+01  0.22746875272E+01  0.00000000000E+00 0.  1.
</event>
<event>
 7    1  0.4876728E-009  0.4778727E+02  0.7816164E-02  0.1312668E+00
        -11   -1    0    0    0    0  0.00000000000E+00  0.00000000000E+00  0.45593999997E+02  0.45594000000E+02  0.51100000000E-03 0.  1.
         11   -1    0    0    0    0 -0.00000000000E+00 -0.00000000000E+00 -0.45593999997E+02  0.45594000000E+02  0.51100000000E-03 0. -1.
    9900012    2    1    2    0    0 -0.22761719303E+02 -0.25913636710E+02  0.26344082267E+02  0.47787273006E+02  0.20000008943E+02 0.  0.
         12    1    1    2    0    0  0.22761719303E+02  0.25913636710E+02 -0.26344082267E+02  0.43400726994E+02  0.00000000000E+00 0. -1.
         11    1    3    3    0    0 -0.20179103081E+02 -0.16120001456E+02  0.20977971940E+02  0.33273502297E+02  0.51100000000E-03 0. -1.
        -11    1    3    3    0    0  0.15620032514E+01 -0.91569016678E+01  0.38366411236E+01  0.10050299383E+02  0.51100000000E-03 0.  1.
         12    1    3    3    0    0 -0.41446194736E+01 -0.63673358609E+00  0.15294692027E+01  0.44634713265E+01  0.00000000000E+00 0. -1.
</event>
<event>
 7    1  0.4876728E-009  0.4778728E+02  0.7816164E-02  0.1312668E+00
        -11   -1    0    0    0    0  0.00000000000E+00  0.00000000000E+00  0.45593999997E+02  0.45594000000E+02  0.51100000000E-03 0.  1.
         11   -1    0    0    0    0 -0.00000000000E+00 -0.00000000000E+00 -0.45593999997E+02  0.45594000000E+02  0.51100000000E-03 0. -1.
    9900012    2    1    2    0    0  0.41169545769E+02 -0.13618245378E+02 -0.17984879984E+01  0.47787278058E+02  0.20000031979E+02 0.  0.
         12    1    1    2    0    0 -0.41169545769E+02  0.13618245378E+02  0.17984879984E+01  0.43400721942E+02  0.00000000000E+00 0. -1.
         11    1    3    3    0    0  0.65664701104E+01  0.30708274266E+01 -0.18388984357E+01  0.74786401513E+01  0.51100000000E-03 0. -1.
        -11    1    3    3    0    0  0.20467058833E+02 -0.14994359182E+02  0.36186706546E+01  0.25628618420E+02  0.51100000000E-03 0.  1.
        -12    1    3    3    0    0  0.14136016826E+02 -0.16947136226E+01 -0.35782602172E+01  0.14680019487E+02  0.00000000000E+00 0.  1.
</event>
<event>
 7    1  0.4876728E-009  0.4778727E+02  0.7816164E-02  0.1312668E+00
        -11   -1    0    0    0    0  0.00000000000E+00  0.00000000000E+00  0.45593999997E+02  0.45594000000E+02  0.51100000000E-03 0.  1.
         11   -1    0    0    0    0 -0.00000000000E+00 -0.00000000000E+00 -0.45593999997E+02  0.45594000000E+02  0.51100000000E-03 0. -1.
    9900012    2    1    2    0    0  0.11155031928E+02 -0.60766939871E+01  0.41500147692E+02  0.47787271832E+02  0.20000003589E+02 0.  0.
         12    1    1    2    0    0 -0.11155031928E+02  0.60766939871E+01 -0.41500147692E+02  0.43400728168E+02  0.00000000000E+00 0. -1.
         11    1    3    3    0    0  0.12045520812E+02 -0.65359930276E+01  0.14636505300E+02  0.20050961676E+02  0.51100000000E-03 0. -1.
        -11    1    3    3    0    0  0.16281101202E+01  0.50965303865E+00  0.23353768754E+02  0.23415998891E+02  0.51100000000E-03 0.  1.
         12    1    3    3    0    0 -0.25185990042E+01 -0.50353998195E-01  0.35098736374E+01  0.43203112642E+01  0.00000000000E+00 0. -1.
</event>
<event>
 7    1  0.4876728E-009  0.4778727E+02  0.7816164E-02  0.1312668E+00
        -11   -1    0    0    0    0  0.00000000000E+00  0.00000000000E+00  0.45593999997E+02  0.45594000000E+02  0.51100000000E-03 0.  1.
         11   -1    0    0    0    0 -0.00000000000E+00 -0.00000000000E+00 -0.45593999997E+02  0.45594000000E+02  0.51100000000E-03 0. -1.
    9900012    2    1    2    0    0  0.23743012152E+02 -0.19284254030E+02  0.30789776226E+02  0.47787269596E+02  0.19999993398E+02 0.  0.
         12    1    1    2    0    0 -0.23743012152E+02  0.19284254030E+02 -0.30789776226E+02  0.43400730404E+02  0.00000000000E+00 0. -1.
         11    1    3    3    0    0  0.12981654971E+02  0.14222623226E+00  0.77466620417E+01  0.15118014656E+02  0.51100000000E-03 0. -1.
        -11    1    3    3    0    0  0.86906948286E+01 -0.13762906528E+02  0.12498535527E+02  0.20522162734E+02  0.51100000000E-03 0.  1.
         12    1    3    3    0    0  0.20706623527E+01 -0.56635737336E+01  0.10544578657E+02  0.12147092206E+02  0.00000000000E+00 0. -1.
</event>
<event>
 7    1  0.4876728E-009  0.4778727E+02  0.7816164E-02  0.1312668E+00
        -11   -1    0    0    0    0  0.00000000000E+00  0.00000000000E+00  0.45593999997E+02  0.45594000000E+02  0.51100000000E-03 0.  1.
         11   -1    0    0    0    0 -0.00000000000E+00 -0.00000000000E+00 -0.45593999997E+02  0.45594000000E+02  0.51100000000E-03 0. -1.
    9900012    2    1    2    0    0  0.15336392802E+02 -0.40386465324E+02  0.41655508604E+01  0.47787270288E+02  0.19999996553E+02 0.  0.
         12    1    1    2    0    0 -0.15336392802E+02  0.40386465324E+02 -0.41655508604E+01  0.43400729712E+02  0.00000000000E+00 0. -1.
         11    1    3    3    0    0  0.44021913493E+01 -0.33774365715E+01  0.28115232841E+01  0.62202114038E+01  0.51100000000E-03 0. -1.
        -11    1    3    3    0    0  0.44200475203E+01 -0.24180537384E+02 -0.61517341765E+01  0.25339278638E+02  0.51100000000E-03 0.  1.
        -12    1    3    3    0    0  0.65141539321E+01 -0.12828491369E+02  0.75057617528E+01  0.16227780247E+02  0.00000000000E+00 0.  1.
</event>
<event>
 7    1  0.4876728E-009  0.4778727E+02  0.7816164E-02  0.1312668E+00
        -11   -1    0    0    0    0  0.00000000000E+00  0.00000000000E+00  0.45593999997E+02  0.45594000000E+02  0.51100000000E-03 0.  1.
         11   -1    0    0    0    0 -0.00000000000E+00 -0.00000000000E+00 -0.45593999997E+02  0.45594000000E+02  0.51100000000E-03 0. -1.
    9900012    2    1    2    0    0  0.17436764000E+02  0.33074060407E+02  0.22038352856E+02  0.47787271813E+02  0.20000003503E+02 0.  0.
         12    1    1    2    0    0 -0.17436764000E+02 -0.33074060407E+02 -0.22038352856E+02  0.43400728187E+02  0.00000000000E+00 0. -1.
         11    1    3    3    0    0  0.60266348122E+01  0.59037937015E+01 -0.40341326839E-01  0.84366305427E+01  0.51100000000E-03 0. -1.
        -11    1    3    3    0    0 -0.20751834014E+01  0.11178330205E+02  0.10313957129E+02  0.15350542799E+02  0.51100000000E-03 0.  1.
        -12    1    3    3    0    0  0.13485312589E+02  0.15991936500E+02  0.11764737054E+02  0.24000098471E+02  0.00000000000E+00 0.  1.
</event>
<event>
 7    1  0.4876728E-009  0.4778727E+02  0.7816164E-02  0.1312668E+00
        -11   -1    0    0    0    0  0.00000000000E+00  0.00000000000E+00  0.45593999997E+02  0.45594000000E+02  0.51100000000E-03 0.  1.
         11   -1    0    0    0    0 -0.00000000000E+00 -0.00000000000E+00 -0.45593999997E+02  0.45594000000E+02  0.51100000000E-03 0. -1.
    9900012    2    1    2    0    0  0.29280603785E+02 -0.13254051813E+02  0.29165046518E+02  0.47787267450E+02  0.19999983613E+02 0.  0.
         12    1    1    2    0    0 -0.29280603785E+02  0.13254051813E+02 -0.29165046518E+02  0.43400732550E+02  0.00000000000E+00 0. -1.
         11    1    3    3    0    0  0.12963650200E+02 -0.50059762664E+01  0.21404083274E+02  0.25519616101E+02  0.51100000000E-03 0. -1.
        -11    1    3    3    0    0  0.41209098050E+01 -0.38253920281E+01  0.73942703259E+01  0.92892817646E+01  0.51100000000E-03 0.  1.
         12    1    3    3    0    0  0.12196043780E+02 -0.44226835182E+01  0.36669291813E+00  0.12978369585E+02  0.00000000000E+00 0. -1.
</event>
<event>
 7    1  0.4876728E-009  0.4778727E+02  0.7816164E-02  0.1312668E+00
        -11   -1    0    0    0    0  0.00000000000E+00  0.00000000000E+00  0.45593999997E+02  0.45594000000E+02  0.51100000000E-03 0. -1.
         11   -1    0    0    0    0 -0.00000000000E+00 -0.00000000000E+00 -0.45593999997E+02  0.45594000000E+02  0.51100000000E-03 0.  1.
    9900012    2    1    2    0    0  0.99895334434E+01 -0.36121233973E+02 -0.21888111999E+02  0.47787265340E+02  0.19999973992E+02 0.  0.
         12    1    1    2    0    0 -0.99895334434E+01  0.36121233973E+02  0.21888111999E+02  0.43400734660E+02  0.00000000000E+00 0. -1.
         11    1    3    3    0    0  0.45280122561E-01  0.14153402674E+01  0.24334215094E+00  0.14368208049E+01  0.51100000000E-03 0. -1.
        -11    1    3    3    0    0  0.59226482314E+01 -0.35392150677E+02 -0.17773958620E+02  0.40044920988E+02  0.51100000000E-03 0.  1.
         12    1    3    3    0    0  0.40216050894E+01 -0.21444235625E+01 -0.43574955304E+01  0.63055235475E+01  0.00000000000E+00 0. -1.
</event>
<event>
 7    1  0.4876728E-009  0.4778727E+02  0.7816164E-02  0.1312668E+00
        -11   -1    0    0    0    0  0.00000000000E+00  0.00000000000E+00  0.45593999997E+02  0.45594000000E+02  0.51100000000E-03 0.  1.
         11   -1    0    0    0    0 -0.00000000000E+00 -0.00000000000E+00 -0.45593999997E+02  0.45594000000E+02  0.51100000000E-03 0. -1.
    9900012    2    1    2    0    0 -0.25475261963E+02 -0.21179171252E+02  0.28037063296E+02  0.47787272065E+02  0.20000004654E+02 0.  0.
         12    1    1    2    0    0  0.25475261963E+02  0.21179171252E+02 -0.28037063296E+02  0.43400727935E+02  0.00000000000E+00 0. -1.
         11    1    3    3    0    0  0.42589033950E+00 -0.66132831035E+00  0.41324139811E+01  0.42066118537E+01  0.51100000000E-03 0. -1.
        -11    1    3    3    0    0 -0.12262320108E+02 -0.10164428176E+02  0.20768050357E+02  0.26172352024E+02  0.51100000000E-03 0.  1.
        -12    1    3    3    0    0 -0.13638832194E+02 -0.10353414765E+02  0.31365989581E+01  0.17408308187E+02  0.00000000000E+00 0.  1.
</event>
<event>
 7    1  0.4876728E-009  0.4778727E+02  0.7816164E-02  0.1312668E+00
        -11   -1    0    0    0    0  0.00000000000E+00  0.00000000000E+00  0.45593999997E+02  0.45594000000E+02  0.51100000000E-03 0.  1.
         11   -1    0    0    0    0 -0.00000000000E+00 -0.00000000000E+00 -0.45593999997E+02  0.45594000000E+02  0.51100000000E-03 0. -1.
    9900012    2    1    2    0    0  0.18212976254E+02  0.33483640668E+02  0.20754672425E+02  0.47787272772E+02  0.20000007877E+02 0.  0.
         12    1    1    2    0    0 -0.18212976254E+02 -0.33483640668E+02 -0.20754672425E+02  0.43400727228E+02  0.00000000000E+00 0. -1.
         11    1    3    3    0    0  0.57174644122E+00  0.26517716604E+01 -0.34123834235E+01  0.43592600085E+01  0.51100000000E-03 0. -1.
        -11    1    3    3    0    0  0.11455076611E+02  0.19419387263E+02  0.18895568478E+02  0.29417237977E+02  0.51100000000E-03 0.  1.
         12    1    3    3    0    0  0.61861532017E+01  0.11412481745E+02  0.52714873706E+01  0.14010774787E+02  0.00000000000E+00 0. -1.
</event>
<event>
 7    1  0.4876728E-009  0.4778726E+02  0.7816164E-02  0.1312668E+00
        -11   -1    0    0    0    0  0.00000000000E+00  0.00000000000E+00  0.45593999997E+02  0.45594000000E+02  0.51100000000E-03 0.  1.
         11   -1    0    0    0    0 -0.00000000000E+00 -0.00000000000E+00 -0.45593999997E+02  0.45594000000E+02  0.51100000000E-03 0. -1.
    9900012    2    1    2    0    0  0.98199227936E+01 -0.90691218000E+00  0.42265475623E+02  0.47787264948E+02  0.19999972204E+02 0.  0.
         12    1    1    2    0    0 -0.98199227936E+01  0.90691218000E+00 -0.42265475623E+02  0.43400735052E+02  0.00000000000E+00 0. -1.
         11    1    3    3    0    0  0.14989740953E+02 -0.89089747450E+00  0.30169139498E+02  0.33699599559E+02  0.51100000000E-03 0. -1.
        -11    1    3    3    0    0 -0.25371864307E+01 -0.63346790013E+00  0.10756574942E+02  0.11069891657E+02  0.51100000000E-03 0.  1.
         12    1    3    3    0    0 -0.26326317285E+01  0.61745319463E+00  0.13397611838E+01  0.30177737316E+01  0.00000000000E+00 0. -1.
</event>
<event>
 7    1  0.4876728E-009  0.4778727E+02  0.7816164E-02  0.1312668E+00
        -11   -1    0    0    0    0  0.00000000000E+00  0.00000000000E+00  0.45593999997E+02  0.45594000000E+02  0.51100000000E-03 0.  1.
         11   -1    0    0    0    0 -0.00000000000E+00 -0.00000000000E+00 -0.45593999997E+02  0.45594000000E+02  0.51100000000E-03 0. -1.
    9900012    2    1    2    0    0 -0.35522156623E+02  0.21710166311E+02  0.12266568546E+02  0.47787266869E+02  0.19999980962E+02 0.  0.
         12    1    1    2    0    0  0.35522156623E+02 -0.21710166311E+02 -0.12266568546E+02  0.43400733131E+02  0.00000000000E+00 0. -1.
         11    1    3    3    0    0 -0.19767413547E+01  0.64277706644E+01 -0.17394301246E+01  0.69461758916E+01  0.51100000000E-03 0. -1.
        -11    1    3    3    0    0 -0.14974433720E+02  0.74939503902E+01  0.12005318814E+02  0.20603898606E+02  0.51100000000E-03 0.  1.
         12    1    3    3    0    0 -0.18570981548E+02  0.77884452567E+01  0.20006798569E+01  0.20237192371E+02  0.00000000000E+00 0. -1.
</event>
<event>
 7    1  0.4876728E-009  0.4778727E+02  0.7816164E-02  0.1312668E+00
        -11   -1    0    0    0    0  0.00000000000E+00  0.00000000000E+00  0.45593999997E+02  0.45594000000E+02  0.51100000000E-03 0. -1.
         11   -1    0    0    0    0 -0.00000000000E+00 -0.00000000000E+00 -0.45593999997E+02  0.45594000000E+02  0.51100000000E-03 0.  1.
    9900012    2    1    2    0    0  0.28410904517E+02  0.27520450452E+02 -0.17862487786E+02  0.47787272374E+02  0.20000006063E+02 0.  0.
         12    1    1    2    0    0 -0.28410904517E+02 -0.27520450452E+02  0.17862487786E+02  0.43400727626E+02  0.00000000000E+00 0. -1.
         11    1    3    3    0    0  0.85982385930E+01  0.14493400252E+01 -0.77113809365E+00  0.87535677088E+01  0.51100000000E-03 0. -1.
        -11    1    3    3    0    0  0.15429570399E+02  0.22124602524E+02 -0.18817001623E+02  0.32888436112E+02  0.51100000000E-03 0.  1.
        -12    1    3    3    0    0  0.43830955254E+01  0.39465079023E+01  0.17256519309E+01  0.61452685535E+01  0.00000000000E+00 0.  1.
</event>
<event>
 7    1  0.4876728E-009  0.4778726E+02  0.7816164E-02  0.1312668E+00
        -11   -1    0    0    0    0  0.00000000000E+00  0.00000000000E+00  0.45593999997E+02  0.45594000000E+02  0.51100000000E-03 0.  1.
         11   -1    0    0    0    0 -0.00000000000E+00 -0.00000000000E+00 -0.45593999997E+02  0.45594000000E+02  0.51100000000E-03 0. -1.
    9900012    2    1    2    0    0  0.24899547416E+02 -0.12177074684E+02  0.33396936037E+02  0.47787263301E+02  0.19999964696E+02 0.  0.
         12    1    1    2    0    0 -0.24899547416E+02  0.12177074684E+02 -0.33396936037E+02  0.43400736699E+02  0.00000000000E+00 0. -1.
         11    1    3    3    0    0  0.53284417421E+01 -0.82225668294E+01  0.14332542465E+01  0.99023792423E+01  0.51100000000E-03 0. -1.
        -11    1    3    3    0    0  0.17913424281E+02 -0.45436225958E+01  0.28008486810E+02  0.33556081556E+02  0.51100000000E-03 0.  1.
         12    1    3    3    0    0  0.16576813928E+01  0.58911474111E+00  0.39551949803E+01  0.43288025030E+01  0.00000000000E+00 0. -1.
</event>
<event>
 7    1  0.4876728E-009  0.4778727E+02  0.7816164E-02  0.1312668E+00
        -11   -1    0    0    0    0  0.00000000000E+00  0.00000000000E+00  0.45593999997E+02  0.45594000000E+02  0.51100000000E-03 0.  1.
         11   -1    0    0    0    0 -0.00000000000E+00 -0.00000000000E+00 -0.45593999997E+02  0.45594000000E+02  0.51100000000E-03 0. -1.
    9900012    2    1    2    0    0  0.29329803445E+02 -0.17428296043E+02  0.26826113297E+02  0.47787271576E+02  0.20000002425E+02 0.  0.
         12    1    1    2    0    0 -0.29329803445E+02  0.17428296043E+02 -0.26826113297E+02  0.43400728424E+02  0.00000000000E+00 0. -1.
         11    1    3    3    0    0  0.18398322262E+02 -0.11813853960E+02  0.92199904063E+01  0.23729172569E+02  0.51100000000E-03 0.  1.
        -11    1    3    3    0    0  0.78545400947E+00  0.18026800432E+01  0.80033545698E+01  0.82413759755E+01  0.51100000000E-03 0. -1.
         12    1    3    3    0    0  0.10146027174E+02 -0.74171221260E+01  0.96027683208E+01  0.15816723032E+02  0.00000000000E+00 0. -1.
</event>
<event>
 7    1  0.4876728E-009  0.4778727E+02  0.7816164E-02  0.1312668E+00
        -11   -1    0    0    0    0  0.00000000000E+00  0.00000000000E+00  0.45593999997E+02  0.45594000000E+02  0.51100000000E-03 0.  1.
         11   -1    0    0    0    0 -0.00000000000E+00 -0.00000000000E+00 -0.45593999997E+02  0.45594000000E+02  0.51100000000E-03 0. -1.
    9900012    2    1    2    0    0 -0.51750819806E+01 -0.35213428593E+02  0.24836598501E+02  0.47787266689E+02  0.19999980144E+02 0.  0.
         12    1    1    2    0    0  0.51750819806E+01  0.35213428593E+02 -0.24836598501E+02  0.43400733311E+02  0.00000000000E+00 0. -1.
         11    1    3    3    0    0 -0.16003517715E+01  0.11725881428E+01  0.51621465210E+01  0.55302663327E+01  0.51100000000E-03 0. -1.
        -11    1    3    3    0    0  0.49177685503E+00 -0.15862603300E+02  0.47798891909E+01  0.16574419111E+02  0.51100000000E-03 0.  1.
         12    1    3    3    0    0 -0.40665070641E+01 -0.20523413436E+02  0.14894562789E+02  0.25682581246E+02  0.00000000000E+00 0. -1.
</event>
<event>
 7    1  0.4876728E-009  0.4778727E+02  0.7816164E-02  0.1312668E+00
        -11   -1    0    0    0    0  0.00000000000E+00  0.00000000000E+00  0.45593999997E+02  0.45594000000E+02  0.51100000000E-03 0. -1.
         11   -1    0    0    0    0 -0.00000000000E+00 -0.00000000000E+00 -0.45593999997E+02  0.45594000000E+02  0.51100000000E-03 0.  1.
    9900012    2    1    2    0    0 -0.96149537047E+00 -0.32603955995E+02 -0.28630067208E+02  0.47787272262E+02  0.20000005550E+02 0.  0.
         12    1    1    2    0    0  0.96149537047E+00  0.32603955995E+02  0.28630067208E+02  0.43400727738E+02  0.00000000000E+00 0. -1.
         11    1    3    3    0    0 -0.78763525364E+01 -0.12254931898E+02 -0.10393042497E+02  0.17895128324E+02  0.51100000000E-03 0. -1.
        -11    1    3    3    0    0  0.45700476889E+01 -0.10853502925E+02 -0.15986556878E+02  0.19855826920E+02  0.51100000000E-03 0.  1.
        -12    1    3    3    0    0  0.23448094770E+01 -0.94955211723E+01 -0.22504678327E+01  0.10036317018E+02  0.00000000000E+00 0.  1.
</event>
<event>
 7    1  0.4876728E-009  0.4778726E+02  0.7816164E-02  0.1312668E+00
        -11   -1    0    0    0    0  0.00000000000E+00  0.00000000000E+00  0.45593999997E+02  0.45594000000E+02  0.51100000000E-03 0.  1.
         11   -1    0    0    0    0 -0.00000000000E+00 -0.00000000000E+00 -0.45593999997E+02  0.45594000000E+02  0.51100000000E-03 0. -1.
    9900012    2    1    2    0    0  0.37914914854E+02 -0.12866515001E+02  0.16749226141E+02  0.47787256309E+02  0.19999932813E+02 0.  0.
         12    1    1    2    0    0 -0.37914914854E+02  0.12866515001E+02 -0.16749226141E+02  0.43400743691E+02  0.00000000000E+00 0. -1.
         11    1    3    3    0    0  0.61473049369E+00 -0.45649039134E+00  0.26099903894E+01  0.27199866087E+01  0.51100000000E-03 0. -1.
        -11    1    3    3    0    0 -0.18004461489E+01 -0.98294482585E+00  0.54183108830E+00  0.21216427727E+01  0.51100000000E-03 0.  1.
        -12    1    3    3    0    0  0.39100630509E+02 -0.11427079784E+02  0.13597404664E+02  0.42945626927E+02  0.00000000000E+00 0.  1.
</event>
<event>
 7    1  0.4876728E-009  0.4778727E+02  0.7816164E-02  0.1312668E+00
        -11   -1    0    0    0    0  0.00000000000E+00  0.00000000000E+00  0.45593999997E+02  0.45594000000E+02  0.51100000000E-03 0.  1.
         11   -1    0    0    0    0 -0.00000000000E+00 -0.00000000000E+00 -0.45593999997E+02  0.45594000000E+02  0.51100000000E-03 0. -1.
    9900012    2    1    2    0    0 -0.29553838219E+02  0.17355827458E+02  0.26626479835E+02  0.47787268109E+02  0.19999986618E+02 0.  0.
         12    1    1    2    0    0  0.29553838219E+02 -0.17355827458E+02 -0.26626479835E+02  0.43400731891E+02  0.00000000000E+00 0. -1.
         11    1    3    3    0    0 -0.93517879707E+01  0.37219015703E+01  0.18037915554E+02  0.20656110170E+02  0.51100000000E-03 0. -1.
        -11    1    3    3    0    0 -0.19710022053E+02  0.14327876854E+02  0.92391464707E+01  0.26060215890E+02  0.51100000000E-03 0.  1.
         12    1    3    3    0    0 -0.49202819546E+00 -0.69395096613E+00 -0.65058218957E+00  0.10709420497E+01  0.00000000000E+00 0. -1.
</event>
<event>
 7    1  0.4876728E-009  0.4778727E+02  0.7816164E-02  0.1312668E+00
        -11   -1    0    0    0    0  0.00000000000E+00  0.00000000000E+00  0.45593999997E+02  0.45594000000E+02  0.51100000000E-03 0.  1.
         11   -1    0    0    0    0 -0.00000000000E+00 -0.00000000000E+00 -0.45593999997E+02  0.45594000000E+02  0.51100000000E-03 0. -1.
    9900012    2    1    2    0    0  0.34562393016E+02  0.97817547768E+01  0.24359428875E+02  0.47787268293E+02  0.19999987457E+02 0.  0.
         12    1    1    2    0    0 -0.34562393016E+02 -0.97817547768E+01 -0.24359428875E+02  0.43400731707E+02  0.00000000000E+00 0. -1.
         11    1    3    3    0    0  0.24074847250E+02  0.62578209092E+01  0.70116672026E+01  0.25844188319E+02  0.51100000000E-03 0. -1.
        -11    1    3    3    0    0  0.32393545101E+01  0.23851252044E+01  0.12544120642E+02  0.13173351996E+02  0.51100000000E-03 0.  1.
         12    1    3    3    0    0  0.72481912561E+01  0.11388086633E+01  0.48036410309E+01  0.87697279781E+01  0.00000000000E+00 0. -1.
</event>
<event>
 7    1  0.4876728E-009  0.4778726E+02  0.7816164E-02  0.1312668E+00
        -11   -1    0    0    0    0  0.00000000000E+00  0.00000000000E+00  0.45593999997E+02  0.45594000000E+02  0.51100000000E-03 0.  1.
         11   -1    0    0    0    0 -0.00000000000E+00 -0.00000000000E+00 -0.45593999997E+02  0.45594000000E+02  0.51100000000E-03 0. -1.
    9900012    2    1    2    0    0 -0.13189669993E+02 -0.30870264533E+02  0.27507875354E+02  0.47787264599E+02  0.19999970612E+02 0.  0.
         12    1    1    2    0    0  0.13189669993E+02  0.30870264533E+02 -0.27507875354E+02  0.43400735401E+02  0.00000000000E+00 0. -1.
         11    1    3    3    0    0 -0.14492533896E+01 -0.15059734172E+01  0.10441103053E+02  0.10648235748E+02  0.51100000000E-03 0. -1.
        -11    1    3    3    0    0 -0.11062519658E+02 -0.21032991012E+02  0.86862582763E+01  0.25302512429E+02  0.51100000000E-03 0.  1.
        -12    1    3    3    0    0 -0.67789694509E+00 -0.83313001032E+01  0.83805140245E+01  0.11836516421E+02  0.00000000000E+00 0.  1.
</event>
<event>
 7    1  0.4876728E-009  0.4778727E+02  0.7816164E-02  0.1312668E+00
        -11   -1    0    0    0    0  0.00000000000E+00  0.00000000000E+00  0.45593999997E+02  0.45594000000E+02  0.51100000000E-03 0. -1.
         11   -1    0    0    0    0 -0.00000000000E+00 -0.00000000000E+00 -0.45593999997E+02  0.45594000000E+02  0.51100000000E-03 0.  1.
    9900012    2    1    2    0    0  0.29155249843E+02 -0.30528868713E+02  0.10078836897E+02  0.47787269920E+02  0.19999994874E+02 0.  0.
         12    1    1    2    0    0 -0.29155249843E+02  0.30528868713E+02 -0.10078836897E+02  0.43400730080E+02  0.00000000000E+00 0. -1.
         11    1    3    3    0    0  0.50545818517E+01 -0.10853885902E+02  0.25476088498E+01  0.12241157951E+02  0.51100000000E-03 0. -1.
        -11    1    3    3    0    0  0.18815029171E+02 -0.59047826155E+01  0.64869806144E+01  0.20759400237E+02  0.51100000000E-03 0.  1.
        -12    1    3    3    0    0  0.52856388201E+01 -0.13770200195E+02  0.10442474325E+01  0.14786711732E+02  0.00000000000E+00 0.  1.
</event>
<event>
 7    1  0.4876728E-009  0.4778728E+02  0.7816164E-02  0.1312668E+00
        -11   -1    0    0    0    0  0.00000000000E+00  0.00000000000E+00  0.45593999997E+02  0.45594000000E+02  0.51100000000E-03 0.  1.
         11   -1    0    0    0    0 -0.00000000000E+00 -0.00000000000E+00 -0.45593999997E+02  0.45594000000E+02  0.51100000000E-03 0. -1.
    9900012    2    1    2    0    0  0.14146995913E+02 -0.21866475336E+02  0.34718035941E+02  0.47787282765E+02  0.20000053438E+02 0.  0.
         12    1    1    2    0    0 -0.14146995913E+02  0.21866475336E+02 -0.34718035941E+02  0.43400717235E+02  0.00000000000E+00 0. -1.
         11    1    3    3    0    0  0.77682580016E+00 -0.17707262639E+02  0.24387447563E+02  0.30147938692E+02  0.51100000000E-03 0. -1.
        -11    1    3    3    0    0  0.65003732085E+01 -0.98179972065E+00  0.61001897827E+01  0.89683386526E+01  0.51100000000E-03 0.  1.
         12    1    3    3    0    0  0.68697969042E+01 -0.31774129765E+01  0.42303985950E+01  0.86710054204E+01  0.00000000000E+00 0. -1.
</event>
<event>
 7    1  0.4876728E-009  0.4778726E+02  0.7816164E-02  0.1312668E+00
        -11   -1    0    0    0    0  0.00000000000E+00  0.00000000000E+00  0.45593999997E+02  0.45594000000E+02  0.51100000000E-03 0.  1.
         11   -1    0    0    0    0 -0.00000000000E+00 -0.00000000000E+00 -0.45593999997E+02  0.45594000000E+02  0.51100000000E-03 0. -1.
    9900012    2    1    2    0    0  0.15446636101E+02  0.40324772601E+02  0.43518542271E+01  0.47787257064E+02  0.19999936258E+02 0.  0.
         12    1    1    2    0    0 -0.15446636101E+02 -0.40324772601E+02 -0.43518542271E+01  0.43400742936E+02  0.00000000000E+00 0. -1.
         11    1    3    3    0    0  0.15447690561E+02  0.24153742179E+02  0.30354641046E+01  0.28831379563E+02  0.51100000000E-03 0. -1.
        -11    1    3    3    0    0 -0.63318614392E+00  0.12451224722E+02  0.52297769084E+01  0.13519781379E+02  0.51100000000E-03 0.  1.
         12    1    3    3    0    0  0.63213168485E+00  0.37198056996E+01 -0.39133867858E+01  0.54360961218E+01  0.00000000000E+00 0. -1.
</event>
<event>
 7    1  0.4876728E-009  0.4778727E+02  0.7816164E-02  0.1312668E+00
        -11   -1    0    0    0    0  0.00000000000E+00  0.00000000000E+00  0.45593999997E+02  0.45594000000E+02  0.51100000000E-03 0.  1.
         11   -1    0    0    0    0 -0.00000000000E+00 -0.00000000000E+00 -0.45593999997E+02  0.45594000000E+02  0.51100000000E-03 0. -1.
    9900012    2    1    2    0    0  0.25268621472E+02  0.34198105326E+02  0.86953739391E+01  0.47787272277E+02  0.20000005619E+02 0.  0.
         12    1    1    2    0    0 -0.25268621472E+02 -0.34198105326E+02 -0.86953739391E+01  0.43400727723E+02  0.00000000000E+00 0. -1.
         11    1    3    3    0    0  0.66318387894E+01  0.23109546357E+02  0.12089240061E+01  0.24072679869E+02  0.51100000000E-03 0. -1.
        -11    1    3    3    0    0  0.18473260384E+02  0.11690881324E+02  0.71260407749E+01  0.22993879897E+02  0.51100000000E-03 0.  1.
         12    1    3    3    0    0  0.16352229817E+00 -0.60232235522E+00  0.36040915806E+00  0.72071251052E+00  0.00000000000E+00 0. -1.
</event>
<event>
 7    1  0.4876728E-009  0.4778727E+02  0.7816164E-02  0.1312668E+00
        -11   -1    0    0    0    0  0.00000000000E+00  0.00000000000E+00  0.45593999997E+02  0.45594000000E+02  0.51100000000E-03 0.  1.
         11   -1    0    0    0    0 -0.00000000000E+00 -0.00000000000E+00 -0.45593999997E+02  0.45594000000E+02  0.51100000000E-03 0. -1.
    9900012    2    1    2    0    0 -0.24719777815E+02  0.34463281252E+02 -0.92107640652E+01  0.47787270231E+02  0.19999996290E+02 0.  0.
         12    1    1    2    0    0  0.24719777815E+02 -0.34463281252E+02  0.92107640652E+01  0.43400729769E+02  0.00000000000E+00 0. -1.
         11    1    3    3    0    0 -0.17412350524E+01  0.88927456635E+00 -0.19072669218E+01  0.27313689122E+01  0.51100000000E-03 0. -1.
        -11    1    3    3    0    0 -0.17184984591E+02  0.31268114711E+02 -0.11560785998E+02  0.37505605796E+02  0.51100000000E-03 0.  1.
        -12    1    3    3    0    0 -0.57935581715E+01  0.23058919739E+01  0.42572888547E+01  0.75502955223E+01  0.00000000000E+00 0.  1.
</event>
<event>
 7    1  0.4876728E-009  0.4778727E+02  0.7816164E-02  0.1312668E+00
        -11   -1    0    0    0    0  0.00000000000E+00  0.00000000000E+00  0.45593999997E+02  0.45594000000E+02  0.51100000000E-03 0.  1.
         11   -1    0    0    0    0 -0.00000000000E+00 -0.00000000000E+00 -0.45593999997E+02  0.45594000000E+02  0.51100000000E-03 0. -1.
    9900012    2    1    2    0    0  0.99761362857E+01  0.27672715424E+02  0.31911134494E+02  0.47787274444E+02  0.20000015498E+02 0.  0.
         12    1    1    2    0    0 -0.99761362857E+01 -0.27672715424E+02 -0.31911134494E+02  0.43400725556E+02  0.00000000000E+00 0. -1.
         11    1    3    3    0    0  0.90727819856E+01  0.16326083506E+02  0.20494709761E+02  0.27728856884E+02  0.51100000000E-03 0. -1.
        -11    1    3    3    0    0 -0.25561690277E+01 -0.16187796183E+01  0.27146763739E+01  0.40649619466E+01  0.51100000000E-03 0.  1.
         12    1    3    3    0    0  0.34595233278E+01  0.12965411536E+02  0.87017483585E+01  0.15993455613E+02  0.00000000000E+00 0. -1.
</event>
<event>
 7    1  0.4876728E-009  0.4778727E+02  0.7816164E-02  0.1312668E+00
        -11   -1    0    0    0    0  0.00000000000E+00  0.00000000000E+00  0.45593999997E+02  0.45594000000E+02  0.51100000000E-03 0.  1.
         11   -1    0    0    0    0 -0.00000000000E+00 -0.00000000000E+00 -0.45593999997E+02  0.45594000000E+02  0.51100000000E-03 0. -1.
    9900012    2    1    2    0    0 -0.17180779797E+01  0.40762246849E+02 -0.14802377377E+02  0.47787274936E+02  0.20000017741E+02 0.  0.
         12    1    1    2    0    0  0.17180779797E+01 -0.40762246849E+02  0.14802377377E+02  0.43400725064E+02  0.00000000000E+00 0. -1.
         11    1    3    3    0    0  0.39491463370E+01  0.13637580878E+01  0.10666040119E+01  0.43119876266E+01  0.51100000000E-03 0. -1.
        -11    1    3    3    0    0 -0.26145761094E+01  0.33418883137E+02 -0.11384105635E+02  0.35401350535E+02  0.51100000000E-03 0.  1.
        -12    1    3    3    0    0 -0.30526482072E+01  0.59796056239E+01 -0.44848757542E+01  0.80739367736E+01  0.00000000000E+00 0.  1.
</event>
<event>
 7    1  0.4876728E-009  0.4778727E+02  0.7816164E-02  0.1312668E+00
        -11   -1    0    0    0    0  0.00000000000E+00  0.00000000000E+00  0.45593999997E+02  0.45594000000E+02  0.51100000000E-03 0. -1.
         11   -1    0    0    0    0 -0.00000000000E+00 -0.00000000000E+00 -0.45593999997E+02  0.45594000000E+02  0.51100000000E-03 0.  1.
    9900012    2    1    2    0    0  0.26837615438E+02 -0.12075291984E+02 -0.31899108528E+02  0.47787269548E+02  0.19999993176E+02 0.  0.
         12    1    1    2    0    0 -0.26837615438E+02  0.12075291984E+02  0.31899108528E+02  0.43400730452E+02  0.00000000000E+00 0. -1.
         11    1    3    3    0    0  0.14954300790E+02 -0.32552766940E+01 -0.72219412270E+01  0.16922894959E+02  0.51100000000E-03 0. -1.
        -11    1    3    3    0    0 -0.21545602367E+01 -0.47906907171E+00 -0.30726618291E+01  0.37832377623E+01  0.51100000000E-03 0.  1.
        -12    1    3    3    0    0  0.14037874885E+02 -0.83409462188E+01 -0.21604505472E+02  0.27081136826E+02  0.00000000000E+00 0.  1.
</event>
<event>
 7    1  0.4876728E-009  0.4778727E+02  0.7816164E-02  0.1312668E+00
        -11   -1    0    0    0    0  0.00000000000E+00  0.00000000000E+00  0.45593999997E+02  0.45594000000E+02  0.51100000000E-03 0.  1.
         11   -1    0    0    0    0 -0.00000000000E+00 -0.00000000000E+00 -0.45593999997E+02  0.45594000000E+02  0.51100000000E-03 0. -1.
    9900012    2    1    2    0    0 -0.28489877599E+02  0.28482665607E+01  0.32616524971E+02  0.47787269025E+02  0.19999990791E+02 0.  0.
         12    1    1    2    0    0  0.28489877599E+02 -0.28482665607E+01 -0.32616524971E+02  0.43400730975E+02  0.00000000000E+00 0. -1.
         11    1    3    3    0    0 -0.80621882115E+00  0.27809744871E+01  0.22040726088E+01  0.36389207481E+01  0.51100000000E-03 0. -1.
        -11    1    3    3    0    0  0.24632534110E+00 -0.27301575161E+01 -0.28085795399E-01  0.27413911267E+01  0.51100000000E-03 0.  1.
        -12    1    3    3    0    0 -0.27929984119E+02  0.27974495897E+01  0.30440538157E+02  0.41406957150E+02  0.00000000000E+00 0.  1.
</event>
<event>
 7    1  0.4876728E-009  0.4778728E+02  0.7816164E-02  0.1312668E+00
        -11   -1    0    0    0    0  0.00000000000E+00  0.00000000000E+00  0.45593999997E+02  0.45594000000E+02  0.51100000000E-03 0.  1.
         11   -1    0    0    0    0 -0.00000000000E+00 -0.00000000000E+00 -0.45593999997E+02  0.45594000000E+02  0.51100000000E-03 0. -1.
    9900012    2    1    2    0    0 -0.19226471106E+02 -0.36865228274E+02  0.12446702707E+02  0.47787278172E+02  0.20000032498E+02 0.  0.
         12    1    1    2    0    0  0.19226471106E+02  0.36865228274E+02 -0.12446702707E+02  0.43400721828E+02  0.00000000000E+00 0. -1.
         11    1    3    3    0    0 -0.41585571736E+01 -0.52827084697E+01  0.80242688149E+01  0.10468500218E+02  0.51100000000E-03 0. -1.
        -11    1    3    3    0    0 -0.16088328726E+02 -0.26707306786E+02  0.66214370613E+01  0.31874095846E+02  0.51100000000E-03 0.  1.
        -12    1    3    3    0    0  0.10204147931E+01 -0.48752130181E+01 -0.21990031690E+01  0.54446821081E+01  0.00000000000E+00 0.  1.
</event>
<event>
 7    1  0.4876728E-009  0.4778728E+02  0.7816164E-02  0.1312668E+00
        -11   -1    0    0    0    0  0.00000000000E+00  0.00000000000E+00  0.45593999997E+02  0.45594000000E+02  0.51100000000E-03 0.  1.
         11   -1    0    0    0    0 -0.00000000000E+00 -0.00000000000E+00 -0.45593999997E+02  0.45594000000E+02  0.51100000000E-03 0. -1.
    9900012    2    1    2    0    0 -0.41756769819E+02 -0.10589057674E+02  0.52789166703E+01  0.47787275013E+02  0.20000018096E+02 0.  0.
         12    1    1    2    0    0  0.41756769819E+02  0.10589057674E+02 -0.52789166703E+01  0.43400724987E+02  0.00000000000E+00 0. -1.
         11    1    3    3    0    0 -0.16537181724E+01 -0.10269485286E+00 -0.25975969532E+01  0.30810453127E+01  0.51100000000E-03 0. -1.
        -11    1    3    3    0    0 -0.24872626908E+02 -0.13703493724E+02  0.41444266859E+01  0.28698598962E+02  0.51100000000E-03 0.  1.
        -12    1    3    3    0    0 -0.15230424739E+02  0.32171309025E+01  0.37320869376E+01  0.16007630739E+02  0.00000000000E+00 0.  1.
</event>
<event>
 7    1  0.4876728E-009  0.4778727E+02  0.7816164E-02  0.1312668E+00
        -11   -1    0    0    0    0  0.00000000000E+00  0.00000000000E+00  0.45593999997E+02  0.45594000000E+02  0.51100000000E-03 0.  1.
         11   -1    0    0    0    0 -0.00000000000E+00 -0.00000000000E+00 -0.45593999997E+02  0.45594000000E+02  0.51100000000E-03 0. -1.
    9900012    2    1    2    0    0 -0.99968110482E+01  0.20275740043E+02  0.37048366089E+02  0.47787270797E+02  0.19999998873E+02 0.  0.
         12    1    1    2    0    0  0.99968110482E+01 -0.20275740043E+02 -0.37048366089E+02  0.43400729203E+02  0.00000000000E+00 0. -1.
         11    1    3    3    0    0 -0.89869669173E+00 -0.23148296123E+01  0.89779845889E+00  0.26404799207E+01  0.51100000000E-03 0. -1.
        -11    1    3    3    0    0 -0.12450308330E+01  0.12728153890E+02  0.25948496670E+02  0.28928886652E+02  0.51100000000E-03 0.  1.
         12    1    3    3    0    0 -0.78530835234E+01  0.98624157650E+01  0.10202070960E+02  0.16217904224E+02  0.00000000000E+00 0. -1.
</event>
<event>
 7    1  0.4876728E-009  0.4778727E+02  0.7816164E-02  0.1312668E+00
        -11   -1    0    0    0    0  0.00000000000E+00  0.00000000000E+00  0.45593999997E+02  0.45594000000E+02  0.51100000000E-03 0.  1.
         11   -1    0    0    0    0 -0.00000000000E+00 -0.00000000000E+00 -0.45593999997E+02  0.45594000000E+02  0.51100000000E-03 0. -1.
    9900012    2    1    2    0    0  0.12320627883E+02  0.19771553683E+01  0.41568216502E+02  0.47787266851E+02  0.19999980880E+02 0.  0.
         12    1    1    2    0    0 -0.12320627883E+02 -0.19771553683E+01 -0.41568216502E+02  0.43400733149E+02  0.00000000000E+00 0. -1.
         11    1    3    3    0    0  0.57661613859E+01 -0.65106329589E+01  0.28825884120E+02  0.30109276879E+02  0.51100000000E-03 0. -1.
        -11    1    3    3    0    0  0.69843382413E+01  0.48590963399E+01  0.78895170681E+01  0.11603287368E+02  0.51100000000E-03 0.  1.
         12    1    3    3    0    0 -0.42987174463E+00  0.36286919872E+01  0.48528153138E+01  0.60747026038E+01  0.00000000000E+00 0. -1.
</event>
<event>
 7    1  0.4876728E-009  0.4778727E+02  0.7816164E-02  0.1312668E+00
        -11   -1    0    0    0    0  0.00000000000E+00  0.00000000000E+00  0.45593999997E+02  0.45594000000E+02  0.51100000000E-03 0.  1.
         11   -1    0    0    0    0 -0.00000000000E+00 -0.00000000000E+00 -0.45593999997E+02  0.45594000000E+02  0.51100000000E-03 0. -1.
    9900012    2    1    2    0    0  0.26222728319E+02  0.23166224148E+02  0.25677195525E+02  0.47787265078E+02  0.19999972795E+02 0.  0.
         12    1    1    2    0    0 -0.26222728319E+02 -0.23166224148E+02 -0.25677195525E+02  0.43400734922E+02  0.00000000000E+00 0. -1.
         11    1    3    3    0    0 -0.13416543752E+01  0.95138627310E+00 -0.96266547574E+00  0.19057537570E+01  0.51100000000E-03 0.  1.
        -11    1    3    3    0    0  0.16883916749E+02  0.18541833190E+02  0.22966431194E+02  0.34004752387E+02  0.51100000000E-03 0. -1.
        -12    1    3    3    0    0  0.10680465945E+02  0.36730046850E+01  0.36734298059E+01  0.11876758933E+02  0.00000000000E+00 0.  1.
</event>
<event>
 7    1 -0.4876728E-009  0.4778728E+02  0.7816164E-02  0.1312668E+00
        -11   -1    0    0    0    0  0.00000000000E+00  0.00000000000E+00  0.45593999997E+02  0.45594000000E+02  0.51100000000E-03 0. -1.
         11   -1    0    0    0    0 -0.00000000000E+00 -0.00000000000E+00 -0.45593999997E+02  0.45594000000E+02  0.51100000000E-03 0.  1.
    9900012    2    1    2    0    0 -0.22108364064E+02  0.15525663325E+02 -0.33967583261E+02  0.47787277703E+02  0.20000030358E+02 0.  0.
         12    1    1    2    0    0  0.22108364064E+02 -0.15525663325E+02  0.33967583261E+02  0.43400722297E+02  0.00000000000E+00 0. -1.
         11    1    3    3    0    0 -0.49012063113E+01  0.72785198638E+01 -0.10062762889E+02  0.13351324726E+02  0.51100000000E-03 0. -1.
        -11    1    3    3    0    0 -0.27240894030E+01 -0.99774448329E+00 -0.14621063797E+02  0.14906094860E+02  0.51100000000E-03 0.  1.
        -12    1    3    3    0    0 -0.14483068350E+02  0.92448879450E+01 -0.92837565751E+01  0.19529858118E+02  0.00000000000E+00 0.  1.
</event>
<event>
 7    1  0.4876728E-009  0.4778727E+02  0.7816164E-02  0.1312668E+00
        -11   -1    0    0    0    0  0.00000000000E+00  0.00000000000E+00  0.45593999997E+02  0.45594000000E+02  0.51100000000E-03 0.  1.
         11   -1    0    0    0    0 -0.00000000000E+00 -0.00000000000E+00 -0.45593999997E+02  0.45594000000E+02  0.51100000000E-03 0. -1.
    9900012    2    1    2    0    0 -0.19111523218E+02 -0.34874201422E+02  0.17382835185E+02  0.47787271854E+02  0.20000003692E+02 0.  0.
         12    1    1    2    0    0  0.19111523218E+02  0.34874201422E+02 -0.17382835185E+02  0.43400728146E+02  0.00000000000E+00 0. -1.
         11    1    3    3    0    0 -0.59003533813E+00  0.54362055555E+00  0.40878817412E+01  0.41658663445E+01  0.51100000000E-03 0. -1.
        -11    1    3    3    0    0 -0.14693798155E+02 -0.17525424663E+02  0.44528729239E+01  0.23299705821E+02  0.51100000000E-03 0.  1.
        -12    1    3    3    0    0 -0.38276897248E+01 -0.17892397315E+02  0.88420805200E+01  0.20321699689E+02  0.00000000000E+00 0.  1.
</event>
<event>
 7    1  0.4876728E-009  0.4778727E+02  0.7816164E-02  0.1312668E+00
        -11   -1    0    0    0    0  0.00000000000E+00  0.00000000000E+00  0.45593999997E+02  0.45594000000E+02  0.51100000000E-03 0.  1.
         11   -1    0    0    0    0 -0.00000000000E+00 -0.00000000000E+00 -0.45593999997E+02  0.45594000000E+02  0.51100000000E-03 0. -1.
    9900012    2    1    2    0    0  0.34133239768E+02  0.10256116612E+02  0.24766051177E+02  0.47787271021E+02  0.19999999892E+02 0.  0.
         12    1    1    2    0    0 -0.34133239768E+02 -0.10256116612E+02 -0.24766051177E+02  0.43400728979E+02  0.00000000000E+00 0. -1.
         11    1    3    3    0    0 -0.81081637226E+00 -0.24603382310E+01  0.15055407346E+01  0.29962210474E+01  0.51100000000E-03 0. -1.
        -11    1    3    3    0    0  0.29005099747E+02  0.13812435264E+02  0.18277312212E+02  0.36961321963E+02  0.51100000000E-03 0.  1.
         12    1    3    3    0    0  0.59389563934E+01 -0.10959804205E+01  0.49831982298E+01  0.78297280107E+01  0.00000000000E+00 0. -1.
</event>
<event>
 7    1  0.4876728E-009  0.4778728E+02  0.7816164E-02  0.1312668E+00
        -11   -1    0    0    0    0  0.00000000000E+00  0.00000000000E+00  0.45593999997E+02  0.45594000000E+02  0.51100000000E-03 0.  1.
         11   -1    0    0    0    0 -0.00000000000E+00 -0.00000000000E+00 -0.45593999997E+02  0.45594000000E+02  0.51100000000E-03 0. -1.
    9900012    2    1    2    0    0  0.35205271996E+01 -0.95443952186E+00  0.43247166679E+02  0.47787280049E+02  0.20000041054E+02 0.  0.
         12    1    1    2    0    0 -0.35205271996E+01  0.95443952186E+00 -0.43247166679E+02  0.43400719951E+02  0.00000000000E+00 0. -1.
         11    1    3    3    0    0 -0.38021986199E+01 -0.34561469351E+01  0.29710864148E+02  0.30151900681E+02  0.51100000000E-03 0. -1.
        -11    1    3    3    0    0  0.64778482662E+01  0.48428703840E+00  0.13969254097E+02  0.15405749329E+02  0.51100000000E-03 0.  1.
         12    1    3    3    0    0  0.84487755334E+00  0.20174203748E+01 -0.43295156701E+00  0.22296300384E+01  0.00000000000E+00 0. -1.
</event>
<event>
 7    1  0.4876728E-009  0.4778727E+02  0.7816164E-02  0.1312668E+00
        -11   -1    0    0    0    0  0.00000000000E+00  0.00000000000E+00  0.45593999997E+02  0.45594000000E+02  0.51100000000E-03 0.  1.
         11   -1    0    0    0    0 -0.00000000000E+00 -0.00000000000E+00 -0.45593999997E+02  0.45594000000E+02  0.51100000000E-03 0. -1.
    9900012    2    1    2    0    0 -0.38100052941E+02  0.19765877469E+02  0.64280117342E+01  0.47787270961E+02  0.19999999621E+02 0.  0.
         12    1    1    2    0    0  0.38100052941E+02 -0.19765877469E+02 -0.64280117342E+01  0.43400729039E+02  0.00000000000E+00 0. -1.
         11    1    3    3    0    0 -0.12669865788E+02  0.32778622505E+01 -0.63720940309E+01  0.14555873818E+02  0.51100000000E-03 0. -1.
        -11    1    3    3    0    0 -0.22583493793E+02  0.16214178084E+02  0.11797510362E+02  0.30200910812E+02  0.51100000000E-03 0.  1.
        -12    1    3    3    0    0 -0.28466933601E+01  0.27383713496E+00  0.10025954027E+01  0.30304863314E+01  0.00000000000E+00 0.  1.
</event>
<event>
 7    1  0.4876728E-009  0.4778726E+02  0.7816164E-02  0.1312668E+00
        -11   -1    0    0    0    0  0.00000000000E+00  0.00000000000E+00  0.45593999997E+02  0.45594000000E+02  0.51100000000E-03 0. -1.
         11   -1    0    0    0    0 -0.00000000000E+00 -0.00000000000E+00 -0.45593999997E+02  0.45594000000E+02  0.51100000000E-03 0.  1.
    9900012    2    1    2    0    0  0.77974330800E+01 -0.22088748198E+02 -0.36536445843E+02  0.47787255370E+02  0.19999928534E+02 0.  0.
         12    1    1    2    0    0 -0.77974330800E+01  0.22088748198E+02  0.36536445843E+02  0.43400744630E+02  0.00000000000E+00 0. -1.
         11    1    3    3    0    0 -0.29593345225E+01 -0.11741314370E+02 -0.68208072424E+01  0.13897465080E+02  0.51100000000E-03 0. -1.
        -11    1    3    3    0    0  0.10945834752E+02 -0.10668668310E+02 -0.26034655553E+02  0.30189982974E+02  0.51100000000E-03 0.  1.
         12    1    3    3    0    0 -0.18906714934E+00  0.32123448198E+00 -0.36809830474E+01  0.36998073159E+01  0.00000000000E+00 0. -1.
</event>
<event>
 7    1  0.4876728E-009  0.4778727E+02  0.7816164E-02  0.1312668E+00
        -11   -1    0    0    0    0  0.00000000000E+00  0.00000000000E+00  0.45593999997E+02  0.45594000000E+02  0.51100000000E-03 0. -1.
         11   -1    0    0    0    0 -0.00000000000E+00 -0.00000000000E+00 -0.45593999997E+02  0.45594000000E+02  0.51100000000E-03 0.  1.
    9900012    2    1    2    0    0  0.32980272849E+02 -0.24449870944E+02 -0.14075830317E+02  0.47787267455E+02  0.19999983633E+02 0.  0.
         12    1    1    2    0    0 -0.32980272849E+02  0.24449870944E+02  0.14075830317E+02  0.43400732545E+02  0.00000000000E+00 0. -1.
         11    1    3    3    0    0  0.17379033613E+02 -0.17740859461E+02 -0.28691233633E+01  0.25000015458E+02  0.51100000000E-03 0. -1.
        -11    1    3    3    0    0  0.16853689166E+02 -0.52027115093E+01 -0.88862273541E+01  0.19750445119E+02  0.51100000000E-03 0.  1.
        -12    1    3    3    0    0 -0.12524499307E+01 -0.15062999732E+01 -0.23204796000E+01  0.30368068777E+01  0.00000000000E+00 0.  1.
</event>
<event>
 7    1  0.4876728E-009  0.4778727E+02  0.7816164E-02  0.1312668E+00
        -11   -1    0    0    0    0  0.00000000000E+00  0.00000000000E+00  0.45593999997E+02  0.45594000000E+02  0.51100000000E-03 0.  1.
         11   -1    0    0    0    0 -0.00000000000E+00 -0.00000000000E+00 -0.45593999997E+02  0.45594000000E+02  0.51100000000E-03 0. -1.
    9900012    2    1    2    0    0 -0.38401136395E+02 -0.17896060378E+02 -0.94184369270E+01  0.47787271807E+02  0.20000003479E+02 0.  0.
         12    1    1    2    0    0  0.38401136395E+02  0.17896060378E+02  0.94184369270E+01  0.43400728193E+02  0.00000000000E+00 0. -1.
         11    1    3    3    0    0 -0.27566511387E+02 -0.14749023806E+02 -0.89259934338E+00  0.31276876237E+02  0.51100000000E-03 0. -1.
        -11    1    3    3    0    0 -0.56358084985E+01 -0.45123404879E+01 -0.10392709437E+01  0.72940824280E+01  0.51100000000E-03 0.  1.
         12    1    3    3    0    0 -0.51988165093E+01  0.13653039162E+01 -0.74865666399E+01  0.92163131421E+01  0.00000000000E+00 0. -1.
</event>
<event>
 7    1  0.4876728E-009  0.4778727E+02  0.7816164E-02  0.1312668E+00
        -11   -1    0    0    0    0  0.00000000000E+00  0.00000000000E+00  0.45593999997E+02  0.45594000000E+02  0.51100000000E-03 0.  1.
         11   -1    0    0    0    0 -0.00000000000E+00 -0.00000000000E+00 -0.45593999997E+02  0.45594000000E+02  0.51100000000E-03 0. -1.
    9900012    2    1    2    0    0 -0.86348014351E+01 -0.39668389309E+02  0.15345429466E+02  0.47787272912E+02  0.20000008517E+02 0.  0.
         12    1    1    2    0    0  0.86348014351E+01  0.39668389309E+02 -0.15345429466E+02  0.43400727088E+02  0.00000000000E+00 0. -1.
         11    1    3    3    0    0 -0.55101823878E+01 -0.21502000295E+02  0.16793549393E+02  0.27833818066E+02  0.51100000000E-03 0. -1.
        -11    1    3    3    0    0  0.37624758177E+00 -0.15364033144E+02 -0.54019324099E+00  0.15378130110E+02  0.51100000000E-03 0.  1.
         12    1    3    3    0    0 -0.35008666290E+01 -0.28023558708E+01 -0.90792668565E+00  0.45753247368E+01  0.00000000000E+00 0. -1.
</event>
<event>
 7    1  0.4876728E-009  0.4778727E+02  0.7816164E-02  0.1312668E+00
        -11   -1    0    0    0    0  0.00000000000E+00  0.00000000000E+00  0.45593999997E+02  0.45594000000E+02  0.51100000000E-03 0.  1.
         11   -1    0    0    0    0 -0.00000000000E+00 -0.00000000000E+00 -0.45593999997E+02  0.45594000000E+02  0.51100000000E-03 0. -1.
    9900012    2    1    2    0    0  0.14403508951E+02 -0.29744578705E+02  0.28132227309E+02  0.47787271368E+02  0.20000001474E+02 0.  0.
         12    1    1    2    0    0 -0.14403508951E+02  0.29744578705E+02 -0.28132227309E+02  0.43400728632E+02  0.00000000000E+00 0. -1.
         11    1    3    3    0    0  0.61825407383E+01 -0.66471253838E+01  0.16162214510E+02  0.18537132032E+02  0.51100000000E-03 0. -1.
        -11    1    3    3    0    0  0.11544971029E+01 -0.32651286451E+01  0.67074170438E+01  0.75487331580E+01  0.51100000000E-03 0.  1.
         12    1    3    3    0    0  0.70664711094E+01 -0.19832324676E+02  0.52625957557E+01  0.21701406178E+02  0.00000000000E+00 0. -1.
</event>
<event>
 7    1  0.4876728E-009  0.4778727E+02  0.7816164E-02  0.1312668E+00
        -11   -1    0    0    0    0  0.00000000000E+00  0.00000000000E+00  0.45593999997E+02  0.45594000000E+02  0.51100000000E-03 0. -1.
         11   -1    0    0    0    0 -0.00000000000E+00 -0.00000000000E+00 -0.45593999997E+02  0.45594000000E+02  0.51100000000E-03 0.  1.
    9900012    2    1    2    0    0  0.12976211005E+02  0.12676527523E+02 -0.39427739244E+02  0.47787273923E+02  0.20000013126E+02 0.  0.
         12    1    1    2    0    0 -0.12976211005E+02 -0.12676527523E+02  0.39427739244E+02  0.43400726077E+02  0.00000000000E+00 0. -1.
         11    1    3    3    0    0  0.55715842510E+01  0.92484064526E+01 -0.52743887020E+01  0.12016436636E+02  0.51100000000E-03 0. -1.
        -11    1    3    3    0    0  0.50281305266E+01  0.49783648564E+01 -0.29360339814E+02  0.30200923289E+02  0.51100000000E-03 0.  1.
        -12    1    3    3    0    0  0.23764962273E+01 -0.15502437862E+01 -0.47930107281E+01  0.55699139989E+01  0.00000000000E+00 0.  1.
</event>
<event>
 7    1  0.4876728E-009  0.4778727E+02  0.7816164E-02  0.1312668E+00
        -11   -1    0    0    0    0  0.00000000000E+00  0.00000000000E+00  0.45593999997E+02  0.45594000000E+02  0.51100000000E-03 0.  1.
         11   -1    0    0    0    0 -0.00000000000E+00 -0.00000000000E+00 -0.45593999997E+02  0.45594000000E+02  0.51100000000E-03 0. -1.
    9900012    2    1    2    0    0 -0.16869944487E+02 -0.56594385607E+01  0.39585341964E+02  0.47787267630E+02  0.19999984434E+02 0.  0.
         12    1    1    2    0    0  0.16869944487E+02  0.56594385607E+01 -0.39585341964E+02  0.43400732370E+02  0.00000000000E+00 0. -1.
         11    1    3    3    0    0 -0.54367339124E+01  0.36172180440E+01  0.29441020430E+01  0.71631054098E+01  0.51100000000E-03 0. -1.
        -11    1    3    3    0    0 -0.90658925735E+01 -0.35483303314E+01  0.29998823354E+02  0.31539030727E+02  0.51100000000E-03 0.  1.
        -12    1    3    3    0    0 -0.23673180008E+01 -0.57283262732E+01  0.66424165674E+01  0.90851314940E+01  0.00000000000E+00 0.  1.
</event>
<event>
 7    1  0.4876728E-009  0.4778727E+02  0.7816164E-02  0.1312668E+00
        -11   -1    0    0    0    0  0.00000000000E+00  0.00000000000E+00  0.45593999997E+02  0.45594000000E+02  0.51100000000E-03 0. -1.
         11   -1    0    0    0    0 -0.00000000000E+00 -0.00000000000E+00 -0.45593999997E+02  0.45594000000E+02  0.51100000000E-03 0.  1.
    9900012    2    1    2    0    0 -0.14715419726E+02  0.39692348090E+02  0.95706401762E+01  0.47787271573E+02  0.20000002411E+02 0.  0.
         12    1    1    2    0    0  0.14715419726E+02 -0.39692348090E+02 -0.95706401762E+01  0.43400728427E+02  0.00000000000E+00 0. -1.
         11    1    3    3    0    0 -0.70461149255E+01  0.57005336470E+01  0.45691137710E+01  0.10149907404E+02  0.51100000000E-03 0. -1.
        -11    1    3    3    0    0 -0.46052307780E+01  0.33507898984E+02  0.60564364340E+01  0.34360847885E+02  0.51100000000E-03 0.  1.
        -12    1    3    3    0    0 -0.30640740228E+01  0.48391545827E+00 -0.10549100288E+01  0.32765162836E+01  0.00000000000E+00 0.  1.
</event>
<event>
 7    1  0.4876728E-009  0.4778728E+02  0.7816164E-02  0.1312668E+00
        -11   -1    0    0    0    0  0.00000000000E+00  0.00000000000E+00  0.45593999997E+02  0.45594000000E+02  0.51100000000E-03 0. -1.
         11   -1    0    0    0    0 -0.00000000000E+00 -0.00000000000E+00 -0.45593999997E+02  0.45594000000E+02  0.51100000000E-03 0.  1.
    9900012    2    1    2    0    0 -0.21673016367E+02 -0.36058596099E+02 -0.10662115600E+02  0.47787277654E+02  0.20000030135E+02 0.  0.
         12    1    1    2    0    0  0.21673016367E+02  0.36058596099E+02  0.10662115600E+02  0.43400722346E+02  0.00000000000E+00 0. -1.
         11    1    3    3    0    0  0.32133484786E+00 -0.60117087053E+01  0.68540362432E+00  0.60591811354E+01  0.51100000000E-03 0. -1.
        -11    1    3    3    0    0 -0.59418963641E+01 -0.16761712505E+02 -0.10955648729E+02  0.20887493335E+02  0.51100000000E-03 0.  1.
        -12    1    3    3    0    0 -0.16052454851E+02 -0.13285174889E+02 -0.39187049595E+00  0.20840603184E+02  0.00000000000E+00 0.  1.
</event>
<event>
 7    1  0.4876728E-009  0.4778727E+02  0.7816164E-02  0.1312668E+00
        -11   -1    0    0    0    0  0.00000000000E+00  0.00000000000E+00  0.45593999997E+02  0.45594000000E+02  0.51100000000E-03 0.  1.
         11   -1    0    0    0    0 -0.00000000000E+00 -0.00000000000E+00 -0.45593999997E+02  0.45594000000E+02  0.51100000000E-03 0. -1.
    9900012    2    1    2    0    0  0.19791253652E+02  0.35466752899E+02  0.15298333533E+02  0.47787270845E+02  0.19999999091E+02 0.  0.
         12    1    1    2    0    0 -0.19791253652E+02 -0.35466752899E+02 -0.15298333533E+02  0.43400729155E+02  0.00000000000E+00 0. -1.
         11    1    3    3    0    0  0.42933125235E+01  0.24575845765E+02  0.91615433291E+01  0.26577031510E+02  0.51100000000E-03 0. -1.
        -11    1    3    3    0    0  0.11354202311E+02  0.10517200334E+02  0.69588675263E+01  0.16969244253E+02  0.51100000000E-03 0.  1.
         12    1    3    3    0    0  0.41437388177E+01  0.37370679938E+00 -0.82207732226E+00  0.42409950819E+01  0.00000000000E+00 0. -1.
</event>
<event>
 7    1  0.4876728E-009  0.4778727E+02  0.7816164E-02  0.1312668E+00
        -11   -1    0    0    0    0  0.00000000000E+00  0.00000000000E+00  0.45593999997E+02  0.45594000000E+02  0.51100000000E-03 0. -1.
         11   -1    0    0    0    0 -0.00000000000E+00 -0.00000000000E+00 -0.45593999997E+02  0.45594000000E+02  0.51100000000E-03 0.  1.
    9900012    2    1    2    0    0  0.11438738202E+02 -0.30490905395E+02 -0.28689431269E+02  0.47787268324E+02  0.19999987597E+02 0.  0.
         12    1    1    2    0    0 -0.11438738202E+02  0.30490905395E+02  0.28689431269E+02  0.43400731676E+02  0.00000000000E+00 0. -1.
         11    1    3    3    0    0  0.26783289830E+01 -0.78577868903E+01  0.65509640628E-01  0.83019607761E+01  0.51100000000E-03 0. -1.
        -11    1    3    3    0    0  0.53105702785E+01 -0.44809440012E+01 -0.14735563257E+02  0.16291649413E+02  0.51100000000E-03 0.  1.
        -12    1    3    3    0    0  0.34498389402E+01 -0.18152174504E+02 -0.14019377653E+02  0.23193658135E+02  0.00000000000E+00 0.  1.
</event>
<event>
 7    1  0.4876728E-009  0.4778727E+02  0.7816164E-02  0.1312668E+00
        -11   -1    0    0    0    0  0.00000000000E+00  0.00000000000E+00  0.45593999997E+02  0.45594000000E+02  0.51100000000E-03 0.  1.
         11   -1    0    0    0    0 -0.00000000000E+00 -0.00000000000E+00 -0.45593999997E+02  0.45594000000E+02  0.51100000000E-03 0. -1.
    9900012    2    1    2    0    0  0.10203055795E+02  0.12437073722E+01  0.42166026847E+02  0.47787274481E+02  0.20000015667E+02 0.  0.
         12    1    1    2    0    0 -0.10203055795E+02 -0.12437073722E+01 -0.42166026847E+02  0.43400725519E+02  0.00000000000E+00 0. -1.
         11    1    3    3    0    0 -0.13860655143E+01  0.26940557162E+01  0.46402573576E+01  0.55417598665E+01  0.51100000000E-03 0. -1.
        -11    1    3    3    0    0  0.13436039239E+02 -0.56760706128E+01  0.25671202752E+02  0.29525507262E+02  0.51100000000E-03 0.  1.
        -12    1    3    3    0    0 -0.18469179298E+01  0.42257222688E+01  0.11854566737E+02  0.12720007353E+02  0.00000000000E+00 0.  1.
</event>
<event>
 7    1  0.4876728E-009  0.4778728E+02  0.7816164E-02  0.1312668E+00
        -11   -1    0    0    0    0  0.00000000000E+00  0.00000000000E+00  0.45593999997E+02  0.45594000000E+02  0.51100000000E-03 0. -1.
         11   -1    0    0    0    0 -0.00000000000E+00 -0.00000000000E+00 -0.45593999997E+02  0.45594000000E+02  0.51100000000E-03 0.  1.
    9900012    2    1    2    0    0  0.79472962874E+01  0.42595405514E+02  0.24687552789E+01  0.47787276022E+02  0.20000022697E+02 0.  0.
         12    1    1    2    0    0 -0.79472962874E+01 -0.42595405514E+02 -0.24687552789E+01  0.43400723978E+02  0.00000000000E+00 0. -1.
         11    1    3    3    0    0 -0.44200415730E+01  0.78517336969E+01 -0.24113980552E+01  0.93274503695E+01  0.51100000000E-03 0. -1.
        -11    1    3    3    0    0  0.82381078900E+01  0.29476988537E+02  0.79044987423E+00  0.30616728860E+02  0.51100000000E-03 0.  1.
        -12    1    3    3    0    0  0.41292299704E+01  0.52666832799E+01  0.40897034599E+01  0.78430967933E+01  0.00000000000E+00 0.  1.
</event>
<event>
 7    1  0.4876728E-009  0.4778727E+02  0.7816164E-02  0.1312668E+00
        -11   -1    0    0    0    0  0.00000000000E+00  0.00000000000E+00  0.45593999997E+02  0.45594000000E+02  0.51100000000E-03 0.  1.
         11   -1    0    0    0    0 -0.00000000000E+00 -0.00000000000E+00 -0.45593999997E+02  0.45594000000E+02  0.51100000000E-03 0. -1.
    9900012    2    1    2    0    0  0.33452043333E+02 -0.12586332801E+02  0.24620488720E+02  0.47787269115E+02  0.19999991202E+02 0.  0.
         12    1    1    2    0    0 -0.33452043333E+02  0.12586332801E+02 -0.24620488720E+02  0.43400730885E+02  0.00000000000E+00 0. -1.
         11    1    3    3    0    0  0.12579017569E+02 -0.17294610366E+01 -0.23810735210E+00  0.12699583216E+02  0.51100000000E-03 0. -1.
        -11    1    3    3    0    0  0.20818863069E+02 -0.86660116412E+01  0.22230654225E+02  0.31665861820E+02  0.51100000000E-03 0.  1.
         12    1    3    3    0    0  0.54162694837E-01 -0.21908601233E+01  0.26279418471E+01  0.34218240793E+01  0.00000000000E+00 0. -1.
</event>
<event>
 7    1  0.4876728E-009  0.4778727E+02  0.7816164E-02  0.1312668E+00
        -11   -1    0    0    0    0  0.00000000000E+00  0.00000000000E+00  0.45593999997E+02  0.45594000000E+02  0.51100000000E-03 0.  1.
         11   -1    0    0    0    0 -0.00000000000E+00 -0.00000000000E+00 -0.45593999997E+02  0.45594000000E+02  0.51100000000E-03 0. -1.
    9900012    2    1    2    0    0 -0.12660185944E+02 -0.20595270010E+02  0.36044105267E+02  0.47787274437E+02  0.20000015467E+02 0.  0.
         12    1    1    2    0    0  0.12660185944E+02  0.20595270010E+02 -0.36044105267E+02  0.43400725563E+02  0.00000000000E+00 0. -1.
         11    1    3    3    0    0 -0.46439391853E+01 -0.33468484215E+01  0.18223774884E+01  0.60073809172E+01  0.51100000000E-03 0. -1.
        -11    1    3    3    0    0 -0.73060539264E+01 -0.10611791136E+01  0.74610821595E+01  0.10496298030E+02  0.51100000000E-03 0.  1.
        -12    1    3    3    0    0 -0.71019283260E+00 -0.16187242475E+02  0.26760645619E+02  0.31283595489E+02  0.00000000000E+00 0.  1.
</event>
<event>
 7    1  0.4876728E-009  0.4778727E+02  0.7816164E-02  0.1312668E+00
        -11   -1    0    0    0    0  0.00000000000E+00  0.00000000000E+00  0.45593999997E+02  0.45594000000E+02  0.51100000000E-03 0.  1.
         11   -1    0    0    0    0 -0.00000000000E+00 -0.00000000000E+00 -0.45593999997E+02  0.45594000000E+02  0.51100000000E-03 0. -1.
    9900012    2    1    2    0    0  0.39910088954E+02 -0.42018803626E+01 -0.16527319896E+02  0.47787270722E+02  0.19999998530E+02 0.  0.
         12    1    1    2    0    0 -0.39910088954E+02  0.42018803626E+01  0.16527319896E+02  0.43400729278E+02  0.00000000000E+00 0. -1.
         11    1    3    3    0    0  0.93732306708E+01  0.53564947733E+01 -0.57944401878E+01  0.12252551849E+02  0.51100000000E-03 0. -1.
        -11    1    3    3    0    0  0.20409283693E+02 -0.11096600887E+02 -0.99153718722E+01  0.25258424570E+02  0.51100000000E-03 0.  1.
        -12    1    3    3    0    0  0.10127574590E+02  0.15382257515E+01 -0.81750783621E+00  0.10276294303E+02  0.00000000000E+00 0.  1.
</event>
<event>
 7    1  0.4876728E-009  0.4778727E+02  0.7816164E-02  0.1312668E+00
        -11   -1    0    0    0    0  0.00000000000E+00  0.00000000000E+00  0.45593999997E+02  0.45594000000E+02  0.51100000000E-03 0.  1.
         11   -1    0    0    0    0 -0.00000000000E+00 -0.00000000000E+00 -0.45593999997E+02  0.45594000000E+02  0.51100000000E-03 0. -1.
    9900012    2    1    2    0    0  0.30613706142E+02 -0.11930662152E+02  0.28356367526E+02  0.47787270946E+02  0.19999999550E+02 0.  0.
         12    1    1    2    0    0 -0.30613706142E+02  0.11930662152E+02 -0.28356367526E+02  0.43400729054E+02  0.00000000000E+00 0. -1.
         11    1    3    3    0    0  0.39678587410E+01 -0.12344775279E+01 -0.23085627946E+01  0.47536617668E+01  0.51100000000E-03 0. -1.
        -11    1    3    3    0    0  0.16046159481E+02 -0.10481465005E+02  0.23066194798E+02  0.29989826366E+02  0.51100000000E-03 0.  1.
         12    1    3    3    0    0  0.10599687920E+02 -0.21471961853E+00  0.75987355230E+01  0.13043782813E+02  0.00000000000E+00 0. -1.
</event>
<event>
 7    1  0.4876728E-009  0.4778727E+02  0.7816164E-02  0.1312668E+00
        -11   -1    0    0    0    0  0.00000000000E+00  0.00000000000E+00  0.45593999997E+02  0.45594000000E+02  0.51100000000E-03 0.  1.
         11   -1    0    0    0    0 -0.00000000000E+00 -0.00000000000E+00 -0.45593999997E+02  0.45594000000E+02  0.51100000000E-03 0. -1.
    9900012    2    1    2    0    0 -0.33880415698E+01 -0.38941489161E+02  0.18860132938E+02  0.47787273991E+02  0.20000013432E+02 0.  0.
         12    1    1    2    0    0  0.33880415698E+01  0.38941489161E+02 -0.18860132938E+02  0.43400726009E+02  0.00000000000E+00 0. -1.
         11    1    3    3    0    0 -0.37811080657E-01 -0.36004507849E+01 -0.61102697563E+00  0.36521267446E+01  0.51100000000E-03 0. -1.
        -11    1    3    3    0    0  0.66926565901E+00 -0.33933219687E+02  0.12908595814E+02  0.36311749627E+02  0.51100000000E-03 0.  1.
        -12    1    3    3    0    0 -0.40194961481E+01 -0.14078186887E+01  0.65625640989E+01  0.78233976185E+01  0.00000000000E+00 0.  1.
</event>
<event>
 7    1  0.4876728E-009  0.4778728E+02  0.7816164E-02  0.1312668E+00
        -11   -1    0    0    0    0  0.00000000000E+00  0.00000000000E+00  0.45593999997E+02  0.45594000000E+02  0.51100000000E-03 0.  1.
         11   -1    0    0    0    0 -0.00000000000E+00 -0.00000000000E+00 -0.45593999997E+02  0.45594000000E+02  0.51100000000E-03 0. -1.
    9900012    2    1    2    0    0 -0.12354453788E+02  0.25795323492E+02  0.32643397679E+02  0.47787278180E+02  0.20000032535E+02 0.  0.
         12    1    1    2    0    0  0.12354453788E+02 -0.25795323492E+02 -0.32643397679E+02  0.43400721820E+02  0.00000000000E+00 0. -1.
         11    1    3    3    0    0 -0.12348943942E+02  0.18249997469E+02  0.27035466855E+02  0.34878005855E+02  0.51100000000E-03 0. -1.
        -11    1    3    3    0    0 -0.24739735603E+00  0.62196251922E+01  0.80164997774E+01  0.10149345394E+02  0.51100000000E-03 0.  1.
         12    1    3    3    0    0  0.24188751001E+00  0.13257008304E+01 -0.24085689536E+01  0.27599269308E+01  0.00000000000E+00 0. -1.
</event>
<event>
 7    1  0.4876728E-009  0.4778727E+02  0.7816164E-02  0.1312668E+00
        -11   -1    0    0    0    0  0.00000000000E+00  0.00000000000E+00  0.45593999997E+02  0.45594000000E+02  0.51100000000E-03 0. -1.
         11   -1    0    0    0    0 -0.00000000000E+00 -0.00000000000E+00 -0.45593999997E+02  0.45594000000E+02  0.51100000000E-03 0.  1.
    9900012    2    1    2    0    0  0.28111103025E+02  0.27919429198E+02 -0.17717067405E+02  0.47787272847E+02  0.20000008217E+02 0.  0.
         12    1    1    2    0    0 -0.28111103025E+02 -0.27919429198E+02  0.17717067405E+02  0.43400727153E+02  0.00000000000E+00 0. -1.
         11    1    3    3    0    0  0.50257684086E+01  0.44970892183E+01 -0.95749571469E+01  0.11711616633E+02  0.51100000000E-03 0. -1.
        -11    1    3    3    0    0  0.12992014330E+02  0.18704334622E+02 -0.90858818756E+00  0.22791886775E+02  0.51100000000E-03 0.  1.
        -12    1    3    3    0    0  0.10093320286E+02  0.47180053576E+01 -0.72335220701E+01  0.13283769438E+02  0.00000000000E+00 0.  1.
</event>
<event>
 7    1  0.4876728E-009  0.4778727E+02  0.7816164E-02  0.1312668E+00
        -11   -1    0    0    0    0  0.00000000000E+00  0.00000000000E+00  0.45593999997E+02  0.45594000000E+02  0.51100000000E-03 0. -1.
         11   -1    0    0    0    0 -0.00000000000E+00 -0.00000000000E+00 -0.45593999997E+02  0.45594000000E+02  0.51100000000E-03 0.  1.
    9900012    2    1    2    0    0  0.13798464954E+02  0.29459586494E+02 -0.28729051413E+02  0.47787271129E+02  0.20000000384E+02 0.  0.
         12    1    1    2    0    0 -0.13798464954E+02 -0.29459586494E+02  0.28729051413E+02  0.43400728871E+02  0.00000000000E+00 0. -1.
         11    1    3    3    0    0 -0.24551745050E+00  0.22824905143E+01 -0.17990082764E+00  0.23026954500E+01  0.51100000000E-03 0. -1.
        -11    1    3    3    0    0  0.10940014031E+02  0.12072439173E+02 -0.44752112129E+01  0.16895419801E+02  0.51100000000E-03 0.  1.
        -12    1    3    3    0    0  0.31039683741E+01  0.15104656806E+02 -0.24073939373E+02  0.28589155878E+02  0.00000000000E+00 0.  1.
</event>
<event>
 7    1  0.4876728E-009  0.4778727E+02  0.7816164E-02  0.1312668E+00
        -11   -1    0    0    0    0  0.00000000000E+00  0.00000000000E+00  0.45593999997E+02  0.45594000000E+02  0.51100000000E-03 0.  1.
         11   -1    0    0    0    0 -0.00000000000E+00 -0.00000000000E+00 -0.45593999997E+02  0.45594000000E+02  0.51100000000E-03 0. -1.
    9900012    2    1    2    0    0 -0.22620377696E+02  0.93714674522E+01  0.35834585245E+02  0.47787269718E+02  0.19999993954E+02 0.  0.
         12    1    1    2    0    0  0.22620377696E+02 -0.93714674522E+01 -0.35834585245E+02  0.43400730282E+02  0.00000000000E+00 0. -1.
         11    1    3    3    0    0 -0.75615723936E+01  0.21171214499E+01  0.20192668270E+02  0.21665720215E+02  0.51100000000E-03 0. -1.
        -11    1    3    3    0    0 -0.11900739388E+02  0.44385041912E+01  0.17397494688E+02  0.21540676384E+02  0.51100000000E-03 0.  1.
         12    1    3    3    0    0 -0.31580659145E+01  0.28158418111E+01 -0.17555777131E+01  0.45808731189E+01  0.00000000000E+00 0. -1.
</event>
<event>
 7    1  0.4876728E-009  0.4778727E+02  0.7816164E-02  0.1312668E+00
        -11   -1    0    0    0    0  0.00000000000E+00  0.00000000000E+00  0.45593999997E+02  0.45594000000E+02  0.51100000000E-03 0.  1.
         11   -1    0    0    0    0 -0.00000000000E+00 -0.00000000000E+00 -0.45593999997E+02  0.45594000000E+02  0.51100000000E-03 0. -1.
    9900012    2    1    2    0    0 -0.40008845080E+01  0.81515716084E+01  0.42440170657E+02  0.47787270951E+02  0.19999999575E+02 0.  0.
         12    1    1    2    0    0  0.40008845080E+01 -0.81515716084E+01 -0.42440170657E+02  0.43400729049E+02  0.00000000000E+00 0. -1.
         11    1    3    3    0    0 -0.76011681968E+01  0.49976781127E+01  0.32349345947E+02  0.33604087965E+02  0.51100000000E-03 0.  1.
        -11    1    3    3    0    0  0.58462696303E+01  0.44234829153E+01  0.67790444886E+01  0.99850645532E+01  0.51100000000E-03 0. -1.
         12    1    3    3    0    0 -0.22459859415E+01 -0.12695894196E+01  0.33117802219E+01  0.41981184335E+01  0.00000000000E+00 0. -1.
</event>
<event>
 7    1  0.4876728E-009  0.4778727E+02  0.7816164E-02  0.1312668E+00
        -11   -1    0    0    0    0  0.00000000000E+00  0.00000000000E+00  0.45593999997E+02  0.45594000000E+02  0.51100000000E-03 0.  1.
         11   -1    0    0    0    0 -0.00000000000E+00 -0.00000000000E+00 -0.45593999997E+02  0.45594000000E+02  0.51100000000E-03 0. -1.
    9900012    2    1    2    0    0  0.25810967647E+02 -0.34801107926E+02 -0.25100262215E+01  0.47787269645E+02  0.19999993617E+02 0.  0.
         12    1    1    2    0    0 -0.25810967647E+02  0.34801107926E+02  0.25100262215E+01  0.43400730355E+02  0.00000000000E+00 0. -1.
         11    1    3    3    0    0  0.41091553346E+01 -0.11136308351E+02  0.61194867967E+00  0.11886000282E+02  0.51100000000E-03 0. -1.
        -11    1    3    3    0    0  0.17393496966E+02 -0.17755929888E+02 -0.90865107305E+01  0.26464532121E+02  0.51100000000E-03 0.  1.
        -12    1    3    3    0    0  0.43083153465E+01 -0.59088696871E+01  0.59645358293E+01  0.94367372414E+01  0.00000000000E+00 0.  1.
</event>
<event>
 7    1  0.4876728E-009  0.4778727E+02  0.7816164E-02  0.1312668E+00
        -11   -1    0    0    0    0  0.00000000000E+00  0.00000000000E+00  0.45593999997E+02  0.45594000000E+02  0.51100000000E-03 0.  1.
         11   -1    0    0    0    0 -0.00000000000E+00 -0.00000000000E+00 -0.45593999997E+02  0.45594000000E+02  0.51100000000E-03 0. -1.
    9900012    2    1    2    0    0  0.11123805064E+02 -0.42953134854E+01  0.41730504520E+02  0.47787265392E+02  0.19999974226E+02 0.  0.
         12    1    1    2    0    0 -0.11123805064E+02  0.42953134854E+01 -0.41730504520E+02  0.43400734608E+02  0.00000000000E+00 0. -1.
         11    1    3    3    0    0  0.10000107162E+02  0.31190634322E+01  0.24134768652E+02  0.26310031510E+02  0.51100000000E-03 0. -1.
        -11    1    3    3    0    0  0.38686922557E+01 -0.82263520591E+01  0.10887080299E+02  0.14183376385E+02  0.51100000000E-03 0.  1.
         12    1    3    3    0    0 -0.27449943537E+01  0.81197514149E+00  0.67086555694E+01  0.72938574966E+01  0.00000000000E+00 0. -1.
</event>
<event>
 7    1  0.4876728E-009  0.4778728E+02  0.7816164E-02  0.1312668E+00
        -11   -1    0    0    0    0  0.00000000000E+00  0.00000000000E+00  0.45593999997E+02  0.45594000000E+02  0.51100000000E-03 0. -1.
         11   -1    0    0    0    0 -0.00000000000E+00 -0.00000000000E+00 -0.45593999997E+02  0.45594000000E+02  0.51100000000E-03 0.  1.
    9900012    2    1    2    0    0 -0.23360923176E+02 -0.30635380455E+02 -0.19984070288E+02  0.47787281889E+02  0.20000049445E+02 0.  0.
         12    1    1    2    0    0  0.23360923176E+02  0.30635380455E+02  0.19984070288E+02  0.43400718111E+02  0.00000000000E+00 0. -1.
         11    1    3    3    0    0 -0.28252282951E+01 -0.41312818029E+01  0.18522778323E+01  0.53366972636E+01  0.51100000000E-03 0. -1.
        -11    1    3    3    0    0 -0.19494835238E+02 -0.21180362837E+02 -0.23066950084E+02  0.36888217052E+02  0.51100000000E-03 0.  1.
        -12    1    3    3    0    0 -0.10408596426E+01 -0.53237358151E+01  0.12306019633E+01  0.55623675730E+01  0.00000000000E+00 0.  1.
</event>
<event>
 7    1  0.4876728E-009  0.4778727E+02  0.7816164E-02  0.1312668E+00
        -11   -1    0    0    0    0  0.00000000000E+00  0.00000000000E+00  0.45593999997E+02  0.45594000000E+02  0.51100000000E-03 0.  1.
         11   -1    0    0    0    0 -0.00000000000E+00 -0.00000000000E+00 -0.45593999997E+02  0.45594000000E+02  0.51100000000E-03 0. -1.
    9900012    2    1    2    0    0  0.66894112837E+00  0.34161905335E+02  0.26760791659E+02  0.47787271566E+02  0.20000002378E+02 0.  0.
         12    1    1    2    0    0 -0.66894112837E+00 -0.34161905335E+02 -0.26760791659E+02  0.43400728434E+02  0.00000000000E+00 0. -1.
         11    1    3    3    0    0  0.35652885058E+01 -0.16083837732E-01  0.19496189545E+01  0.40635643404E+01  0.51100000000E-03 0. -1.
        -11    1    3    3    0    0  0.26948214616E+01  0.33369926291E+01  0.52397687979E+01  0.67714665939E+01  0.51100000000E-03 0.  1.
         12    1    3    3    0    0 -0.55911688390E+01  0.30840996544E+02  0.19571403907E+02  0.36952240632E+02  0.00000000000E+00 0. -1.
</event>
<event>
 7    1  0.4876728E-009  0.4778727E+02  0.7816164E-02  0.1312668E+00
        -11   -1    0    0    0    0  0.00000000000E+00  0.00000000000E+00  0.45593999997E+02  0.45594000000E+02  0.51100000000E-03 0.  1.
         11   -1    0    0    0    0 -0.00000000000E+00 -0.00000000000E+00 -0.45593999997E+02  0.45594000000E+02  0.51100000000E-03 0. -1.
    9900012    2    1    2    0    0 -0.28243898733E+02 -0.32682812300E+02  0.42117782810E+01  0.47787272912E+02  0.20000008515E+02 0.  0.
         12    1    1    2    0    0  0.28243898733E+02  0.32682812300E+02 -0.42117782810E+01  0.43400727088E+02  0.00000000000E+00 0. -1.
         11    1    3    3    0    0 -0.16891049076E+02 -0.18876312356E+02 -0.47504106590E+01  0.25771866613E+02  0.51100000000E-03 0. -1.
        -11    1    3    3    0    0 -0.91904297680E+00 -0.77436018032E+01  0.52092378839E+01  0.93778552170E+01  0.51100000000E-03 0.  1.
        -12    1    3    3    0    0 -0.10433806681E+02 -0.60628981405E+01  0.37529510562E+01  0.12637551082E+02  0.00000000000E+00 0.  1.
</event>
<event>
 7    1  0.4876728E-009  0.4778726E+02  0.7816164E-02  0.1312668E+00
        -11   -1    0    0    0    0  0.00000000000E+00  0.00000000000E+00  0.45593999997E+02  0.45594000000E+02  0.51100000000E-03 0. -1.
         11   -1    0    0    0    0 -0.00000000000E+00 -0.00000000000E+00 -0.45593999997E+02  0.45594000000E+02  0.51100000000E-03 0.  1.
    9900012    2    1    2    0    0 -0.62515963343E+01 -0.27366468193E+02 -0.33100122027E+02  0.47787261340E+02  0.19999955751E+02 0.  0.
         12    1    1    2    0    0  0.62515963343E+01  0.27366468193E+02  0.33100122027E+02  0.43400738660E+02  0.00000000000E+00 0. -1.
         11    1    3    3    0    0  0.21978665034E+01 -0.63625439853E+01 -0.54067564227E+00  0.67531410131E+01  0.51100000000E-03 0. -1.
        -11    1    3    3    0    0 -0.62400867752E+01 -0.92058079410E+01 -0.23490237843E+02  0.25989937610E+02  0.51100000000E-03 0.  1.
        -12    1    3    3    0    0 -0.22093760625E+01 -0.11798116267E+02 -0.90692085420E+01  0.15044182716E+02  0.00000000000E+00 0.  1.
</event>
<event>
 7    1  0.4876728E-009  0.4778727E+02  0.7816164E-02  0.1312668E+00
        -11   -1    0    0    0    0  0.00000000000E+00  0.00000000000E+00  0.45593999997E+02  0.45594000000E+02  0.51100000000E-03 0. -1.
         11   -1    0    0    0    0 -0.00000000000E+00 -0.00000000000E+00 -0.45593999997E+02  0.45594000000E+02  0.51100000000E-03 0.  1.
    9900012    2    1    2    0    0  0.14873767371E+02 -0.36173209676E+02 -0.18812043733E+02  0.47787273699E+02  0.20000012101E+02 0.  0.
         12    1    1    2    0    0 -0.14873767371E+02  0.36173209676E+02  0.18812043733E+02  0.43400726301E+02  0.00000000000E+00 0. -1.
         11    1    3    3    0    0  0.33328110613E+01 -0.21503988213E+01  0.30641795873E+01  0.50120895309E+01  0.51100000000E-03 0. -1.
        -11    1    3    3    0    0  0.50566646219E+01 -0.24254143696E+02 -0.12432374202E+02  0.27719979655E+02  0.51100000000E-03 0.  1.
        -12    1    3    3    0    0  0.64842916879E+01 -0.97686671594E+01 -0.94438491177E+01  0.15055204513E+02  0.00000000000E+00 0.  1.
</event>
<event>
 7    1  0.4876728E-009  0.4778727E+02  0.7816164E-02  0.1312668E+00
        -11   -1    0    0    0    0  0.00000000000E+00  0.00000000000E+00  0.45593999997E+02  0.45594000000E+02  0.51100000000E-03 0.  1.
         11   -1    0    0    0    0 -0.00000000000E+00 -0.00000000000E+00 -0.45593999997E+02  0.45594000000E+02  0.51100000000E-03 0. -1.
    9900012    2    1    2    0    0  0.22715684943E+01 -0.17585645374E+02  0.39613232907E+02  0.47787272264E+02  0.20000005560E+02 0.  0.
         12    1    1    2    0    0 -0.22715684943E+01  0.17585645374E+02 -0.39613232907E+02  0.43400727736E+02  0.00000000000E+00 0. -1.
         11    1    3    3    0    0  0.78614772657E+01 -0.20025090127E+01  0.11394250698E+02  0.13987201878E+02  0.51100000000E-03 0. -1.
        -11    1    3    3    0    0 -0.66844193729E+01 -0.11979601922E+02  0.26082597309E+02  0.29470225775E+02  0.51100000000E-03 0.  1.
         12    1    3    3    0    0  0.10945106015E+01 -0.36035344399E+01  0.21363849000E+01  0.43298446113E+01  0.00000000000E+00 0. -1.
</event>
<event>
 7    1  0.4876728E-009  0.4778727E+02  0.7816164E-02  0.1312668E+00
        -11   -1    0    0    0    0  0.00000000000E+00  0.00000000000E+00  0.45593999997E+02  0.45594000000E+02  0.51100000000E-03 0. -1.
         11   -1    0    0    0    0 -0.00000000000E+00 -0.00000000000E+00 -0.45593999997E+02  0.45594000000E+02  0.51100000000E-03 0.  1.
    9900012    2    1    2    0    0 -0.30912282848E+02  0.90161160280E+00 -0.30450633652E+02  0.47787271617E+02  0.20000002610E+02 0.  0.
         12    1    1    2    0    0  0.30912282848E+02 -0.90161160280E+00  0.30450633652E+02  0.43400728383E+02  0.00000000000E+00 0. -1.
         11    1    3    3    0    0 -0.10716951114E+02 -0.19861531075E+01 -0.15437996603E+02  0.18897872491E+02  0.51100000000E-03 0. -1.
        -11    1    3    3    0    0 -0.21248403164E+02  0.18817063414E+01 -0.97960973793E+01  0.23473367460E+02  0.51100000000E-03 0.  1.
        -12    1    3    3    0    0  0.10530714293E+01  0.10060583689E+01 -0.52165396698E+01  0.54160316656E+01  0.00000000000E+00 0.  1.
</event>
<event>
 7    1  0.4876728E-009  0.4778727E+02  0.7816164E-02  0.1312668E+00
        -11   -1    0    0    0    0  0.00000000000E+00  0.00000000000E+00  0.45593999997E+02  0.45594000000E+02  0.51100000000E-03 0.  1.
         11   -1    0    0    0    0 -0.00000000000E+00 -0.00000000000E+00 -0.45593999997E+02  0.45594000000E+02  0.51100000000E-03 0. -1.
    9900012    2    1    2    0    0  0.17679850836E+01 -0.23557981303E+02  0.36407678599E+02  0.47787270567E+02  0.19999997824E+02 0.  0.
         12    1    1    2    0    0 -0.17679850836E+01  0.23557981303E+02 -0.36407678599E+02  0.43400729433E+02  0.00000000000E+00 0. -1.
         11    1    3    3    0    0  0.16561617829E+01 -0.75204654566E+01  0.42497666720E+00  0.77123847132E+01  0.51100000000E-03 0. -1.
        -11    1    3    3    0    0 -0.26224342150E+01 -0.20584373937E+01  0.55630221903E+01  0.64854870185E+01  0.51100000000E-03 0.  1.
         12    1    3    3    0    0  0.27342575157E+01 -0.13979078453E+02  0.30419679742E+02  0.33589398835E+02  0.00000000000E+00 0. -1.
</event>
<event>
 7    1  0.4876728E-009  0.4778727E+02  0.7816164E-02  0.1312668E+00
        -11   -1    0    0    0    0  0.00000000000E+00  0.00000000000E+00  0.45593999997E+02  0.45594000000E+02  0.51100000000E-03 0.  1.
         11   -1    0    0    0    0 -0.00000000000E+00 -0.00000000000E+00 -0.45593999997E+02  0.45594000000E+02  0.51100000000E-03 0. -1.
    9900012    2    1    2    0    0 -0.25074633919E+02  0.32400195998E+02  0.14321781733E+02  0.47787269604E+02  0.19999993432E+02 0.  0.
         12    1    1    2    0    0  0.25074633919E+02 -0.32400195998E+02 -0.14321781733E+02  0.43400730396E+02  0.00000000000E+00 0. -1.
         11    1    3    3    0    0 -0.10812219814E+02  0.35439661079E+01  0.13089426171E+00  0.11378968611E+02  0.51100000000E-03 0. -1.
        -11    1    3    3    0    0 -0.14441457621E+02  0.20220411673E+02  0.11330255831E+02  0.27309255645E+02  0.51100000000E-03 0.  1.
         12    1    3    3    0    0  0.17904351549E+00  0.86358182173E+01  0.28606316402E+01  0.90990453479E+01  0.00000000000E+00 0. -1.
</event>
<event>
 7    1  0.4876728E-009  0.4778727E+02  0.7816164E-02  0.1312668E+00
        -11   -1    0    0    0    0  0.00000000000E+00  0.00000000000E+00  0.45593999997E+02  0.45594000000E+02  0.51100000000E-03 0.  1.
         11   -1    0    0    0    0 -0.00000000000E+00 -0.00000000000E+00 -0.45593999997E+02  0.45594000000E+02  0.51100000000E-03 0. -1.
    9900012    2    1    2    0    0  0.30351805767E+02  0.81793339652E+01  0.29924735846E+02  0.47787269212E+02  0.19999991646E+02 0.  0.
         12    1    1    2    0    0 -0.30351805767E+02 -0.81793339652E+01 -0.29924735846E+02  0.43400730788E+02  0.00000000000E+00 0. -1.
         11    1    3    3    0    0  0.17593923437E+02  0.83915310801E+01  0.93082136720E+01  0.21601082792E+02  0.51100000000E-03 0. -1.
        -11    1    3    3    0    0  0.36398427700E+01  0.22795699989E+00  0.15069095210E+02  0.15504130111E+02  0.51100000000E-03 0.  1.
         12    1    3    3    0    0  0.91180395606E+01 -0.44015411479E+00  0.55474269646E+01  0.10682056310E+02  0.00000000000E+00 0. -1.
</event>
<event>
 7    1  0.4876728E-009  0.4778727E+02  0.7816164E-02  0.1312668E+00
        -11   -1    0    0    0    0  0.00000000000E+00  0.00000000000E+00  0.45593999997E+02  0.45594000000E+02  0.51100000000E-03 0.  1.
         11   -1    0    0    0    0 -0.00000000000E+00 -0.00000000000E+00 -0.45593999997E+02  0.45594000000E+02  0.51100000000E-03 0. -1.
    9900012    2    1    2    0    0 -0.12630871065E+02 -0.20714429424E+02  0.35986061737E+02  0.47787272707E+02  0.20000007580E+02 0.  0.
         12    1    1    2    0    0  0.12630871065E+02  0.20714429424E+02 -0.35986061737E+02  0.43400727293E+02  0.00000000000E+00 0. -1.
         11    1    3    3    0    0 -0.13982285198E+01 -0.91231264985E+01  0.17929762980E+02  0.20165884084E+02  0.51100000000E-03 0. -1.
        -11    1    3    3    0    0 -0.62633806081E+01  0.18809377208E+01  0.58759812937E+01  0.87917586282E+01  0.51100000000E-03 0.  1.
        -12    1    3    3    0    0 -0.49692619373E+01 -0.13472240647E+02  0.12180317463E+02  0.18829629995E+02  0.00000000000E+00 0.  1.
</event>
<event>
 7    1  0.4876728E-009  0.4778727E+02  0.7816164E-02  0.1312668E+00
        -11   -1    0    0    0    0  0.00000000000E+00  0.00000000000E+00  0.45593999997E+02  0.45594000000E+02  0.51100000000E-03 0.  1.
         11   -1    0    0    0    0 -0.00000000000E+00 -0.00000000000E+00 -0.45593999997E+02  0.45594000000E+02  0.51100000000E-03 0. -1.
    9900012    2    1    2    0    0  0.28715455432E+02  0.21058661621E+02  0.24810859053E+02  0.47787270319E+02  0.19999996691E+02 0.  0.
         12    1    1    2    0    0 -0.28715455432E+02 -0.21058661621E+02 -0.24810859053E+02  0.43400729681E+02  0.00000000000E+00 0. -1.
         11    1    3    3    0    0  0.47832113145E+01  0.12887062992E+02  0.14547446163E+02  0.20014587010E+02  0.51100000000E-03 0. -1.
        -11    1    3    3    0    0  0.15047691939E+02  0.26289730970E+01  0.51597809983E+01  0.16123519232E+02  0.51100000000E-03 0.  1.
        -12    1    3    3    0    0  0.88845521784E+01  0.55426255320E+01  0.51036318917E+01  0.11649164077E+02  0.00000000000E+00 0.  1.
</event>
<event>
 7    1  0.4876728E-009  0.4778727E+02  0.7816164E-02  0.1312668E+00
        -11   -1    0    0    0    0  0.00000000000E+00  0.00000000000E+00  0.45593999997E+02  0.45594000000E+02  0.51100000000E-03 0. -1.
         11   -1    0    0    0    0 -0.00000000000E+00 -0.00000000000E+00 -0.45593999997E+02  0.45594000000E+02  0.51100000000E-03 0.  1.
    9900012    2    1    2    0    0 -0.89718095137E+01 -0.42008940493E+02 -0.61950387287E+01  0.47787274751E+02  0.20000016900E+02 0.  0.
         12    1    1    2    0    0  0.89718095137E+01  0.42008940493E+02  0.61950387287E+01  0.43400725249E+02  0.00000000000E+00 0. -1.
         11    1    3    3    0    0 -0.34298872679E+01 -0.31481291297E+02 -0.28111524152E+01  0.31792112332E+02  0.51100000000E-03 0.  1.
        -11    1    3    3    0    0 -0.21741433542E+00  0.11755104084E+01  0.17760905044E+01  0.21409323797E+01  0.51100000000E-03 0. -1.
         12    1    3    3    0    0 -0.53245079104E+01 -0.11703159604E+02 -0.51599768180E+01  0.13854230039E+02  0.00000000000E+00 0. -1.
</event>
<event>
 7    1  0.4876728E-009  0.4778727E+02  0.7816164E-02  0.1312668E+00
        -11   -1    0    0    0    0  0.00000000000E+00  0.00000000000E+00  0.45593999997E+02  0.45594000000E+02  0.51100000000E-03 0. -1.
         11   -1    0    0    0    0 -0.00000000000E+00 -0.00000000000E+00 -0.45593999997E+02  0.45594000000E+02  0.51100000000E-03 0.  1.
    9900012    2    1    2    0    0 -0.11472953117E+01  0.19725143624E+02 -0.38642281349E+02  0.47787268608E+02  0.19999988889E+02 0.  0.
         12    1    1    2    0    0  0.11472953117E+01 -0.19725143624E+02  0.38642281349E+02  0.43400731392E+02  0.00000000000E+00 0. -1.
         11    1    3    3    0    0  0.89649877911E+01  0.93602580631E+01 -0.22365403992E+02  0.25849501603E+02  0.51100000000E-03 0. -1.
        -11    1    3    3    0    0 -0.42652089832E+01  0.37999939494E+01 -0.82406165996E+01  0.10026949880E+02  0.51100000000E-03 0.  1.
         12    1    3    3    0    0 -0.58470741195E+01  0.65648916114E+01 -0.80362607574E+01  0.11910817125E+02  0.00000000000E+00 0. -1.
</event>
<event>
 7    1  0.4876728E-009  0.4778727E+02  0.7816164E-02  0.1312668E+00
        -11   -1    0    0    0    0  0.00000000000E+00  0.00000000000E+00  0.45593999997E+02  0.45594000000E+02  0.51100000000E-03 0. -1.
         11   -1    0    0    0    0 -0.00000000000E+00 -0.00000000000E+00 -0.45593999997E+02  0.45594000000E+02  0.51100000000E-03 0.  1.
    9900012    2    1    2    0    0 -0.23681105753E+02 -0.18551879385E+02 -0.31283483068E+02  0.47787270613E+02  0.19999998034E+02 0.  0.
         12    1    1    2    0    0  0.23681105753E+02  0.18551879385E+02  0.31283483068E+02  0.43400729387E+02  0.00000000000E+00 0. -1.
         11    1    3    3    0    0 -0.44447649889E-01  0.55087562147E+00  0.30068554456E+00  0.62916738769E+00  0.51100000000E-03 0. -1.
        -11    1    3    3    0    0 -0.35434737121E+01  0.11993929045E+01 -0.11884923523E+02  0.12459781567E+02  0.51100000000E-03 0.  1.
        -12    1    3    3    0    0 -0.20093184391E+02 -0.20302147911E+02 -0.19699245090E+02  0.34698321658E+02  0.00000000000E+00 0.  1.
</event>
<event>
 7    1  0.4876728E-009  0.4778730E+02  0.7816164E-02  0.1312668E+00
        -11   -1    0    0    0    0  0.00000000000E+00  0.00000000000E+00  0.45593999997E+02  0.45594000000E+02  0.51100000000E-03 0.  1.
         11   -1    0    0    0    0 -0.00000000000E+00 -0.00000000000E+00 -0.45593999997E+02  0.45594000000E+02  0.51100000000E-03 0. -1.
    9900012    2    1    2    0    0  0.30849824798E+02  0.24881898812E+02  0.17686158535E+02  0.47787299749E+02  0.20000130875E+02 0.  0.
         12    1    1    2    0    0 -0.30849824798E+02 -0.24881898812E+02 -0.17686158535E+02  0.43400700251E+02  0.00000000000E+00 0. -1.
         11    1    3    3    0    0  0.15470039995E+02  0.12603578589E+02  0.14415037749E+02  0.24616369437E+02  0.51100000000E-03 0.  1.
        -11    1    3    3    0    0  0.93505261575E+01  0.11071449801E+02  0.68792530239E+01  0.16041616581E+02  0.51100000000E-03 0. -1.
         12    1    3    3    0    0  0.60292586448E+01  0.12068704229E+01 -0.36081322380E+01  0.71293137307E+01  0.00000000000E+00 0. -1.
</event>
<event>
 7    1  0.4876728E-009  0.4778727E+02  0.7816164E-02  0.1312668E+00
        -11   -1    0    0    0    0  0.00000000000E+00  0.00000000000E+00  0.45593999997E+02  0.45594000000E+02  0.51100000000E-03 0. -1.
         11   -1    0    0    0    0 -0.00000000000E+00 -0.00000000000E+00 -0.45593999997E+02  0.45594000000E+02  0.51100000000E-03 0.  1.
    9900012    2    1    2    0    0 -0.22654429018E+02 -0.12445095819E+02 -0.34864308549E+02  0.47787267579E+02  0.19999984200E+02 0.  0.
         12    1    1    2    0    0  0.22654429018E+02  0.12445095819E+02  0.34864308549E+02  0.43400732421E+02  0.00000000000E+00 0. -1.
         11    1    3    3    0    0  0.94762235713E+00 -0.28436459350E+01 -0.10049301109E+02  0.10486789946E+02  0.51100000000E-03 0. -1.
        -11    1    3    3    0    0 -0.20345764438E+02 -0.11927866682E+02 -0.22865355420E+02  0.32848875367E+02  0.51100000000E-03 0.  1.
        -12    1    3    3    0    0 -0.32562869372E+01  0.23264167980E+01 -0.19496520204E+01  0.44516022661E+01  0.00000000000E+00 0.  1.
</event>
<event>
 7    1  0.4876728E-009  0.4778727E+02  0.7816164E-02  0.1312668E+00
        -11   -1    0    0    0    0  0.00000000000E+00  0.00000000000E+00  0.45593999997E+02  0.45594000000E+02  0.51100000000E-03 0. -1.
         11   -1    0    0    0    0 -0.00000000000E+00 -0.00000000000E+00 -0.45593999997E+02  0.45594000000E+02  0.51100000000E-03 0.  1.
    9900012    2    1    2    0    0  0.28581415934E+02 -0.27080263947E+02 -0.18258838495E+02  0.47787271718E+02  0.20000003070E+02 0.  0.
         12    1    1    2    0    0 -0.28581415934E+02  0.27080263947E+02  0.18258838495E+02  0.43400728282E+02  0.00000000000E+00 0. -1.
         11    1    3    3    0    0 -0.30887412631E+00 -0.85905655658E+01 -0.43132494656E+01  0.96175538044E+01  0.51100000000E-03 0. -1.
        -11    1    3    3    0    0  0.20673246941E+02 -0.10539350191E+02 -0.13235568561E+02  0.26714065901E+02  0.51100000000E-03 0.  1.
        -12    1    3    3    0    0  0.82170431192E+01 -0.79503481904E+01 -0.71002046821E+00  0.11455652013E+02  0.00000000000E+00 0.  1.
</event>
<event>
 7    1  0.4876728E-009  0.4778727E+02  0.7816164E-02  0.1312668E+00
        -11   -1    0    0    0    0  0.00000000000E+00  0.00000000000E+00  0.45593999997E+02  0.45594000000E+02  0.51100000000E-03 0.  1.
         11   -1    0    0    0    0 -0.00000000000E+00 -0.00000000000E+00 -0.45593999997E+02  0.45594000000E+02  0.51100000000E-03 0. -1.
    9900012    2    1    2    0    0  0.43087484675E+02  0.52030292530E+01  0.14341048641E+00  0.47787269411E+02  0.19999992554E+02 0.  0.
         12    1    1    2    0    0 -0.43087484675E+02 -0.52030292530E+01 -0.14341048641E+00  0.43400730589E+02  0.00000000000E+00 0. -1.
         11    1    3    3    0    0  0.34841061988E+01  0.86158814719E-01  0.57004128246E+01  0.66814014980E+01  0.51100000000E-03 0.  1.
        -11    1    3    3    0    0  0.20397348611E+01 -0.15190899880E+01  0.90021711629E-01  0.25448490850E+01  0.51100000000E-03 0. -1.
         12    1    3    3    0    0  0.37563643616E+02  0.66359604263E+01 -0.56470240498E+01  0.38561018828E+02  0.00000000000E+00 0. -1.
</event>
<event>
 7    1  0.4876728E-009  0.4778727E+02  0.7816164E-02  0.1312668E+00
        -11   -1    0    0    0    0  0.00000000000E+00  0.00000000000E+00  0.45593999997E+02  0.45594000000E+02  0.51100000000E-03 0.  1.
         11   -1    0    0    0    0 -0.00000000000E+00 -0.00000000000E+00 -0.45593999997E+02  0.45594000000E+02  0.51100000000E-03 0. -1.
    9900012    2    1    2    0    0  0.91842014250E+00 -0.40835306793E+02  0.14671656449E+02  0.47787270981E+02  0.19999999709E+02 0.  0.
         12    1    1    2    0    0 -0.91842014250E+00  0.40835306793E+02 -0.14671656449E+02  0.43400729019E+02  0.00000000000E+00 0. -1.
         11    1    3    3    0    0 -0.30870494583E+01 -0.66361642458E+01  0.26205624699E+01  0.77740528796E+01  0.51100000000E-03 0. -1.
        -11    1    3    3    0    0 -0.14199692153E+01 -0.10288229782E+00 -0.22342636861E+01  0.26493078001E+01  0.51100000000E-03 0.  1.
        -12    1    3    3    0    0  0.54254388161E+01 -0.34096260250E+02  0.14285357665E+02  0.37363910301E+02  0.00000000000E+00 0.  1.
</event>
<event>
 7    1  0.4876728E-009  0.4778727E+02  0.7816164E-02  0.1312668E+00
        -11   -1    0    0    0    0  0.00000000000E+00  0.00000000000E+00  0.45593999997E+02  0.45594000000E+02  0.51100000000E-03 0.  1.
         11   -1    0    0    0    0 -0.00000000000E+00 -0.00000000000E+00 -0.45593999997E+02  0.45594000000E+02  0.51100000000E-03 0. -1.
    9900012    2    1    2    0    0  0.34477932869E+02 -0.17375810911E+02  0.19823637336E+02  0.47787271239E+02  0.20000000889E+02 0.  0.
         12    1    1    2    0    0 -0.34477932869E+02  0.17375810911E+02 -0.19823637336E+02  0.43400728761E+02  0.00000000000E+00 0. -1.
         11    1    3    3    0    0  0.23255990290E+02 -0.23680351893E+01  0.12699278528E+02  0.26603013935E+02  0.51100000000E-03 0. -1.
        -11    1    3    3    0    0  0.10127250365E+02 -0.14930916388E+02  0.80430567680E+01  0.19753081445E+02  0.51100000000E-03 0.  1.
         12    1    3    3    0    0  0.10946922138E+01 -0.76859334048E-01 -0.91869796012E+00  0.14311758599E+01  0.00000000000E+00 0. -1.
</event>
<event>
 7    1  0.4876728E-009  0.4778727E+02  0.7816164E-02  0.1312668E+00
        -11   -1    0    0    0    0  0.00000000000E+00  0.00000000000E+00  0.45593999997E+02  0.45594000000E+02  0.51100000000E-03 0. -1.
         11   -1    0    0    0    0 -0.00000000000E+00 -0.00000000000E+00 -0.45593999997E+02  0.45594000000E+02  0.51100000000E-03 0.  1.
    9900012    2    1    2    0    0 -0.33319994947E+02 -0.27652451331E+02  0.29568830193E+01  0.47787270916E+02  0.19999999413E+02 0.  0.
         12    1    1    2    0    0  0.33319994947E+02  0.27652451331E+02 -0.29568830193E+01  0.43400729084E+02  0.00000000000E+00 0. -1.
         11    1    3    3    0    0 -0.34888162100E+01 -0.10100995480E+02 -0.36302327282E+01  0.11286298692E+02  0.51100000000E-03 0. -1.
        -11    1    3    3    0    0 -0.29024879599E+02 -0.18150956847E+02  0.76083578350E+01  0.35068333000E+02  0.51100000000E-03 0.  1.
         12    1    3    3    0    0 -0.80629913808E+00  0.59950099630E+00 -0.10212420876E+01  0.14326392240E+01  0.00000000000E+00 0. -1.
</event>
<event>
 7    1  0.4876728E-009  0.4778727E+02  0.7816164E-02  0.1312668E+00
        -11   -1    0    0    0    0  0.00000000000E+00  0.00000000000E+00  0.45593999997E+02  0.45594000000E+02  0.51100000000E-03 0.  1.
         11   -1    0    0    0    0 -0.00000000000E+00 -0.00000000000E+00 -0.45593999997E+02  0.45594000000E+02  0.51100000000E-03 0. -1.
    9900012    2    1    2    0    0 -0.24834001480E+02 -0.23559161326E+02  0.26680733795E+02  0.47787271115E+02  0.20000000322E+02 0.  0.
         12    1    1    2    0    0  0.24834001480E+02  0.23559161326E+02 -0.26680733795E+02  0.43400728885E+02  0.00000000000E+00 0. -1.
         11    1    3    3    0    0 -0.26613627751E+02 -0.22273583171E+02  0.19377772222E+02  0.39747902409E+02  0.51100000000E-03 0. -1.
        -11    1    3    3    0    0  0.68046950520E+00 -0.21066636884E+00  0.59467855090E+01  0.59892968884E+01  0.51100000000E-03 0.  1.
         12    1    3    3    0    0  0.10991567654E+01 -0.10749117863E+01  0.13561760638E+01  0.20500718181E+01  0.00000000000E+00 0. -1.
</event>
<event>
 7    1  0.4876728E-009  0.4778727E+02  0.7816164E-02  0.1312668E+00
        -11   -1    0    0    0    0  0.00000000000E+00  0.00000000000E+00  0.45593999997E+02  0.45594000000E+02  0.51100000000E-03 0.  1.
         11   -1    0    0    0    0 -0.00000000000E+00 -0.00000000000E+00 -0.45593999997E+02  0.45594000000E+02  0.51100000000E-03 0. -1.
    9900012    2    1    2    0    0 -0.60409988730E+00  0.25151318653E+02  0.35364809747E+02  0.47787268035E+02  0.19999986278E+02 0.  0.
         12    1    1    2    0    0  0.60409988730E+00 -0.25151318653E+02 -0.35364809747E+02  0.43400731965E+02  0.00000000000E+00 0. -1.
         11    1    3    3    0    0  0.78274828548E+01  0.77208095366E+01  0.14628489451E+02  0.18299538017E+02  0.51100000000E-03 0. -1.
        -11    1    3    3    0    0 -0.72832533327E+01  0.93050989303E+01  0.77681255851E+01  0.14141231226E+02  0.51100000000E-03 0.  1.
        -12    1    3    3    0    0 -0.11483294095E+01  0.81254101862E+01  0.12968194711E+02  0.15346498792E+02  0.00000000000E+00 0.  1.
</event>
<event>
 7    1  0.7987729E-009  0.4778727E+02  0.7816164E-02  0.1312668E+00
        -11   -1    0    0    0    0  0.00000000000E+00  0.00000000000E+00  0.45593999997E+02  0.45594000000E+02  0.51100000000E-03 0. -1.
         11   -1    0    0    0    0 -0.00000000000E+00 -0.00000000000E+00 -0.45593999997E+02  0.45594000000E+02  0.51100000000E-03 0.  1.
    9900012    2    1    2    0    0 -0.25939100029E+02  0.14145930821E+02 -0.31791177873E+02  0.47787271208E+02  0.20000000747E+02 0.  0.
         12    1    1    2    0    0  0.25939100029E+02 -0.14145930821E+02  0.31791177873E+02  0.43400728792E+02  0.00000000000E+00 0. -1.
         11    1    3    3    0    0 -0.11284453869E+02  0.11084734543E+02 -0.77991711549E+01  0.17636249884E+02  0.51100000000E-03 0. -1.
        -11    1    3    3    0    0 -0.16311341062E+02  0.29599842090E+01 -0.21341500549E+02  0.27023711805E+02  0.51100000000E-03 0.  1.
         12    1    3    3    0    0  0.16566949020E+01  0.10121206919E+00 -0.26505061688E+01  0.31273095197E+01  0.00000000000E+00 0. -1.
</event>
<event>
 7    1  0.4876728E-009  0.4778727E+02  0.7816164E-02  0.1312668E+00
        -11   -1    0    0    0    0  0.00000000000E+00  0.00000000000E+00  0.45593999997E+02  0.45594000000E+02  0.51100000000E-03 0.  1.
         11   -1    0    0    0    0 -0.00000000000E+00 -0.00000000000E+00 -0.45593999997E+02  0.45594000000E+02  0.51100000000E-03 0. -1.
    9900012    2    1    2    0    0 -0.28897976268E+02  0.15427329437E+02  0.28469768496E+02  0.47787271387E+02  0.20000001562E+02 0.  0.
         12    1    1    2    0    0  0.28897976268E+02 -0.15427329437E+02 -0.28469768496E+02  0.43400728613E+02  0.00000000000E+00 0. -1.
         11    1    3    3    0    0 -0.75504247180E+01  0.14266956859E+02  0.12942008276E+02  0.20689382541E+02  0.51100000000E-03 0. -1.
        -11    1    3    3    0    0 -0.43734631048E+01  0.21089627226E+01  0.55961399433E+01  0.74088923477E+01  0.51100000000E-03 0.  1.
         12    1    3    3    0    0 -0.16974088445E+02 -0.94859014418E+00  0.99316202764E+01  0.19688996498E+02  0.00000000000E+00 0. -1.
</event>
<event>
 7    1  0.4876728E-009  0.4778727E+02  0.7816164E-02  0.1312668E+00
        -11   -1    0    0    0    0  0.00000000000E+00  0.00000000000E+00  0.45593999997E+02  0.45594000000E+02  0.51100000000E-03 0.  1.
         11   -1    0    0    0    0 -0.00000000000E+00 -0.00000000000E+00 -0.45593999997E+02  0.45594000000E+02  0.51100000000E-03 0. -1.
    9900012    2    1    2    0    0  0.10929670432E+02  0.33790652979E+02  0.24947093362E+02  0.47787269687E+02  0.19999993809E+02 0.  0.
         12    1    1    2    0    0 -0.10929670432E+02 -0.33790652979E+02 -0.24947093362E+02  0.43400730313E+02  0.00000000000E+00 0. -1.
         11    1    3    3    0    0  0.44769557451E-01  0.13432227001E+02  0.54942271073E+01  0.14512520742E+02  0.51100000000E-03 0. -1.
        -11    1    3    3    0    0  0.28850080231E+01  0.12019954440E+02  0.17696911357E+02  0.21586645128E+02  0.51100000000E-03 0.  1.
        -12    1    3    3    0    0  0.79998928517E+01  0.83384715379E+01  0.17559548981E+01  0.11688103817E+02  0.00000000000E+00 0.  1.
</event>
<event>
 7    1  0.4876728E-009  0.4778727E+02  0.7816164E-02  0.1312668E+00
        -11   -1    0    0    0    0  0.00000000000E+00  0.00000000000E+00  0.45593999997E+02  0.45594000000E+02  0.51100000000E-03 0. -1.
         11   -1    0    0    0    0 -0.00000000000E+00 -0.00000000000E+00 -0.45593999997E+02  0.45594000000E+02  0.51100000000E-03 0.  1.
    9900012    2    1    2    0    0  0.28788736712E+02 -0.30340285907E+02 -0.11588737435E+02  0.47787272521E+02  0.20000006731E+02 0.  0.
         12    1    1    2    0    0 -0.28788736712E+02  0.30340285907E+02  0.11588737435E+02  0.43400727479E+02  0.00000000000E+00 0. -1.
         11    1    3    3    0    0  0.14862700932E+02 -0.27021745212E+02 -0.32232467988E+01  0.31007481573E+02  0.51100000000E-03 0. -1.
        -11    1    3    3    0    0  0.11994670137E+02 -0.37369187334E+01 -0.70562509029E+01  0.14409280009E+02  0.51100000000E-03 0.  1.
         12    1    3    3    0    0  0.19313656441E+01  0.41837803862E+00 -0.13092397331E+01  0.23705109393E+01  0.00000000000E+00 0. -1.
</event>
<event>
 7    1  0.4876728E-009  0.4778726E+02  0.7816164E-02  0.1312668E+00
        -11   -1    0    0    0    0  0.00000000000E+00  0.00000000000E+00  0.45593999997E+02  0.45594000000E+02  0.51100000000E-03 0.  1.
         11   -1    0    0    0    0 -0.00000000000E+00 -0.00000000000E+00 -0.45593999997E+02  0.45594000000E+02  0.51100000000E-03 0. -1.
    9900012    2    1    2    0    0 -0.87814556701E+01 -0.39316198059E+02  0.16147645478E+02  0.47787264430E+02  0.19999969843E+02 0.  0.
         12    1    1    2    0    0  0.87814556701E+01  0.39316198059E+02 -0.16147645478E+02  0.43400735570E+02  0.00000000000E+00 0. -1.
         11    1    3    3    0    0 -0.62121700493E+01 -0.66734562061E+01 -0.18262191607E+01  0.92984488567E+01  0.51100000000E-03 0. -1.
        -11    1    3    3    0    0 -0.82684188440E+00 -0.25246151612E+02  0.92030979471E+01  0.26883988745E+02  0.51100000000E-03 0.  1.
         12    1    3    3    0    0 -0.17424437364E+01 -0.73965902406E+01  0.87707666921E+01  0.11604826829E+02  0.00000000000E+00 0. -1.
</event>
<event>
 7    1  0.4876728E-009  0.4778727E+02  0.7816164E-02  0.1312668E+00
        -11   -1    0    0    0    0  0.00000000000E+00  0.00000000000E+00  0.45593999997E+02  0.45594000000E+02  0.51100000000E-03 0.  1.
         11   -1    0    0    0    0 -0.00000000000E+00 -0.00000000000E+00 -0.45593999997E+02  0.45594000000E+02  0.51100000000E-03 0. -1.
    9900012    2    1    2    0    0  0.38491822871E+02 -0.84558549675E+01  0.18179694852E+02  0.47787271711E+02  0.20000003037E+02 0.  0.
         12    1    1    2    0    0 -0.38491822871E+02  0.84558549675E+01 -0.18179694852E+02  0.43400728289E+02  0.00000000000E+00 0. -1.
         11    1    3    3    0    0  0.28506038673E+01 -0.35985321821E+01 -0.21343420918E+01  0.50626863126E+01  0.51100000000E-03 0. -1.
        -11    1    3    3    0    0  0.23203433932E+02 -0.19592191947E+01  0.18673714729E+02  0.29848710326E+02  0.51100000000E-03 0.  1.
        -12    1    3    3    0    0  0.12437785071E+02 -0.28981035907E+01  0.16403222150E+01  0.12875875072E+02  0.00000000000E+00 0.  1.
</event>
<event>
 7    1  0.4876728E-009  0.4778728E+02  0.7816164E-02  0.1312668E+00
        -11   -1    0    0    0    0  0.00000000000E+00  0.00000000000E+00  0.45593999997E+02  0.45594000000E+02  0.51100000000E-03 0.  1.
         11   -1    0    0    0    0 -0.00000000000E+00 -0.00000000000E+00 -0.45593999997E+02  0.45594000000E+02  0.51100000000E-03 0. -1.
    9900012    2    1    2    0    0 -0.23271875561E+02  0.11398150506E+02  0.34815583535E+02  0.47787275536E+02  0.20000020478E+02 0.  0.
         12    1    1    2    0    0  0.23271875561E+02 -0.11398150506E+02 -0.34815583535E+02  0.43400724464E+02  0.00000000000E+00 0. -1.
         11    1    3    3    0    0 -0.19494417634E+02  0.11353879506E+02  0.20952339082E+02  0.30788689676E+02  0.51100000000E-03 0. -1.
        -11    1    3    3    0    0 -0.54819530409E+01 -0.28570593718E+01  0.68951845576E+01  0.92605705948E+01  0.51100000000E-03 0.  1.
         12    1    3    3    0    0  0.17044951137E+01  0.29013303726E+01  0.69680598959E+01  0.77380152647E+01  0.00000000000E+00 0. -1.
</event>
<event>
 7    1  0.4876728E-009  0.4778727E+02  0.7816164E-02  0.1312668E+00
        -11   -1    0    0    0    0  0.00000000000E+00  0.00000000000E+00  0.45593999997E+02  0.45594000000E+02  0.51100000000E-03 0.  1.
         11   -1    0    0    0    0 -0.00000000000E+00 -0.00000000000E+00 -0.45593999997E+02  0.45594000000E+02  0.51100000000E-03 0. -1.
    9900012    2    1    2    0    0 -0.82725420727E+01  0.36692984196E+02  0.21652095102E+02  0.47787271160E+02  0.20000000526E+02 0.  0.
         12    1    1    2    0    0  0.82725420727E+01 -0.36692984196E+02 -0.21652095102E+02  0.43400728840E+02  0.00000000000E+00 0. -1.
         11    1    3    3    0    0 -0.26467363422E+01  0.10079276157E+02  0.16754723558E+02  0.19731137394E+02  0.51100000000E-03 0. -1.
        -11    1    3    3    0    0 -0.17811599792E+01  0.19121385390E+02  0.34301203139E+01  0.19508091545E+02  0.51100000000E-03 0.  1.
         12    1    3    3    0    0 -0.38446457512E+01  0.74923226492E+01  0.14672512304E+01  0.85480422206E+01  0.00000000000E+00 0. -1.
</event>
<event>
 7    1  0.4876728E-009  0.4778728E+02  0.7816164E-02  0.1312668E+00
        -11   -1    0    0    0    0  0.00000000000E+00  0.00000000000E+00  0.45593999997E+02  0.45594000000E+02  0.51100000000E-03 0.  1.
         11   -1    0    0    0    0 -0.00000000000E+00 -0.00000000000E+00 -0.45593999997E+02  0.45594000000E+02  0.51100000000E-03 0. -1.
    9900012    2    1    2    0    0  0.12543121993E+02  0.30442940318E+02  0.28275790745E+02  0.47787275734E+02  0.20000021382E+02 0.  0.
         12    1    1    2    0    0 -0.12543121993E+02 -0.30442940318E+02 -0.28275790745E+02  0.43400724266E+02  0.00000000000E+00 0. -1.
         11    1    3    3    0    0  0.65366325444E+01 -0.88615826402E+00  0.46377909560E+01  0.80636187101E+01  0.51100000000E-03 0. -1.
        -11    1    3    3    0    0  0.36914557192E+01  0.20267278195E+02  0.14538960069E+02  0.25214495254E+02  0.51100000000E-03 0.  1.
         12    1    3    3    0    0  0.23150337289E+01  0.11061820387E+02  0.90990397203E+01  0.14509161770E+02  0.00000000000E+00 0. -1.
</event>
<event>
 7    1  0.4876728E-009  0.4778725E+02  0.7816164E-02  0.1312668E+00
        -11   -1    0    0    0    0  0.00000000000E+00  0.00000000000E+00  0.45593999997E+02  0.45594000000E+02  0.51100000000E-03 0.  1.
         11   -1    0    0    0    0 -0.00000000000E+00 -0.00000000000E+00 -0.45593999997E+02  0.45594000000E+02  0.51100000000E-03 0. -1.
    9900012    2    1    2    0    0  0.10892669779E+02  0.36285071994E+02  0.21174718296E+02  0.47787246557E+02  0.19999888352E+02 0.  0.
         12    1    1    2    0    0 -0.10892669779E+02 -0.36285071994E+02 -0.21174718296E+02  0.43400753443E+02  0.00000000000E+00 0. -1.
         11    1    3    3    0    0  0.10017707134E+02  0.12914729931E+02  0.58028870547E+01  0.17344111503E+02  0.51100000000E-03 0. -1.
        -11    1    3    3    0    0 -0.45179057691E+01  0.15827125097E+02  0.12711246744E+02  0.20796277441E+02  0.51100000000E-03 0.  1.
        -12    1    3    3    0    0  0.53928684141E+01  0.75432169661E+01  0.26605844971E+01  0.96468576125E+01  0.00000000000E+00 0.  1.
</event>
<event>
 7    1  0.4876728E-009  0.4778726E+02  0.7816164E-02  0.1312668E+00
        -11   -1    0    0    0    0  0.00000000000E+00  0.00000000000E+00  0.45593999997E+02  0.45594000000E+02  0.51100000000E-03 0.  1.
         11   -1    0    0    0    0 -0.00000000000E+00 -0.00000000000E+00 -0.45593999997E+02  0.45594000000E+02  0.51100000000E-03 0. -1.
    9900012    2    1    2    0    0 -0.22478830828E+02 -0.42328046481E+01  0.36883734022E+02  0.47787259154E+02  0.19999945789E+02 0.  0.
         12    1    1    2    0    0  0.22478830828E+02  0.42328046481E+01 -0.36883734022E+02  0.43400740846E+02  0.00000000000E+00 0. -1.
         11    1    3    3    0    0 -0.44702318415E+01  0.29157655153E+01  0.97860889047E-01  0.53379994634E+01  0.51100000000E-03 0. -1.
        -11    1    3    3    0    0 -0.18092359959E+02 -0.82928318887E+01  0.33467386544E+02  0.38938034259E+02  0.51100000000E-03 0.  1.
        -12    1    3    3    0    0  0.83760972530E-01  0.11442617252E+01  0.33184865886E+01  0.35112254322E+01  0.00000000000E+00 0.  1.
</event>
<event>
 7    1  0.4876728E-009  0.4778728E+02  0.7816164E-02  0.1312668E+00
        -11   -1    0    0    0    0  0.00000000000E+00  0.00000000000E+00  0.45593999997E+02  0.45594000000E+02  0.51100000000E-03 0.  1.
         11   -1    0    0    0    0 -0.00000000000E+00 -0.00000000000E+00 -0.45593999997E+02  0.45594000000E+02  0.51100000000E-03 0. -1.
    9900012    2    1    2    0    0 -0.27134744657E+02 -0.23197681193E+02  0.24681896593E+02  0.47787276507E+02  0.20000024906E+02 0.  0.
         12    1    1    2    0    0  0.27134744657E+02  0.23197681193E+02 -0.24681896593E+02  0.43400723493E+02  0.00000000000E+00 0. -1.
         11    1    3    3    0    0 -0.17009592879E+02 -0.16718913187E+02  0.22538485694E+02  0.32815113069E+02  0.51100000000E-03 0. -1.
        -11    1    3    3    0    0 -0.15317883955E+01  0.18916664882E+01 -0.90123760648E+00  0.25955745559E+01  0.51100000000E-03 0.  1.
         12    1    3    3    0    0 -0.85933633824E+01 -0.83704344944E+01  0.30446485049E+01  0.12376588882E+02  0.00000000000E+00 0. -1.
</event>
<event>
 7    1  0.4876728E-009  0.4778727E+02  0.7816164E-02  0.1312668E+00
        -11   -1    0    0    0    0  0.00000000000E+00  0.00000000000E+00  0.45593999997E+02  0.45594000000E+02  0.51100000000E-03 0.  1.
         11   -1    0    0    0    0 -0.00000000000E+00 -0.00000000000E+00 -0.45593999997E+02  0.45594000000E+02  0.51100000000E-03 0. -1.
    9900012    2    1    2    0    0  0.26018056587E+02 -0.32107537933E+02 -0.13258577493E+02  0.47787272612E+02  0.20000007145E+02 0.  0.
         12    1    1    2    0    0 -0.26018056587E+02  0.32107537933E+02  0.13258577493E+02  0.43400727388E+02  0.00000000000E+00 0. -1.
         11    1    3    3    0    0  0.12941345326E+02 -0.54627557141E+01 -0.32369217630E+01  0.14415192735E+02  0.51100000000E-03 0. -1.
        -11    1    3    3    0    0  0.71431526639E+01 -0.19145336070E+02 -0.13766605889E+01  0.20480813408E+02  0.51100000000E-03 0.  1.
         12    1    3    3    0    0  0.59335585976E+01 -0.74994461489E+01 -0.86449951409E+01  0.12891266468E+02  0.00000000000E+00 0. -1.
</event>
<event>
 7    1  0.4876728E-009  0.4778725E+02  0.7816164E-02  0.1312668E+00
        -11   -1    0    0    0    0  0.00000000000E+00  0.00000000000E+00  0.45593999997E+02  0.45594000000E+02  0.51100000000E-03 0.  1.
         11   -1    0    0    0    0 -0.00000000000E+00 -0.00000000000E+00 -0.45593999997E+02  0.45594000000E+02  0.51100000000E-03 0. -1.
    9900012    2    1    2    0    0 -0.27779975670E+02 -0.10453459275E+02  0.31664221519E+02  0.47787253653E+02  0.19999920707E+02 0.  0.
         12    1    1    2    0    0  0.27779975670E+02  0.10453459275E+02 -0.31664221519E+02  0.43400746347E+02  0.00000000000E+00 0. -1.
         11    1    3    3    0    0 -0.99791139265E+01 -0.64128641918E+01  0.95826568205E+01  0.15249093544E+02  0.51100000000E-03 0. -1.
        -11    1    3    3    0    0 -0.18046832700E+02 -0.30080507247E+01  0.24099791539E+02  0.30257833567E+02  0.51100000000E-03 0.  1.
        -12    1    3    3    0    0  0.24597095669E+00 -0.10325443584E+01 -0.20182268405E+01  0.22803265431E+01  0.00000000000E+00 0.  1.
</event>
<event>
 7    1  0.4876728E-009  0.4778727E+02  0.7816164E-02  0.1312668E+00
        -11   -1    0    0    0    0  0.00000000000E+00  0.00000000000E+00  0.45593999997E+02  0.45594000000E+02  0.51100000000E-03 0.  1.
         11   -1    0    0    0    0 -0.00000000000E+00 -0.00000000000E+00 -0.45593999997E+02  0.45594000000E+02  0.51100000000E-03 0. -1.
    9900012    2    1    2    0    0  0.28802806235E+02  0.25073868446E+02  0.20623355240E+02  0.47787270660E+02  0.19999998247E+02 0.  0.
         12    1    1    2    0    0 -0.28802806235E+02 -0.25073868446E+02 -0.20623355240E+02  0.43400729340E+02  0.00000000000E+00 0. -1.
         11    1    3    3    0    0  0.29069912627E+02  0.16617148421E+02  0.16569638686E+02  0.37359635547E+02  0.51100000000E-03 0. -1.
        -11    1    3    3    0    0  0.32241156232E+00  0.37125142170E+01  0.42380583407E+01  0.56433899199E+01  0.51100000000E-03 0.  1.
         12    1    3    3    0    0 -0.58951795397E+00  0.47442058082E+01 -0.18434178689E+00  0.47842451926E+01  0.00000000000E+00 0. -1.
</event>
<event>
 7    1  0.4876728E-009  0.4778727E+02  0.7816164E-02  0.1312668E+00
        -11   -1    0    0    0    0  0.00000000000E+00  0.00000000000E+00  0.45593999997E+02  0.45594000000E+02  0.51100000000E-03 0.  1.
         11   -1    0    0    0    0 -0.00000000000E+00 -0.00000000000E+00 -0.45593999997E+02  0.45594000000E+02  0.51100000000E-03 0. -1.
    9900012    2    1    2    0    0  0.41556816531E+01  0.38804662032E+02  0.18988198734E+02  0.47787272165E+02  0.20000005109E+02 0.  0.
         12    1    1    2    0    0 -0.41556816531E+01 -0.38804662032E+02 -0.18988198734E+02  0.43400727835E+02  0.00000000000E+00 0. -1.
         11    1    3    3    0    0  0.58532092831E+01  0.26032631690E+02  0.31378369202E+01  0.26866410114E+02  0.51100000000E-03 0.  1.
        -11    1    3    3    0    0 -0.29126911431E+01  0.11606445552E+02  0.13715267050E+02  0.18201700431E+02  0.51100000000E-03 0. -1.
         12    1    3    3    0    0  0.12151635132E+01  0.11655847897E+01  0.21350947638E+01  0.27191616201E+01  0.00000000000E+00 0. -1.
</event>
<event>
 7    1  0.4876728E-009  0.4778727E+02  0.7816164E-02  0.1312668E+00
        -11   -1    0    0    0    0  0.00000000000E+00  0.00000000000E+00  0.45593999997E+02  0.45594000000E+02  0.51100000000E-03 0. -1.
         11   -1    0    0    0    0 -0.00000000000E+00 -0.00000000000E+00 -0.45593999997E+02  0.45594000000E+02  0.51100000000E-03 0.  1.
    9900012    2    1    2    0    0  0.30433056785E+02 -0.24004193867E+02 -0.19525652004E+02  0.47787270114E+02  0.19999995757E+02 0.  0.
         12    1    1    2    0    0 -0.30433056785E+02  0.24004193867E+02  0.19525652004E+02  0.43400729886E+02  0.00000000000E+00 0. -1.
         11    1    3    3    0    0  0.14094244188E+02 -0.87710358715E+01  0.62431593535E+00  0.16612301470E+02  0.51100000000E-03 0. -1.
        -11    1    3    3    0    0  0.14248015420E+02 -0.15520143161E+02 -0.15782314477E+02  0.26324175917E+02  0.51100000000E-03 0.  1.
        -12    1    3    3    0    0  0.20907971764E+01  0.28698516577E+00 -0.43676534619E+01  0.48507927272E+01  0.00000000000E+00 0.  1.
</event>
<event>
 7    1  0.4876728E-009  0.4778727E+02  0.7816164E-02  0.1312668E+00
        -11   -1    0    0    0    0  0.00000000000E+00  0.00000000000E+00  0.45593999997E+02  0.45594000000E+02  0.51100000000E-03 0.  1.
         11   -1    0    0    0    0 -0.00000000000E+00 -0.00000000000E+00 -0.45593999997E+02  0.45594000000E+02  0.51100000000E-03 0. -1.
    9900012    2    1    2    0    0  0.55655573760E+01  0.24839463891E+02  0.35151804238E+02  0.47787265715E+02  0.19999975700E+02 0.  0.
         12    1    1    2    0    0 -0.55655573760E+01 -0.24839463891E+02 -0.35151804238E+02  0.43400734285E+02  0.00000000000E+00 0. -1.
         11    1    3    3    0    0 -0.44085046199E+00  0.14103852131E+02  0.90387108013E+01  0.16757424840E+02  0.51100000000E-03 0. -1.
        -11    1    3    3    0    0  0.77489110355E+01  0.22238518571E+01  0.13150113277E+02  0.15424545983E+02  0.51100000000E-03 0.  1.
         12    1    3    3    0    0 -0.17425031976E+01  0.85117599028E+01  0.12962980160E+02  0.15605294892E+02  0.00000000000E+00 0. -1.
</event>
<event>
 7    1  0.4876728E-009  0.4778728E+02  0.7816164E-02  0.1312668E+00
        -11   -1    0    0    0    0  0.00000000000E+00  0.00000000000E+00  0.45593999997E+02  0.45594000000E+02  0.51100000000E-03 0.  1.
         11   -1    0    0    0    0 -0.00000000000E+00 -0.00000000000E+00 -0.45593999997E+02  0.45594000000E+02  0.51100000000E-03 0. -1.
    9900012    2    1    2    0    0  0.98729815913E+01  0.39687957893E+02  0.14526286387E+02  0.47787276926E+02  0.20000026814E+02 0.  0.
         12    1    1    2    0    0 -0.98729815913E+01 -0.39687957893E+02 -0.14526286387E+02  0.43400723074E+02  0.00000000000E+00 0. -1.
         11    1    3    3    0    0  0.17097472359E+01  0.21090762156E+01 -0.16170626340E+01  0.31601154911E+01  0.51100000000E-03 0. -1.
        -11    1    3    3    0    0  0.52387217603E+01  0.25754967444E+02  0.18604503600E+02  0.32200778068E+02  0.51100000000E-03 0.  1.
        -12    1    3    3    0    0  0.29245125951E+01  0.11823914233E+02 -0.24611545790E+01  0.12426383367E+02  0.00000000000E+00 0.  1.
</event>
<event>
 7    1  0.4876728E-009  0.4778727E+02  0.7816164E-02  0.1312668E+00
        -11   -1    0    0    0    0  0.00000000000E+00  0.00000000000E+00  0.45593999997E+02  0.45594000000E+02  0.51100000000E-03 0. -1.
         11   -1    0    0    0    0 -0.00000000000E+00 -0.00000000000E+00 -0.45593999997E+02  0.45594000000E+02  0.51100000000E-03 0.  1.
    9900012    2    1    2    0    0  0.39486435045E+02 -0.65600307619E+01  0.16775299142E+02  0.47787271695E+02  0.20000002964E+02 0.  0.
         12    1    1    2    0    0 -0.39486435045E+02  0.65600307619E+01 -0.16775299142E+02  0.43400728305E+02  0.00000000000E+00 0. -1.
         11    1    3    3    0    0  0.27485607480E+01  0.46185712104E+01  0.41422164774E+00  0.53904884793E+01  0.51100000000E-03 0. -1.
        -11    1    3    3    0    0  0.23222639195E+02 -0.88165737912E+01  0.70689935310E+01  0.25826219514E+02  0.51100000000E-03 0.  1.
         12    1    3    3    0    0  0.13515235102E+02 -0.23620281811E+01  0.92920839637E+01  0.16570563701E+02  0.00000000000E+00 0. -1.
</event>
<event>
 7    1  0.4876728E-009  0.4778727E+02  0.7816164E-02  0.1312668E+00
        -11   -1    0    0    0    0  0.00000000000E+00  0.00000000000E+00  0.45593999997E+02  0.45594000000E+02  0.51100000000E-03 0.  1.
         11   -1    0    0    0    0 -0.00000000000E+00 -0.00000000000E+00 -0.45593999997E+02  0.45594000000E+02  0.51100000000E-03 0. -1.
    9900012    2    1    2    0    0 -0.13750643284E+02 -0.28432000403E+02  0.29768512399E+02  0.47787272263E+02  0.20000005556E+02 0.  0.
         12    1    1    2    0    0  0.13750643284E+02  0.28432000403E+02 -0.29768512399E+02  0.43400727737E+02  0.00000000000E+00 0. -1.
         11    1    3    3    0    0  0.29452497616E+01 -0.80302680662E+00  0.14152102198E+01  0.33648430035E+01  0.51100000000E-03 0. -1.
        -11    1    3    3    0    0 -0.12816689794E+02 -0.16632537234E+02  0.24210546637E+02  0.32047767486E+02  0.51100000000E-03 0.  1.
        -12    1    3    3    0    0 -0.38792032520E+01 -0.10996436362E+02  0.41427555427E+01  0.12374661774E+02  0.00000000000E+00 0.  1.
</event>
<event>
 7    1  0.4876728E-009  0.4778727E+02  0.7816164E-02  0.1312668E+00
        -11   -1    0    0    0    0  0.00000000000E+00  0.00000000000E+00  0.45593999997E+02  0.45594000000E+02  0.51100000000E-03 0.  1.
         11   -1    0    0    0    0 -0.00000000000E+00 -0.00000000000E+00 -0.45593999997E+02  0.45594000000E+02  0.51100000000E-03 0. -1.
    9900012    2    1    2    0    0  0.15855653674E+02 -0.26302828360E+02  0.30665666695E+02  0.47787266746E+02  0.19999980400E+02 0.  0.
         12    1    1    2    0    0 -0.15855653674E+02  0.26302828360E+02 -0.30665666695E+02  0.43400733254E+02  0.00000000000E+00 0. -1.
         11    1    3    3    0    0 -0.37647265577E+01 -0.40073373480E+01  0.39961296439E+01  0.67971296197E+01  0.51100000000E-03 0. -1.
        -11    1    3    3    0    0  0.16959991758E+02 -0.16659072641E+02  0.16074047806E+02  0.28697404671E+02  0.51100000000E-03 0.  1.
         12    1    3    3    0    0  0.26603884733E+01 -0.56364183709E+01  0.10595489244E+02  0.12292732455E+02  0.00000000000E+00 0. -1.
</event>
<event>
 7    1  0.4876728E-009  0.4778727E+02  0.7816164E-02  0.1312668E+00
        -11   -1    0    0    0    0  0.00000000000E+00  0.00000000000E+00  0.45593999997E+02  0.45594000000E+02  0.51100000000E-03 0.  1.
         11   -1    0    0    0    0 -0.00000000000E+00 -0.00000000000E+00 -0.45593999997E+02  0.45594000000E+02  0.51100000000E-03 0. -1.
    9900012    2    1    2    0    0  0.20055826115E+02  0.38401326262E+02  0.25933305611E+01  0.47787269785E+02  0.19999994256E+02 0.  0.
         12    1    1    2    0    0 -0.20055826115E+02 -0.38401326262E+02 -0.25933305611E+01  0.43400730215E+02  0.00000000000E+00 0. -1.
         11    1    3    3    0    0  0.81407375116E+01  0.10755316382E+02  0.78151838780E+01  0.15589276347E+02  0.51100000000E-03 0. -1.
        -11    1    3    3    0    0  0.92448854999E+01  0.26559468427E+02 -0.67698816419E+01  0.28925846033E+02  0.51100000000E-03 0.  1.
        -12    1    3    3    0    0  0.26702031032E+01  0.10865414525E+01  0.15480283250E+01  0.32721474043E+01  0.00000000000E+00 0.  1.
</event>
<event>
 7    1  0.4876728E-009  0.4778727E+02  0.7816164E-02  0.1312668E+00
        -11   -1    0    0    0    0  0.00000000000E+00  0.00000000000E+00  0.45593999997E+02  0.45594000000E+02  0.51100000000E-03 0.  1.
         11   -1    0    0    0    0 -0.00000000000E+00 -0.00000000000E+00 -0.45593999997E+02  0.45594000000E+02  0.51100000000E-03 0. -1.
    9900012    2    1    2    0    0  0.15837431150E+02  0.33761478104E+02  0.22202740856E+02  0.47787270390E+02  0.19999997017E+02 0.  0.
         12    1    1    2    0    0 -0.15837431150E+02 -0.33761478104E+02 -0.22202740856E+02  0.43400729610E+02  0.00000000000E+00 0. -1.
         11    1    3    3    0    0 -0.19147034556E+01  0.14445022198E+01  0.58868546832E+01  0.63567078199E+01  0.51100000000E-03 0. -1.
        -11    1    3    3    0    0  0.60654215475E+01  0.12521177024E+02  0.11246774621E+02  0.17890197099E+02  0.51100000000E-03 0.  1.
         12    1    3    3    0    0  0.11686713058E+02  0.19795798860E+02  0.50691115515E+01  0.23540365471E+02  0.00000000000E+00 0. -1.
</event>
<event>
 7    1  0.4876728E-009  0.4778727E+02  0.7816164E-02  0.1312668E+00
        -11   -1    0    0    0    0  0.00000000000E+00  0.00000000000E+00  0.45593999997E+02  0.45594000000E+02  0.51100000000E-03 0.  1.
         11   -1    0    0    0    0 -0.00000000000E+00 -0.00000000000E+00 -0.45593999997E+02  0.45594000000E+02  0.51100000000E-03 0. -1.
    9900012    2    1    2    0    0  0.17455709485E+02  0.21310263511E+02  0.33537948243E+02  0.47787273084E+02  0.20000009297E+02 0.  0.
         12    1    1    2    0    0 -0.17455709485E+02 -0.21310263511E+02 -0.33537948243E+02  0.43400726916E+02  0.00000000000E+00 0. -1.
         11    1    3    3    0    0  0.22329500738E+01  0.37348748104E+01  0.15642248038E+02  0.16236233548E+02  0.51100000000E-03 0. -1.
        -11    1    3    3    0    0  0.50808204488E+00  0.41472351295E+01  0.86144591756E+01  0.95742683132E+01  0.51100000000E-03 0.  1.
         12    1    3    3    0    0  0.14714677367E+02  0.13428153571E+02  0.92812410294E+01  0.21976771223E+02  0.00000000000E+00 0. -1.
</event>
<event>
 7    1  0.4876728E-009  0.4778727E+02  0.7816164E-02  0.1312668E+00
        -11   -1    0    0    0    0  0.00000000000E+00  0.00000000000E+00  0.45593999997E+02  0.45594000000E+02  0.51100000000E-03 0. -1.
         11   -1    0    0    0    0 -0.00000000000E+00 -0.00000000000E+00 -0.45593999997E+02  0.45594000000E+02  0.51100000000E-03 0.  1.
    9900012    2    1    2    0    0  0.31468659108E+02  0.27884661048E+02 -0.10760710008E+02  0.47787266047E+02  0.19999977212E+02 0.  0.
         12    1    1    2    0    0 -0.31468659108E+02 -0.27884661048E+02  0.10760710008E+02  0.43400733953E+02  0.00000000000E+00 0. -1.
         11    1    3    3    0    0  0.25587412498E+02  0.25312662824E+02 -0.87367243209E+01  0.37037507066E+02  0.51100000000E-03 0.  1.
        -11    1    3    3    0    0  0.35832378397E+01 -0.15408234518E+01  0.21514514515E+01  0.44544891890E+01  0.51100000000E-03 0. -1.
         12    1    3    3    0    0  0.22980087706E+01  0.41128216759E+01 -0.41754371381E+01  0.62952697911E+01  0.00000000000E+00 0. -1.
</event>
<event>
 7    1  0.4876728E-009  0.4778727E+02  0.7816164E-02  0.1312668E+00
        -11   -1    0    0    0    0  0.00000000000E+00  0.00000000000E+00  0.45593999997E+02  0.45594000000E+02  0.51100000000E-03 0. -1.
         11   -1    0    0    0    0 -0.00000000000E+00 -0.00000000000E+00 -0.45593999997E+02  0.45594000000E+02  0.51100000000E-03 0.  1.
    9900012    2    1    2    0    0  0.16769578212E+02  0.24800778413E+02  0.31421745249E+02  0.47787269156E+02  0.19999991391E+02 0.  0.
         12    1    1    2    0    0 -0.16769578212E+02 -0.24800778413E+02 -0.31421745249E+02  0.43400730844E+02  0.00000000000E+00 0. -1.
         11    1    3    3    0    0 -0.30778393483E+01  0.51787428037E+01  0.56407358505E+01  0.82529009007E+01  0.51100000000E-03 0. -1.
        -11    1    3    3    0    0  0.16291864236E+02  0.86921927986E+01  0.15332493595E+02  0.24001341963E+02  0.51100000000E-03 0.  1.
         12    1    3    3    0    0  0.35555533244E+01  0.10929842811E+02  0.10448515804E+02  0.15533026293E+02  0.00000000000E+00 0. -1.
</event>
<event>
 7    1  0.4876728E-009  0.4778727E+02  0.7816164E-02  0.1312668E+00
        -11   -1    0    0    0    0  0.00000000000E+00  0.00000000000E+00  0.45593999997E+02  0.45594000000E+02  0.51100000000E-03 0.  1.
         11   -1    0    0    0    0 -0.00000000000E+00 -0.00000000000E+00 -0.45593999997E+02  0.45594000000E+02  0.51100000000E-03 0. -1.
    9900012    2    1    2    0    0 -0.21106092287E+02  0.37569537296E+02  0.51658601971E+01  0.47787269870E+02  0.19999994644E+02 0.  0.
         12    1    1    2    0    0  0.21106092287E+02 -0.37569537296E+02 -0.51658601971E+01  0.43400730130E+02  0.00000000000E+00 0. -1.
         11    1    3    3    0    0 -0.23019982055E+01  0.77417386703E+01 -0.23249956225E+01  0.84047200002E+01  0.51100000000E-03 0.  1.
        -11    1    3    3    0    0 -0.11592814090E+02  0.26492647213E+02  0.69335141817E+00  0.28926362220E+02  0.51100000000E-03 0. -1.
        -12    1    3    3    0    0 -0.72112799913E+01  0.33351514134E+01  0.67975044014E+01  0.10456187649E+02  0.00000000000E+00 0.  1.
</event>
<event>
 7    1  0.4876728E-009  0.4778726E+02  0.7816164E-02  0.1312668E+00
        -11   -1    0    0    0    0  0.00000000000E+00  0.00000000000E+00  0.45593999997E+02  0.45594000000E+02  0.51100000000E-03 0. -1.
         11   -1    0    0    0    0 -0.00000000000E+00 -0.00000000000E+00 -0.45593999997E+02  0.45594000000E+02  0.51100000000E-03 0.  1.
    9900012    2    1    2    0    0  0.13969321083E+02 -0.31662959843E+02 -0.26190435570E+02  0.47787264143E+02  0.19999968536E+02 0.  0.
         12    1    1    2    0    0 -0.13969321083E+02  0.31662959843E+02  0.26190435570E+02  0.43400735857E+02  0.00000000000E+00 0. -1.
         11    1    3    3    0    0  0.19956588883E+01 -0.14127739340E+02 -0.18978332930E+02  0.23743478985E+02  0.51100000000E-03 0. -1.
        -11    1    3    3    0    0  0.92487857266E+01 -0.73852542748E+01 -0.11008212599E+01  0.11886707947E+02  0.51100000000E-03 0.  1.
        -12    1    3    3    0    0  0.27248764685E+01 -0.10149966228E+02 -0.61112813799E+01  0.12157077211E+02  0.00000000000E+00 0.  1.
</event>
<event>
 7    1  0.4876728E-009  0.4778728E+02  0.7816164E-02  0.1312668E+00
        -11   -1    0    0    0    0  0.00000000000E+00  0.00000000000E+00  0.45593999997E+02  0.45594000000E+02  0.51100000000E-03 0.  1.
         11   -1    0    0    0    0 -0.00000000000E+00 -0.00000000000E+00 -0.45593999997E+02  0.45594000000E+02  0.51100000000E-03 0. -1.
    9900012    2    1    2    0    0 -0.11252134461E+02 -0.30224881662E+02  0.29042529897E+02  0.47787279450E+02  0.20000038325E+02 0.  0.
         12    1    1    2    0    0  0.11252134461E+02  0.30224881662E+02 -0.29042529897E+02  0.43400720550E+02  0.00000000000E+00 0. -1.
         11    1    3    3    0    0  0.49256229921E+00  0.11860844292E+01 -0.16271141841E+01  0.20729000750E+01  0.51100000000E-03 0. -1.
        -11    1    3    3    0    0 -0.67835604281E+01 -0.14123455490E+02  0.17037234023E+02  0.23146404267E+02  0.51100000000E-03 0.  1.
        -12    1    3    3    0    0 -0.49611363317E+01 -0.17287510602E+02  0.13632410058E+02  0.22567975109E+02  0.00000000000E+00 0.  1.
</event>
<event>
 7    1  0.4876728E-009  0.4778727E+02  0.7816164E-02  0.1312668E+00
        -11   -1    0    0    0    0  0.00000000000E+00  0.00000000000E+00  0.45593999997E+02  0.45594000000E+02  0.51100000000E-03 0.  1.
         11   -1    0    0    0    0 -0.00000000000E+00 -0.00000000000E+00 -0.45593999997E+02  0.45594000000E+02  0.51100000000E-03 0. -1.
    9900012    2    1    2    0    0 -0.29455606196E+02 -0.30071225060E+02  0.10569396130E+02  0.47787269043E+02  0.19999990876E+02 0.  0.
         12    1    1    2    0    0  0.29455606196E+02  0.30071225060E+02 -0.10569396130E+02  0.43400730957E+02  0.00000000000E+00 0. -1.
         11    1    3    3    0    0 -0.12599217777E+02 -0.33143705383E+01 -0.10788518752E+01  0.13072461983E+02  0.51100000000E-03 0. -1.
        -11    1    3    3    0    0 -0.80450521161E+01 -0.15790673964E+02  0.24101809660E+01  0.17885111695E+02  0.51100000000E-03 0.  1.
         12    1    3    3    0    0 -0.88113363034E+01 -0.10966180558E+02  0.92380670394E+01  0.16829695366E+02  0.00000000000E+00 0. -1.
</event>
<event>
 7    1  0.4876728E-009  0.4778727E+02  0.7816164E-02  0.1312668E+00
        -11   -1    0    0    0    0  0.00000000000E+00  0.00000000000E+00  0.45593999997E+02  0.45594000000E+02  0.51100000000E-03 0.  1.
         11   -1    0    0    0    0 -0.00000000000E+00 -0.00000000000E+00 -0.45593999997E+02  0.45594000000E+02  0.51100000000E-03 0. -1.
    9900012    2    1    2    0    0 -0.40974255939E+02 -0.86183098367E+01  0.11421849004E+02  0.47787267876E+02  0.19999985556E+02 0.  0.
         12    1    1    2    0    0  0.40974255939E+02  0.86183098367E+01 -0.11421849004E+02  0.43400732124E+02  0.00000000000E+00 0. -1.
         11    1    3    3    0    0 -0.70272624446E+01 -0.64885330923E+01  0.16024730392E+01  0.96980100669E+01  0.51100000000E-03 0. -1.
        -11    1    3    3    0    0 -0.15317602744E+02  0.44887618757E+01 -0.11779942553E+00  0.15962199534E+02  0.51100000000E-03 0.  1.
        -12    1    3    3    0    0 -0.18629390751E+02 -0.66185386201E+01  0.99371753901E+01  0.22127058276E+02  0.00000000000E+00 0.  1.
</event>
<event>
 7    1  0.4876728E-009  0.4778727E+02  0.7816164E-02  0.1312668E+00
        -11   -1    0    0    0    0  0.00000000000E+00  0.00000000000E+00  0.45593999997E+02  0.45594000000E+02  0.51100000000E-03 0. -1.
         11   -1    0    0    0    0 -0.00000000000E+00 -0.00000000000E+00 -0.45593999997E+02  0.45594000000E+02  0.51100000000E-03 0.  1.
    9900012    2    1    2    0    0  0.24256960201E+01  0.43294886466E+02  0.18144084690E+01  0.47787271050E+02  0.20000000025E+02 0.  0.
         12    1    1    2    0    0 -0.24256960201E+01 -0.43294886466E+02 -0.18144084690E+01  0.43400728950E+02  0.00000000000E+00 0. -1.
         11    1    3    3    0    0  0.17084552472E+00  0.59266155343E+01  0.62241068672E+01  0.85961308995E+01  0.51100000000E-03 0. -1.
        -11    1    3    3    0    0  0.37326783457E+01  0.37216851422E+02 -0.38403218236E+01  0.37600199326E+02  0.51100000000E-03 0.  1.
         12    1    3    3    0    0 -0.14778278503E+01  0.15141950998E+00 -0.56937657460E+00  0.15909408245E+01  0.00000000000E+00 0. -1.
</event>
<event>
 7    1  0.4876728E-009  0.4778727E+02  0.7816164E-02  0.1312668E+00
        -11   -1    0    0    0    0  0.00000000000E+00  0.00000000000E+00  0.45593999997E+02  0.45594000000E+02  0.51100000000E-03 0.  1.
         11   -1    0    0    0    0 -0.00000000000E+00 -0.00000000000E+00 -0.45593999997E+02  0.45594000000E+02  0.51100000000E-03 0. -1.
    9900012    2    1    2    0    0 -0.22506789784E+01  0.30086047749E+02  0.31199160721E+02  0.47787268961E+02  0.19999990499E+02 0.  0.
         12    1    1    2    0    0  0.22506789784E+01 -0.30086047749E+02 -0.31199160721E+02  0.43400731039E+02  0.00000000000E+00 0. -1.
         11    1    3    3    0    0 -0.15060502077E+01  0.52032985832E+01  0.15517448607E+02  0.16435745037E+02  0.51100000000E-03 0. -1.
        -11    1    3    3    0    0  0.24348430733E+01  0.74983886402E+01  0.10111556282E+02  0.12821773033E+02  0.51100000000E-03 0.  1.
         12    1    3    3    0    0 -0.31794718440E+01  0.17384360526E+02  0.55701558319E+01  0.18529750891E+02  0.00000000000E+00 0. -1.
</event>
<event>
 7    1  0.4876728E-009  0.4778727E+02  0.7816164E-02  0.1312668E+00
        -11   -1    0    0    0    0  0.00000000000E+00  0.00000000000E+00  0.45593999997E+02  0.45594000000E+02  0.51100000000E-03 0. -1.
         11   -1    0    0    0    0 -0.00000000000E+00 -0.00000000000E+00 -0.45593999997E+02  0.45594000000E+02  0.51100000000E-03 0.  1.
    9900012    2    1    2    0    0 -0.34384736977E+02  0.26479825513E+02 -0.36318600688E+00  0.47787271893E+02  0.20000003868E+02 0.  0.
         12    1    1    2    0    0  0.34384736977E+02 -0.26479825513E+02  0.36318600688E+00  0.43400728107E+02  0.00000000000E+00 0. -1.
         11    1    3    3    0    0 -0.43866805894E+01  0.30265183548E+00  0.87569747760E+00  0.44834597200E+01  0.51100000000E-03 0. -1.
        -11    1    3    3    0    0 -0.28689061954E+02  0.24019808004E+02  0.38593421021E+01  0.37615262515E+02  0.51100000000E-03 0.  1.
        -12    1    3    3    0    0 -0.13089944330E+01  0.21573656737E+01 -0.50982255866E+01  0.56885496576E+01  0.00000000000E+00 0.  1.
</event>
<event>
 7    1  0.4876728E-009  0.4778727E+02  0.7816164E-02  0.1312668E+00
        -11   -1    0    0    0    0  0.00000000000E+00  0.00000000000E+00  0.45593999997E+02  0.45594000000E+02  0.51100000000E-03 0. -1.
         11   -1    0    0    0    0 -0.00000000000E+00 -0.00000000000E+00 -0.45593999997E+02  0.45594000000E+02  0.51100000000E-03 0.  1.
    9900012    2    1    2    0    0  0.23488510720E+01 -0.38127394156E+02 -0.20601171132E+02  0.47787267996E+02  0.19999986100E+02 0.  0.
         12    1    1    2    0    0 -0.23488510720E+01  0.38127394156E+02  0.20601171132E+02  0.43400732004E+02  0.00000000000E+00 0. -1.
         11    1    3    3    0    0  0.17852117378E+01 -0.17500890472E+01  0.10377114010E+01  0.27067762808E+01  0.51100000000E-03 0. -1.
        -11    1    3    3    0    0 -0.56035632496E+01 -0.30560011954E+02 -0.16953762444E+02  0.35394128228E+02  0.51100000000E-03 0.  1.
        -12    1    3    3    0    0  0.61672025837E+01 -0.58172931552E+01 -0.46851200880E+01  0.96863634870E+01  0.00000000000E+00 0.  1.
</event>
<event>
 7    1  0.4876728E-009  0.4778727E+02  0.7816164E-02  0.1312668E+00
        -11   -1    0    0    0    0  0.00000000000E+00  0.00000000000E+00  0.45593999997E+02  0.45594000000E+02  0.51100000000E-03 0. -1.
         11   -1    0    0    0    0 -0.00000000000E+00 -0.00000000000E+00 -0.45593999997E+02  0.45594000000E+02  0.51100000000E-03 0.  1.
    9900012    2    1    2    0    0  0.16575231519E+02  0.30360765185E+02 -0.26212765330E+02  0.47787269260E+02  0.19999991864E+02 0.  0.
         12    1    1    2    0    0 -0.16575231519E+02 -0.30360765185E+02  0.26212765330E+02  0.43400730740E+02  0.00000000000E+00 0. -1.
         11    1    3    3    0    0  0.11456873724E+02  0.33951505482E+01 -0.88186839932E+01  0.14851134314E+02  0.51100000000E-03 0. -1.
        -11    1    3    3    0    0  0.66234986869E+00  0.16818205128E+02 -0.11487063476E+02  0.20377520916E+02  0.51100000000E-03 0.  1.
         12    1    3    3    0    0  0.44560079262E+01  0.10147409508E+02 -0.59070178604E+01  0.12558614030E+02  0.00000000000E+00 0. -1.
</event>
<event>
 7    1  0.4876728E-009  0.4778728E+02  0.7816164E-02  0.1312668E+00
        -11   -1    0    0    0    0  0.00000000000E+00  0.00000000000E+00  0.45593999997E+02  0.45594000000E+02  0.51100000000E-03 0.  1.
         11   -1    0    0    0    0 -0.00000000000E+00 -0.00000000000E+00 -0.45593999997E+02  0.45594000000E+02  0.51100000000E-03 0. -1.
    9900012    2    1    2    0    0  0.21290103546E+02  0.33515805312E+02  0.17522696925E+02  0.47787278552E+02  0.20000034229E+02 0.  0.
         12    1    1    2    0    0 -0.21290103546E+02 -0.33515805312E+02 -0.17522696925E+02  0.43400721448E+02  0.00000000000E+00 0. -1.
         11    1    3    3    0    0  0.15438199624E+02  0.12823822992E+02  0.29658681163E+01  0.20287553271E+02  0.51100000000E-03 0. -1.
        -11    1    3    3    0    0  0.77258129714E+01  0.11451129232E+02  0.98154850612E+01  0.16945804614E+02  0.51100000000E-03 0.  1.
         12    1    3    3    0    0 -0.18739090500E+01  0.92408530875E+01  0.47413437479E+01  0.10553920667E+02  0.00000000000E+00 0. -1.
</event>
<event>
 7    1  0.4876728E-009  0.4778727E+02  0.7816164E-02  0.1312668E+00
        -11   -1    0    0    0    0  0.00000000000E+00  0.00000000000E+00  0.45593999997E+02  0.45594000000E+02  0.51100000000E-03 0. -1.
         11   -1    0    0    0    0 -0.00000000000E+00 -0.00000000000E+00 -0.45593999997E+02  0.45594000000E+02  0.51100000000E-03 0.  1.
    9900012    2    1    2    0    0 -0.31970746365E+02  0.24762447108E+02 -0.15758036712E+02  0.47787272691E+02  0.20000007507E+02 0.  0.
         12    1    1    2    0    0  0.31970746365E+02 -0.24762447108E+02  0.15758036712E+02  0.43400727309E+02  0.00000000000E+00 0. -1.
         11    1    3    3    0    0 -0.82690938481E+01  0.16029399524E+02 -0.37334468650E+01  0.18418962727E+02  0.51100000000E-03 0. -1.
        -11    1    3    3    0    0 -0.23048054120E+02  0.84966596616E+01 -0.13286722454E+02  0.27927459926E+02  0.51100000000E-03 0.  1.
        -12    1    3    3    0    0 -0.65359839733E+00  0.23638792287E+00  0.12621326068E+01  0.14408500381E+01  0.00000000000E+00 0.  1.
</event>
<event>
 7    1  0.4876728E-009  0.4778726E+02  0.7816164E-02  0.1312668E+00
        -11   -1    0    0    0    0  0.00000000000E+00  0.00000000000E+00  0.45593999997E+02  0.45594000000E+02  0.51100000000E-03 0. -1.
         11   -1    0    0    0    0 -0.00000000000E+00 -0.00000000000E+00 -0.45593999997E+02  0.45594000000E+02  0.51100000000E-03 0.  1.
    9900012    2    1    2    0    0  0.38011276235E+02  0.15359668788E+02 -0.14242447858E+02  0.47787264208E+02  0.19999968830E+02 0.  0.
         12    1    1    2    0    0 -0.38011276235E+02 -0.15359668788E+02  0.14242447858E+02  0.43400735792E+02  0.00000000000E+00 0. -1.
         11    1    3    3    0    0  0.16531857198E+01 -0.70486368984E+00 -0.13693294912E+01  0.22594068607E+01  0.51100000000E-03 0. -1.
        -11    1    3    3    0    0  0.15708316708E+02  0.69768092220E+01 -0.15071540517E+02  0.22859974071E+02  0.51100000000E-03 0.  1.
        -12    1    3    3    0    0  0.20649773807E+02  0.90877232563E+01  0.21984221498E+01  0.22667883276E+02  0.00000000000E+00 0.  1.
</event>
<event>
 7    1  0.4876728E-009  0.4778728E+02  0.7816164E-02  0.1312668E+00
        -11   -1    0    0    0    0  0.00000000000E+00  0.00000000000E+00  0.45593999997E+02  0.45594000000E+02  0.51100000000E-03 0. -1.
         11   -1    0    0    0    0 -0.00000000000E+00 -0.00000000000E+00 -0.45593999997E+02  0.45594000000E+02  0.51100000000E-03 0.  1.
    9900012    2    1    2    0    0 -0.27185853211E+02  0.31727186381E+02 -0.11744663696E+02  0.47787284616E+02  0.20000061879E+02 0.  0.
         12    1    1    2    0    0  0.27185853211E+02 -0.31727186381E+02  0.11744663696E+02  0.43400715384E+02  0.00000000000E+00 0. -1.
         11    1    3    3    0    0 -0.15051158647E+02  0.21162283476E+02 -0.76017107427E+00  0.25979943781E+02  0.51100000000E-03 0. -1.
        -11    1    3    3    0    0 -0.52202217677E+01  0.10312769308E+02 -0.47599631399E+01  0.12500447010E+02  0.51100000000E-03 0.  1.
         12    1    3    3    0    0 -0.69144727967E+01  0.25213359747E+00 -0.62245294818E+01  0.93068938253E+01  0.00000000000E+00 0. -1.
</event>
<event>
 7    1  0.4876728E-009  0.4778727E+02  0.7816164E-02  0.1312668E+00
        -11   -1    0    0    0    0  0.00000000000E+00  0.00000000000E+00  0.45593999997E+02  0.45594000000E+02  0.51100000000E-03 0.  1.
         11   -1    0    0    0    0 -0.00000000000E+00 -0.00000000000E+00 -0.45593999997E+02  0.45594000000E+02  0.51100000000E-03 0. -1.
    9900012    2    1    2    0    0 -0.35330566333E+02 -0.61885251800E+01  0.24435144585E+02  0.47787273598E+02  0.20000011643E+02 0.  0.
         12    1    1    2    0    0  0.35330566333E+02  0.61885251800E+01 -0.24435144585E+02  0.43400726402E+02  0.00000000000E+00 0. -1.
         11    1    3    3    0    0 -0.28474990972E+02  0.11840086138E+01  0.11843810244E+02  0.30862644550E+02  0.51100000000E-03 0. -1.
        -11    1    3    3    0    0 -0.46519352714E+01 -0.44818442536E+01  0.11393857336E+02  0.13097611039E+02  0.51100000000E-03 0.  1.
         12    1    3    3    0    0 -0.22036400900E+01 -0.28906895403E+01  0.11974770043E+01  0.38270180089E+01  0.00000000000E+00 0. -1.
</event>
<event>
 7    1  0.4876728E-009  0.4778727E+02  0.7816164E-02  0.1312668E+00
        -11   -1    0    0    0    0  0.00000000000E+00  0.00000000000E+00  0.45593999997E+02  0.45594000000E+02  0.51100000000E-03 0.  1.
         11   -1    0    0    0    0 -0.00000000000E+00 -0.00000000000E+00 -0.45593999997E+02  0.45594000000E+02  0.51100000000E-03 0. -1.
    9900012    2    1    2    0    0  0.22586295241E+02  0.28651553341E+02  0.23506826700E+02  0.47787272552E+02  0.20000006872E+02 0.  0.
         12    1    1    2    0    0 -0.22586295241E+02 -0.28651553341E+02 -0.23506826700E+02  0.43400727448E+02  0.00000000000E+00 0. -1.
         11    1    3    3    0    0  0.10567357589E+02  0.83267623500E+00  0.76153850791E+01  0.13052068276E+02  0.51100000000E-03 0. -1.
        -11    1    3    3    0    0  0.87384996843E+01  0.23034690946E+02  0.15060389070E+02  0.28875139530E+02  0.51100000000E-03 0.  1.
        -12    1    3    3    0    0  0.32804379682E+01  0.47841861599E+01  0.83105255059E+00  0.58600647452E+01  0.00000000000E+00 0.  1.
</event>
<event>
 7    1  0.4876728E-009  0.4778727E+02  0.7816164E-02  0.1312668E+00
        -11   -1    0    0    0    0  0.00000000000E+00  0.00000000000E+00  0.45593999997E+02  0.45594000000E+02  0.51100000000E-03 0.  1.
         11   -1    0    0    0    0 -0.00000000000E+00 -0.00000000000E+00 -0.45593999997E+02  0.45594000000E+02  0.51100000000E-03 0. -1.
    9900012    2    1    2    0    0  0.43283628467E+02  0.11410099032E+01 -0.29746577281E+01  0.47787274367E+02  0.20000015151E+02 0.  0.
         12    1    1    2    0    0 -0.43283628467E+02 -0.11410099032E+01  0.29746577281E+01  0.43400725633E+02  0.00000000000E+00 0. -1.
         11    1    3    3    0    0  0.16646275819E+02 -0.35338700077E+01 -0.29331015875E+01  0.17268173646E+02  0.51100000000E-03 0. -1.
        -11    1    3    3    0    0  0.21067679524E+02  0.71046679935E+01 -0.48666774496E+01  0.22759788608E+02  0.51100000000E-03 0.  1.
        -12    1    3    3    0    0  0.55696731235E+01 -0.24297880826E+01  0.48251213090E+01  0.77593121136E+01  0.00000000000E+00 0.  1.
</event>
<event>
 7    1  0.4876728E-009  0.4778727E+02  0.7816164E-02  0.1312668E+00
        -11   -1    0    0    0    0  0.00000000000E+00  0.00000000000E+00  0.45593999997E+02  0.45594000000E+02  0.51100000000E-03 0.  1.
         11   -1    0    0    0    0 -0.00000000000E+00 -0.00000000000E+00 -0.45593999997E+02  0.45594000000E+02  0.51100000000E-03 0. -1.
    9900012    2    1    2    0    0 -0.84579097360E+01  0.90651635791E+01  0.41592183681E+02  0.47787272228E+02  0.20000005396E+02 0.  0.
         12    1    1    2    0    0  0.84579097360E+01 -0.90651635791E+01 -0.41592183681E+02  0.43400727772E+02  0.00000000000E+00 0. -1.
         11    1    3    3    0    0  0.47488105500E+01 -0.16784477269E+01  0.54025560276E+01  0.73862033755E+01  0.51100000000E-03 0. -1.
        -11    1    3    3    0    0 -0.75857641707E+01  0.76044319502E+01  0.16522348486E+02  0.19706831382E+02  0.51100000000E-03 0.  1.
        -12    1    3    3    0    0 -0.56209561154E+01  0.31391793558E+01  0.19667279167E+02  0.20694237471E+02  0.00000000000E+00 0.  1.
</event>
<event>
 7    1  0.4876728E-009  0.4778731E+02  0.7816164E-02  0.1312668E+00
        -11   -1    0    0    0    0  0.00000000000E+00  0.00000000000E+00  0.45593999997E+02  0.45594000000E+02  0.51100000000E-03 0. -1.
         11   -1    0    0    0    0 -0.00000000000E+00 -0.00000000000E+00 -0.45593999997E+02  0.45594000000E+02  0.51100000000E-03 0.  1.
    9900012    2    1    2    0    0 -0.18271899128E+02  0.39351448136E+02 -0.11051522273E+01  0.47787307268E+02  0.20000165158E+02 0.  0.
         12    1    1    2    0    0  0.18271899128E+02 -0.39351448136E+02  0.11051522273E+01  0.43400692732E+02  0.00000000000E+00 0. -1.
         11    1    3    3    0    0 -0.13682057094E+01  0.54356493357E+01  0.20815058328E+01  0.59792087567E+01  0.51100000000E-03 0. -1.
        -11    1    3    3    0    0 -0.10974111458E+02  0.86390478654E+01  0.45967817281E+01  0.14703559869E+02  0.51100000000E-03 0.  1.
        -12    1    3    3    0    0 -0.59295819608E+01  0.25276750935E+02 -0.77834397882E+01  0.27104538642E+02  0.00000000000E+00 0.  1.
</event>
<event>
 7    1  0.4876728E-009  0.4778727E+02  0.7816164E-02  0.1312668E+00
        -11   -1    0    0    0    0  0.00000000000E+00  0.00000000000E+00  0.45593999997E+02  0.45594000000E+02  0.51100000000E-03 0. -1.
         11   -1    0    0    0    0 -0.00000000000E+00 -0.00000000000E+00 -0.45593999997E+02  0.45594000000E+02  0.51100000000E-03 0.  1.
    9900012    2    1    2    0    0 -0.68672133150E+01 -0.77476602064E+01 -0.42147821969E+02  0.47787265511E+02  0.19999974772E+02 0.  0.
         12    1    1    2    0    0  0.68672133150E+01  0.77476602064E+01  0.42147821969E+02  0.43400734489E+02  0.00000000000E+00 0. -1.
         11    1    3    3    0    0  0.87143619113E+00 -0.10814269803E+01  0.17959287499E+01  0.22702963870E+01  0.51100000000E-03 0. -1.
        -11    1    3    3    0    0 -0.60776323243E+01 -0.13605594338E+01 -0.25766181920E+02  0.26508203780E+02  0.51100000000E-03 0.  1.
         12    1    3    3    0    0 -0.16610171818E+01 -0.53056737923E+01 -0.18177568799E+02  0.19008765344E+02  0.00000000000E+00 0. -1.
</event>
<event>
 7    1  0.4876728E-009  0.4778727E+02  0.7816164E-02  0.1312668E+00
        -11   -1    0    0    0    0  0.00000000000E+00  0.00000000000E+00  0.45593999997E+02  0.45594000000E+02  0.51100000000E-03 0. -1.
         11   -1    0    0    0    0 -0.00000000000E+00 -0.00000000000E+00 -0.45593999997E+02  0.45594000000E+02  0.51100000000E-03 0.  1.
    9900012    2    1    2    0    0 -0.74332358285E+00 -0.15846580256E+02 -0.40397487705E+02  0.47787266727E+02  0.19999980316E+02 0.  0.
         12    1    1    2    0    0  0.74332358285E+00  0.15846580256E+02  0.40397487705E+02  0.43400733273E+02  0.00000000000E+00 0. -1.
         11    1    3    3    0    0 -0.41692643528E+01 -0.14399226091E+02 -0.16646811547E+02  0.22401714493E+02  0.51100000000E-03 0. -1.
        -11    1    3    3    0    0  0.23238563464E+01  0.28498284798E+01 -0.16338774355E+02  0.16747458863E+02  0.51100000000E-03 0.  1.
         12    1    3    3    0    0  0.11020844235E+01 -0.42971826446E+01 -0.74119018025E+01  0.86380933711E+01  0.00000000000E+00 0. -1.
</event>
<event>
 7    1  0.4876728E-009  0.4778728E+02  0.7816164E-02  0.1312668E+00
        -11   -1    0    0    0    0  0.00000000000E+00  0.00000000000E+00  0.45593999997E+02  0.45594000000E+02  0.51100000000E-03 0.  1.
         11   -1    0    0    0    0 -0.00000000000E+00 -0.00000000000E+00 -0.45593999997E+02  0.45594000000E+02  0.51100000000E-03 0. -1.
    9900012    2    1    2    0    0  0.20647237408E+02  0.19842297202E+02  0.32612846273E+02  0.47787275204E+02  0.20000018964E+02 0.  0.
         12    1    1    2    0    0 -0.20647237408E+02 -0.19842297202E+02 -0.32612846273E+02  0.43400724796E+02  0.00000000000E+00 0. -1.
         11    1    3    3    0    0  0.79523520805E+01  0.54733139989E+01  0.13278918997E+01  0.97447609977E+01  0.51100000000E-03 0. -1.
        -11    1    3    3    0    0  0.21458957998E+01  0.99593916639E+01  0.15618813744E+02  0.18647833497E+02  0.51100000000E-03 0.  1.
         12    1    3    3    0    0  0.10548989528E+02  0.44095915391E+01  0.15666140629E+02  0.19394680709E+02  0.00000000000E+00 0. -1.
</event>
<event>
 7    1  0.4876728E-009  0.4778727E+02  0.7816164E-02  0.1312668E+00
        -11   -1    0    0    0    0  0.00000000000E+00  0.00000000000E+00  0.45593999997E+02  0.45594000000E+02  0.51100000000E-03 0.  1.
         11   -1    0    0    0    0 -0.00000000000E+00 -0.00000000000E+00 -0.45593999997E+02  0.45594000000E+02  0.51100000000E-03 0. -1.
    9900012    2    1    2    0    0 -0.56109727069E+00 -0.42962873182E+02 -0.61237107407E+01  0.47787272639E+02  0.20000007270E+02 0.  0.
         12    1    1    2    0    0  0.56109727069E+00  0.42962873182E+02  0.61237107407E+01  0.43400727361E+02  0.00000000000E+00 0. -1.
         11    1    3    3    0    0  0.13825388623E+01 -0.23075696513E+01 -0.54451002062E+01  0.60733358147E+01  0.51100000000E-03 0. -1.
        -11    1    3    3    0    0  0.24568847292E+01 -0.80599713585E+01  0.21661918031E+01  0.87001039109E+01  0.51100000000E-03 0.  1.
         12    1    3    3    0    0 -0.44005208623E+01 -0.32595332173E+02 -0.28448023376E+01  0.33013832913E+02  0.00000000000E+00 0. -1.
</event>
<event>
 7    1  0.4876728E-009  0.4778727E+02  0.7816164E-02  0.1312668E+00
        -11   -1    0    0    0    0  0.00000000000E+00  0.00000000000E+00  0.45593999997E+02  0.45594000000E+02  0.51100000000E-03 0. -1.
         11   -1    0    0    0    0 -0.00000000000E+00 -0.00000000000E+00 -0.45593999997E+02  0.45594000000E+02  0.51100000000E-03 0.  1.
    9900012    2    1    2    0    0 -0.28568548345E+02 -0.27239335043E+02  0.18041067494E+02  0.47787269080E+02  0.19999991042E+02 0.  0.
         12    1    1    2    0    0  0.28568548345E+02  0.27239335043E+02 -0.18041067494E+02  0.43400730920E+02  0.00000000000E+00 0. -1.
         11    1    3    3    0    0 -0.50514126959E+01 -0.14252076158E+01 -0.17515261100E+01  0.55331574122E+01  0.51100000000E-03 0. -1.
        -11    1    3    3    0    0 -0.94143710814E+01 -0.19515192883E+02  0.13788735389E+02  0.25682724933E+02  0.51100000000E-03 0.  1.
         12    1    3    3    0    0 -0.14102764567E+02 -0.62989345442E+01  0.60038582151E+01  0.16571386734E+02  0.00000000000E+00 0. -1.
</event>
<event>
 7    1  0.4876728E-009  0.4778727E+02  0.7816164E-02  0.1312668E+00
        -11   -1    0    0    0    0  0.00000000000E+00  0.00000000000E+00  0.45593999997E+02  0.45594000000E+02  0.51100000000E-03 0.  1.
         11   -1    0    0    0    0 -0.00000000000E+00 -0.00000000000E+00 -0.45593999997E+02  0.45594000000E+02  0.51100000000E-03 0. -1.
    9900012    2    1    2    0    0 -0.11584167385E+02  0.63798639335E+01  0.41336759627E+02  0.47787270809E+02  0.19999998928E+02 0.  0.
         12    1    1    2    0    0  0.11584167385E+02 -0.63798639335E+01 -0.41336759627E+02  0.43400729191E+02  0.00000000000E+00 0. -1.
         11    1    3    3    0    0 -0.23320591882E+01  0.69318392057E+01  0.35479575436E+01  0.81287697608E+01  0.51100000000E-03 0. -1.
        -11    1    3    3    0    0 -0.96003096003E+01  0.16294916648E+01  0.28776442884E+02  0.30379349118E+02  0.51100000000E-03 0.  1.
        -12    1    3    3    0    0  0.34820140350E+00 -0.21814669370E+01  0.90123591996E+01  0.92791519309E+01  0.00000000000E+00 0.  1.
</event>
<event>
 7    1  0.4876728E-009  0.4778727E+02  0.7816164E-02  0.1312668E+00
        -11   -1    0    0    0    0  0.00000000000E+00  0.00000000000E+00  0.45593999997E+02  0.45594000000E+02  0.51100000000E-03 0. -1.
         11   -1    0    0    0    0 -0.00000000000E+00 -0.00000000000E+00 -0.45593999997E+02  0.45594000000E+02  0.51100000000E-03 0.  1.
    9900012    2    1    2    0    0 -0.23421615642E+02 -0.22532613855E+02 -0.28763382804E+02  0.47787274698E+02  0.20000016657E+02 0.  0.
         12    1    1    2    0    0  0.23421615642E+02  0.22532613855E+02  0.28763382804E+02  0.43400725302E+02  0.00000000000E+00 0. -1.
         11    1    3    3    0    0 -0.11917237046E+02 -0.19295826387E+02 -0.25474947881E+02  0.34107512729E+02  0.51100000000E-03 0.  1.
        -11    1    3    3    0    0 -0.66682792108E+01  0.83805681119E+00 -0.41475290594E+00  0.67335211507E+01  0.51100000000E-03 0. -1.
        -12    1    3    3    0    0 -0.48360993853E+01 -0.40748442790E+01 -0.28736820174E+01  0.69462408178E+01  0.00000000000E+00 0.  1.
</event>
<event>
 7    1  0.4876728E-009  0.4778727E+02  0.7816164E-02  0.1312668E+00
        -11   -1    0    0    0    0  0.00000000000E+00  0.00000000000E+00  0.45593999997E+02  0.45594000000E+02  0.51100000000E-03 0.  1.
         11   -1    0    0    0    0 -0.00000000000E+00 -0.00000000000E+00 -0.45593999997E+02  0.45594000000E+02  0.51100000000E-03 0. -1.
    9900012    2    1    2    0    0  0.34369518939E+01 -0.36439707352E+01  0.43110692191E+02  0.47787274865E+02  0.20000017421E+02 0.  0.
         12    1    1    2    0    0 -0.34369518939E+01  0.36439707352E+01 -0.43110692191E+02  0.43400725135E+02  0.00000000000E+00 0. -1.
         11    1    3    3    0    0  0.12867461723E+01  0.22659895669E+01 -0.78604768929E+00  0.27218184473E+01  0.51100000000E-03 0. -1.
        -11    1    3    3    0    0  0.27432089328E+01 -0.72549636637E+01  0.26638142113E+02  0.27744374358E+02  0.51100000000E-03 0.  1.
         12    1    3    3    0    0 -0.59300321123E+00  0.13450033616E+01  0.17258597767E+02  0.17321082060E+02  0.00000000000E+00 0. -1.
</event>
<event>
 7    1  0.4876728E-009  0.4778728E+02  0.7816164E-02  0.1312668E+00
        -11   -1    0    0    0    0  0.00000000000E+00  0.00000000000E+00  0.45593999997E+02  0.45594000000E+02  0.51100000000E-03 0.  1.
         11   -1    0    0    0    0 -0.00000000000E+00 -0.00000000000E+00 -0.45593999997E+02  0.45594000000E+02  0.51100000000E-03 0. -1.
    9900012    2    1    2    0    0 -0.84546160049E+01 -0.39493386498E+01  0.42385668473E+02  0.47787277662E+02  0.20000030174E+02 0.  0.
         12    1    1    2    0    0  0.84546160049E+01  0.39493386498E+01 -0.42385668473E+02  0.43400722338E+02  0.00000000000E+00 0. -1.
         11    1    3    3    0    0  0.17692574379E+01 -0.97740768563E+01  0.21275683134E+02  0.23480152115E+02  0.51100000000E-03 0. -1.
        -11    1    3    3    0    0 -0.37770738269E+01  0.36335222845E+01  0.92035238775E+01  0.10591204979E+02  0.51100000000E-03 0.  1.
         12    1    3    3    0    0 -0.64467996159E+01  0.21912159220E+01  0.11906461461E+02  0.13715920568E+02  0.00000000000E+00 0. -1.
</event>
<event>
 7    1  0.4876728E-009  0.4778727E+02  0.7816164E-02  0.1312668E+00
        -11   -1    0    0    0    0  0.00000000000E+00  0.00000000000E+00  0.45593999997E+02  0.45594000000E+02  0.51100000000E-03 0.  1.
         11   -1    0    0    0    0 -0.00000000000E+00 -0.00000000000E+00 -0.45593999997E+02  0.45594000000E+02  0.51100000000E-03 0. -1.
    9900012    2    1    2    0    0  0.12805294424E+02 -0.40485484588E+01  0.41270533771E+02  0.47787271116E+02  0.20000000325E+02 0.  0.
         12    1    1    2    0    0 -0.12805294424E+02  0.40485484588E+01 -0.41270533771E+02  0.43400728884E+02  0.00000000000E+00 0. -1.
         11    1    3    3    0    0  0.33198779599E+00 -0.65157268353E+01  0.13292407495E+02  0.14807194513E+02  0.51100000000E-03 0. -1.
        -11    1    3    3    0    0  0.13462869020E+02 -0.68920297405E+00  0.25510341102E+02  0.28853099424E+02  0.51100000000E-03 0.  1.
        -12    1    3    3    0    0 -0.98956239201E+00  0.31563813505E+01  0.24677851747E+01  0.41269771778E+01  0.00000000000E+00 0.  1.
</event>
<event>
 7    1  0.4876728E-009  0.4778727E+02  0.7816164E-02  0.1312668E+00
        -11   -1    0    0    0    0  0.00000000000E+00  0.00000000000E+00  0.45593999997E+02  0.45594000000E+02  0.51100000000E-03 0.  1.
         11   -1    0    0    0    0 -0.00000000000E+00 -0.00000000000E+00 -0.45593999997E+02  0.45594000000E+02  0.51100000000E-03 0. -1.
    9900012    2    1    2    0    0 -0.20475349988E+02  0.15426635643E+02  0.35020025131E+02  0.47787271843E+02  0.20000003641E+02 0.  0.
         12    1    1    2    0    0  0.20475349988E+02 -0.15426635643E+02 -0.35020025131E+02  0.43400728157E+02  0.00000000000E+00 0. -1.
         11    1    3    3    0    0 -0.71819824325E+01  0.66971991527E+01  0.32874983379E+01  0.10355722753E+02  0.51100000000E-03 0. -1.
        -11    1    3    3    0    0 -0.15439427811E+02  0.79464748825E+01  0.26049110369E+02  0.31306206182E+02  0.51100000000E-03 0.  1.
        -12    1    3    3    0    0  0.21460602558E+01  0.78296160800E+00  0.56834164237E+01  0.61253429084E+01  0.00000000000E+00 0.  1.
</event>
<event>
 7    1  0.4876728E-009  0.4778727E+02  0.7816164E-02  0.1312668E+00
        -11   -1    0    0    0    0  0.00000000000E+00  0.00000000000E+00  0.45593999997E+02  0.45594000000E+02  0.51100000000E-03 0.  1.
         11   -1    0    0    0    0 -0.00000000000E+00 -0.00000000000E+00 -0.45593999997E+02  0.45594000000E+02  0.51100000000E-03 0. -1.
    9900012    2    1    2    0    0 -0.18931492306E+02 -0.25207479371E+02  0.29829596525E+02  0.47787271366E+02  0.20000001464E+02 0.  0.
         12    1    1    2    0    0  0.18931492306E+02  0.25207479371E+02 -0.29829596525E+02  0.43400728634E+02  0.00000000000E+00 0. -1.
         11    1    3    3    0    0 -0.12220476636E+01 -0.12639938328E+02  0.11391190761E+02  0.17059327908E+02  0.51100000000E-03 0. -1.
        -11    1    3    3    0    0 -0.23235853854E+00 -0.42938728071E+01  0.71331027099E+01  0.83290148701E+01  0.51100000000E-03 0.  1.
         12    1    3    3    0    0 -0.17477086104E+02 -0.82736682352E+01  0.11305303054E+02  0.22398928588E+02  0.00000000000E+00 0. -1.
</event>
<event>
 7    1  0.4876728E-009  0.4778727E+02  0.7816164E-02  0.1312668E+00
        -11   -1    0    0    0    0  0.00000000000E+00  0.00000000000E+00  0.45593999997E+02  0.45594000000E+02  0.51100000000E-03 0. -1.
         11   -1    0    0    0    0 -0.00000000000E+00 -0.00000000000E+00 -0.45593999997E+02  0.45594000000E+02  0.51100000000E-03 0.  1.
    9900012    2    1    2    0    0  0.11668772191E+02  0.24690694958E+02 -0.33731775186E+02  0.47787270523E+02  0.19999997622E+02 0.  0.
         12    1    1    2    0    0 -0.11668772191E+02 -0.24690694958E+02  0.33731775186E+02  0.43400729477E+02  0.00000000000E+00 0. -1.
         11    1    3    3    0    0  0.11228415481E+02  0.62742108041E+01 -0.83868419761E+01  0.15355199576E+02  0.51100000000E-03 0. -1.
        -11    1    3    3    0    0 -0.17439831394E+01  0.13915452906E+02 -0.22925058430E+02  0.26874516015E+02  0.51100000000E-03 0.  1.
         12    1    3    3    0    0  0.21843398500E+01  0.45010312479E+01 -0.24198747799E+01  0.55575549322E+01  0.00000000000E+00 0. -1.
</event>
<event>
 7    1  0.4876728E-009  0.4778727E+02  0.7816164E-02  0.1312668E+00
        -11   -1    0    0    0    0  0.00000000000E+00  0.00000000000E+00  0.45593999997E+02  0.45594000000E+02  0.51100000000E-03 0. -1.
         11   -1    0    0    0    0 -0.00000000000E+00 -0.00000000000E+00 -0.45593999997E+02  0.45594000000E+02  0.51100000000E-03 0.  1.
    9900012    2    1    2    0    0 -0.59819465649E+01 -0.15673926752E+02 -0.40027090173E+02  0.47787267147E+02  0.19999982228E+02 0.  0.
         12    1    1    2    0    0  0.59819465649E+01  0.15673926752E+02  0.40027090173E+02  0.43400732853E+02  0.00000000000E+00 0. -1.
         11    1    3    3    0    0 -0.10816066816E+01 -0.38538724785E+01 -0.18019485350E+01  0.43896725251E+01  0.51100000000E-03 0. -1.
        -11    1    3    3    0    0 -0.26360757838E+01 -0.15566366021E+02 -0.26066398024E+02  0.30474870842E+02  0.51100000000E-03 0.  1.
        -12    1    3    3    0    0 -0.22642640995E+01  0.37463117472E+01 -0.12158743614E+02  0.12922723780E+02  0.00000000000E+00 0.  1.
</event>
<event>
 7    1  0.4876728E-009  0.4778727E+02  0.7816164E-02  0.1312668E+00
        -11   -1    0    0    0    0  0.00000000000E+00  0.00000000000E+00  0.45593999997E+02  0.45594000000E+02  0.51100000000E-03 0.  1.
         11   -1    0    0    0    0 -0.00000000000E+00 -0.00000000000E+00 -0.45593999997E+02  0.45594000000E+02  0.51100000000E-03 0. -1.
    9900012    2    1    2    0    0  0.18044897311E+02  0.25987333839E+02  0.29709651973E+02  0.47787271212E+02  0.20000000762E+02 0.  0.
         12    1    1    2    0    0 -0.18044897311E+02 -0.25987333839E+02 -0.29709651973E+02  0.43400728788E+02  0.00000000000E+00 0. -1.
         11    1    3    3    0    0  0.10024133840E+02  0.55934606983E+01  0.26182436692E+01  0.11773922965E+02  0.51100000000E-03 0. -1.
        -11    1    3    3    0    0  0.80495800006E+01  0.16965578793E+02  0.26584224818E+02  0.32547620672E+02  0.51100000000E-03 0.  1.
         12    1    3    3    0    0 -0.28816529686E-01  0.34282943483E+01  0.50718348533E+00  0.34657275742E+01  0.00000000000E+00 0. -1.
</event>
<event>
 7    1  0.4876728E-009  0.4778727E+02  0.7816164E-02  0.1312668E+00
        -11   -1    0    0    0    0  0.00000000000E+00  0.00000000000E+00  0.45593999997E+02  0.45594000000E+02  0.51100000000E-03 0.  1.
         11   -1    0    0    0    0 -0.00000000000E+00 -0.00000000000E+00 -0.45593999997E+02  0.45594000000E+02  0.51100000000E-03 0. -1.
    9900012    2    1    2    0    0  0.19859839523E+02  0.21771871865E+02  0.31862137857E+02  0.47787268909E+02  0.19999990265E+02 0.  0.
         12    1    1    2    0    0 -0.19859839523E+02 -0.21771871865E+02 -0.31862137857E+02  0.43400731091E+02  0.00000000000E+00 0. -1.
         11    1    3    3    0    0 -0.26122543003E+01  0.21426975159E+01 -0.32605219773E-01  0.33787702697E+01  0.51100000000E-03 0. -1.
        -11    1    3    3    0    0  0.13655885317E+02  0.74229152369E+01  0.19283757282E+02  0.24767845477E+02  0.51100000000E-03 0.  1.
         12    1    3    3    0    0  0.88162085066E+01  0.12206259112E+02  0.12610985795E+02  0.19640653163E+02  0.00000000000E+00 0. -1.
</event>
<event>
 7    1  0.4876728E-009  0.4778727E+02  0.7816164E-02  0.1312668E+00
        -11   -1    0    0    0    0  0.00000000000E+00  0.00000000000E+00  0.45593999997E+02  0.45594000000E+02  0.51100000000E-03 0. -1.
         11   -1    0    0    0    0 -0.00000000000E+00 -0.00000000000E+00 -0.45593999997E+02  0.45594000000E+02  0.51100000000E-03 0.  1.
    9900012    2    1    2    0    0 -0.18290421620E+02 -0.32910293710E+02 -0.21586953381E+02  0.47787268308E+02  0.19999987525E+02 0.  0.
         12    1    1    2    0    0  0.18290421620E+02  0.32910293710E+02  0.21586953381E+02  0.43400731692E+02  0.00000000000E+00 0. -1.
         11    1    3    3    0    0 -0.67374775484E+01 -0.21648618859E+02 -0.45316947802E+01  0.23121257752E+02  0.51100000000E-03 0. -1.
        -11    1    3    3    0    0 -0.91117029832E+01 -0.48594243105E+01 -0.13345729573E+02  0.16874407663E+02  0.51100000000E-03 0.  1.
         12    1    3    3    0    0 -0.24412410889E+01 -0.64022505403E+01 -0.37095290274E+01  0.77916028928E+01  0.00000000000E+00 0. -1.
</event>
<event>
 7    1  0.4876728E-009  0.4778726E+02  0.7816164E-02  0.1312668E+00
        -11   -1    0    0    0    0  0.00000000000E+00  0.00000000000E+00  0.45593999997E+02  0.45594000000E+02  0.51100000000E-03 0. -1.
         11   -1    0    0    0    0 -0.00000000000E+00 -0.00000000000E+00 -0.45593999997E+02  0.45594000000E+02  0.51100000000E-03 0.  1.
    9900012    2    1    2    0    0  0.19651571089E+02  0.38397993228E+02 -0.47993470853E+01  0.47787264262E+02  0.19999969075E+02 0.  0.
         12    1    1    2    0    0 -0.19651571089E+02 -0.38397993228E+02  0.47993470853E+01  0.43400735738E+02  0.00000000000E+00 0. -1.
         11    1    3    3    0    0  0.19505156221E+01  0.75522638955E+01 -0.46888513679E+01  0.91009081168E+01  0.51100000000E-03 0. -1.
        -11    1    3    3    0    0  0.10500407557E+02  0.12108572502E+02 -0.69647660853E+01  0.17475241165E+02  0.51100000000E-03 0.  1.
        -12    1    3    3    0    0  0.72006479099E+01  0.18737156830E+02  0.68542703679E+01  0.21211114980E+02  0.00000000000E+00 0.  1.
</event>
<event>
 7    1  0.4876728E-009  0.4778727E+02  0.7816164E-02  0.1312668E+00
        -11   -1    0    0    0    0  0.00000000000E+00  0.00000000000E+00  0.45593999997E+02  0.45594000000E+02  0.51100000000E-03 0. -1.
         11   -1    0    0    0    0 -0.00000000000E+00 -0.00000000000E+00 -0.45593999997E+02  0.45594000000E+02  0.51100000000E-03 0.  1.
    9900012    2    1    2    0    0  0.18598571178E+02  0.26151779350E+02 -0.29219868913E+02  0.47787272444E+02  0.20000006383E+02 0.  0.
         12    1    1    2    0    0 -0.18598571178E+02 -0.26151779350E+02  0.29219868913E+02  0.43400727556E+02  0.00000000000E+00 0. -1.
         11    1    3    3    0    0 -0.11584204183E+01  0.14500178716E+01 -0.28427763176E+01  0.33949767520E+01  0.51100000000E-03 0. -1.
        -11    1    3    3    0    0  0.35512963290E+01  0.38765499231E+00  0.16218219866E+01  0.39233007566E+01  0.51100000000E-03 0.  1.
        -12    1    3    3    0    0  0.16205695267E+02  0.24314106486E+02 -0.27998914582E+02  0.40468994936E+02  0.00000000000E+00 0.  1.
</event>
<event>
 7    1  0.4876728E-009  0.4778727E+02  0.7816164E-02  0.1312668E+00
        -11   -1    0    0    0    0  0.00000000000E+00  0.00000000000E+00  0.45593999997E+02  0.45594000000E+02  0.51100000000E-03 0.  1.
         11   -1    0    0    0    0 -0.00000000000E+00 -0.00000000000E+00 -0.45593999997E+02  0.45594000000E+02  0.51100000000E-03 0. -1.
    9900012    2    1    2    0    0 -0.60789785851E+01  0.17829411363E+02  0.39099634556E+02  0.47787270598E+02  0.19999997963E+02 0.  0.
         12    1    1    2    0    0  0.60789785851E+01 -0.17829411363E+02 -0.39099634556E+02  0.43400729402E+02  0.00000000000E+00 0. -1.
         11    1    3    3    0    0  0.48705221299E+01  0.84348643493E+01  0.24825714565E+02  0.26668052541E+02  0.51100000000E-03 0. -1.
        -11    1    3    3    0    0 -0.88847259070E+01  0.94743448830E+01  0.13891587827E+02  0.19017827900E+02  0.51100000000E-03 0.  1.
         12    1    3    3    0    0 -0.20647748080E+01 -0.79797868882E-01  0.38233216431E+00  0.21013901569E+01  0.00000000000E+00 0. -1.
</event>
<event>
 7    1  0.4876728E-009  0.4778727E+02  0.7816164E-02  0.1312668E+00
        -11   -1    0    0    0    0  0.00000000000E+00  0.00000000000E+00  0.45593999997E+02  0.45594000000E+02  0.51100000000E-03 0.  1.
         11   -1    0    0    0    0 -0.00000000000E+00 -0.00000000000E+00 -0.45593999997E+02  0.45594000000E+02  0.51100000000E-03 0. -1.
    9900012    2    1    2    0    0  0.41811748560E+02  0.46760695136E+01  0.10655289518E+02  0.47787272604E+02  0.20000007113E+02 0.  0.
         12    1    1    2    0    0 -0.41811748560E+02 -0.46760695136E+01 -0.10655289518E+02  0.43400727396E+02  0.00000000000E+00 0. -1.
         11    1    3    3    0    0  0.32683701706E+01  0.58913804880E+01  0.40098358903E+01  0.78402418174E+01  0.51100000000E-03 0. -1.
        -11    1    3    3    0    0  0.10244802985E+02 -0.29272675095E+01  0.43343592907E+01  0.11502675950E+02  0.51100000000E-03 0.  1.
         12    1    3    3    0    0  0.28298575404E+02  0.17119565351E+01  0.23110943367E+01  0.28444354837E+02  0.00000000000E+00 0. -1.
</event>
<event>
 7    1  0.4876728E-009  0.4778727E+02  0.7816164E-02  0.1312668E+00
        -11   -1    0    0    0    0  0.00000000000E+00  0.00000000000E+00  0.45593999997E+02  0.45594000000E+02  0.51100000000E-03 0.  1.
         11   -1    0    0    0    0 -0.00000000000E+00 -0.00000000000E+00 -0.45593999997E+02  0.45594000000E+02  0.51100000000E-03 0. -1.
    9900012    2    1    2    0    0  0.14163859625E+02 -0.86557652179E+01  0.40100951906E+02  0.47787268038E+02  0.19999986295E+02 0.  0.
         12    1    1    2    0    0 -0.14163859625E+02  0.86557652179E+01 -0.40100951906E+02  0.43400731962E+02  0.00000000000E+00 0. -1.
         11    1    3    3    0    0 -0.40856826215E+01 -0.20870132953E+01  0.62699175733E+01  0.77691887360E+01  0.51100000000E-03 0. -1.
        -11    1    3    3    0    0  0.81772020033E+01  0.13175223116E+01  0.10129666665E+02  0.13084824976E+02  0.51100000000E-03 0.  1.
         12    1    3    3    0    0  0.10072340243E+02 -0.78862742342E+01  0.23701367668E+02  0.26933254327E+02  0.00000000000E+00 0. -1.
</event>
<event>
 7    1  0.4876728E-009  0.4778727E+02  0.7816164E-02  0.1312668E+00
        -11   -1    0    0    0    0  0.00000000000E+00  0.00000000000E+00  0.45593999997E+02  0.45594000000E+02  0.51100000000E-03 0. -1.
         11   -1    0    0    0    0 -0.00000000000E+00 -0.00000000000E+00 -0.45593999997E+02  0.45594000000E+02  0.51100000000E-03 0.  1.
    9900012    2    1    2    0    0 -0.54429788963E+01 -0.13001932627E+02 -0.41048104567E+02  0.47787272359E+02  0.20000005992E+02 0.  0.
         12    1    1    2    0    0  0.54429788963E+01  0.13001932627E+02  0.41048104567E+02  0.43400727641E+02  0.00000000000E+00 0. -1.
         11    1    3    3    0    0  0.51956142096E+01 -0.60894064968E+01 -0.15364642850E+02  0.17324766338E+02  0.51100000000E-03 0. -1.
        -11    1    3    3    0    0 -0.17348629301E+01 -0.71988666666E+01 -0.10294475813E+02  0.12681075002E+02  0.51100000000E-03 0.  1.
         12    1    3    3    0    0 -0.89037301758E+01  0.28634053668E+00 -0.15388985904E+02  0.17781431019E+02  0.00000000000E+00 0. -1.
</event>
<event>
 7    1  0.4876728E-009  0.4778727E+02  0.7816164E-02  0.1312668E+00
        -11   -1    0    0    0    0  0.00000000000E+00  0.00000000000E+00  0.45593999997E+02  0.45594000000E+02  0.51100000000E-03 0. -1.
         11   -1    0    0    0    0 -0.00000000000E+00 -0.00000000000E+00 -0.45593999997E+02  0.45594000000E+02  0.51100000000E-03 0.  1.
    9900012    2    1    2    0    0  0.24254510985E+01 -0.42491998646E+02 -0.84953175071E+01  0.47787272109E+02  0.20000004853E+02 0.  0.
         12    1    1    2    0    0 -0.24254510985E+01  0.42491998646E+02  0.84953175071E+01  0.43400727891E+02  0.00000000000E+00 0. -1.
         11    1    3    3    0    0  0.18700560684E+01 -0.12317385247E+01 -0.81752467151E+00  0.23838280856E+01  0.51100000000E-03 0. -1.
        -11    1    3    3    0    0  0.77124073823E+01 -0.29864623930E+02 -0.23615990649E+01  0.30934675374E+02  0.51100000000E-03 0.  1.
        -12    1    3    3    0    0 -0.71570123521E+01 -0.11395636192E+02 -0.53161937707E+01  0.14468768649E+02  0.00000000000E+00 0.  1.
</event>
<event>
 7    1  0.4876728E-009  0.4778727E+02  0.7816164E-02  0.1312668E+00
        -11   -1    0    0    0    0  0.00000000000E+00  0.00000000000E+00  0.45593999997E+02  0.45594000000E+02  0.51100000000E-03 0. -1.
         11   -1    0    0    0    0 -0.00000000000E+00 -0.00000000000E+00 -0.45593999997E+02  0.45594000000E+02  0.51100000000E-03 0.  1.
    9900012    2    1    2    0    0 -0.17125225504E+02  0.11443461549E+02 -0.38202053515E+02  0.47787273582E+02  0.20000011572E+02 0.  0.
         12    1    1    2    0    0  0.17125225504E+02 -0.11443461549E+02  0.38202053515E+02  0.43400726418E+02  0.00000000000E+00 0. -1.
         11    1    3    3    0    0  0.21290421373E+01  0.73685942606E+01 -0.72763396389E+01  0.10572328060E+02  0.51100000000E-03 0. -1.
        -11    1    3    3    0    0 -0.17242459614E+02  0.13992355992E+01 -0.26855655262E+02  0.31945054290E+02  0.51100000000E-03 0.  1.
         12    1    3    3    0    0 -0.20118080277E+01  0.26756316896E+01 -0.40700586145E+01  0.52698912326E+01  0.00000000000E+00 0. -1.
</event>
<event>
 7    1  0.4876728E-009  0.4778726E+02  0.7816164E-02  0.1312668E+00
        -11   -1    0    0    0    0  0.00000000000E+00  0.00000000000E+00  0.45593999997E+02  0.45594000000E+02  0.51100000000E-03 0.  1.
         11   -1    0    0    0    0 -0.00000000000E+00 -0.00000000000E+00 -0.45593999997E+02  0.45594000000E+02  0.51100000000E-03 0. -1.
    9900012    2    1    2    0    0  0.28330925711E+02 -0.76797299830E+01  0.31968806858E+02  0.47787260188E+02  0.19999950502E+02 0.  0.
         12    1    1    2    0    0 -0.28330925711E+02  0.76797299830E+01 -0.31968806858E+02  0.43400739812E+02  0.00000000000E+00 0. -1.
         11    1    3    3    0    0  0.19360288964E+02 -0.56617426210E+01  0.30977357487E+02  0.36965832811E+02  0.51100000000E-03 0. -1.
        -11    1    3    3    0    0  0.86163838591E+01 -0.21677578779E+01  0.25279504965E+01  0.92375201758E+01  0.51100000000E-03 0.  1.
         12    1    3    3    0    0  0.35425288772E+00  0.14977051590E+00 -0.15365011249E+01  0.15839072014E+01  0.00000000000E+00 0. -1.
</event>
<event>
 7    1  0.4876728E-009  0.4778728E+02  0.7816164E-02  0.1312668E+00
        -11   -1    0    0    0    0  0.00000000000E+00  0.00000000000E+00  0.45593999997E+02  0.45594000000E+02  0.51100000000E-03 0. -1.
         11   -1    0    0    0    0 -0.00000000000E+00 -0.00000000000E+00 -0.45593999997E+02  0.45594000000E+02  0.51100000000E-03 0.  1.
    9900012    2    1    2    0    0 -0.58368656249E+01  0.11899383647E+02 -0.41327447864E+02  0.47787282512E+02  0.20000052285E+02 0.  0.
         12    1    1    2    0    0  0.58368656249E+01 -0.11899383647E+02  0.41327447864E+02  0.43400717488E+02  0.00000000000E+00 0. -1.
         11    1    3    3    0    0  0.41297292478E+01 -0.20987115752E+01 -0.95610681533E+01  0.10624183659E+02  0.51100000000E-03 0. -1.
        -11    1    3    3    0    0 -0.48148700313E+01  0.11043884968E+02 -0.14212328607E+02  0.18631710960E+02  0.51100000000E-03 0.  1.
         12    1    3    3    0    0 -0.51517248414E+01  0.29542102540E+01 -0.17554051104E+02  0.18531387892E+02  0.00000000000E+00 0. -1.
</event>
<event>
 7    1  0.4876728E-009  0.4778726E+02  0.7816164E-02  0.1312668E+00
        -11   -1    0    0    0    0  0.00000000000E+00  0.00000000000E+00  0.45593999997E+02  0.45594000000E+02  0.51100000000E-03 0. -1.
         11   -1    0    0    0    0 -0.00000000000E+00 -0.00000000000E+00 -0.45593999997E+02  0.45594000000E+02  0.51100000000E-03 0.  1.
    9900012    2    1    2    0    0 -0.80630777403E+01  0.13840589928E+02 -0.40336695140E+02  0.47787261216E+02  0.19999955188E+02 0.  0.
         12    1    1    2    0    0  0.80630777403E+01 -0.13840589928E+02  0.40336695140E+02  0.43400738784E+02  0.00000000000E+00 0. -1.
         11    1    3    3    0    0 -0.81749978703E+01  0.89099981700E+01 -0.34251191823E+02  0.36323034002E+02  0.51100000000E-03 0.  1.
        -11    1    3    3    0    0  0.19773300982E+01  0.32248354307E+01  0.10238451251E+01  0.39188846594E+01  0.51100000000E-03 0. -1.
         12    1    3    3    0    0 -0.18654099682E+01  0.17057563275E+01 -0.71093484417E+01  0.75453425545E+01  0.00000000000E+00 0. -1.
</event>
<event>
 7    1  0.4876728E-009  0.4778726E+02  0.7816164E-02  0.1312668E+00
        -11   -1    0    0    0    0  0.00000000000E+00  0.00000000000E+00  0.45593999997E+02  0.45594000000E+02  0.51100000000E-03 0.  1.
         11   -1    0    0    0    0 -0.00000000000E+00 -0.00000000000E+00 -0.45593999997E+02  0.45594000000E+02  0.51100000000E-03 0. -1.
    9900012    2    1    2    0    0 -0.12422320718E+02  0.68048255940E+01  0.41024433966E+02  0.47787263997E+02  0.19999967867E+02 0.  0.
         12    1    1    2    0    0  0.12422320718E+02 -0.68048255940E+01 -0.41024433966E+02  0.43400736003E+02  0.00000000000E+00 0. -1.
         11    1    3    3    0    0 -0.11758072900E+02  0.12561944870E+02  0.26681960252E+02  0.31748728170E+02  0.51100000000E-03 0. -1.
        -11    1    3    3    0    0  0.10375191580E+01 -0.16981876914E+01  0.84651946355E+01  0.86959650366E+01  0.51100000000E-03 0.  1.
         12    1    3    3    0    0 -0.17017669768E+01 -0.40589315845E+01  0.58772790780E+01  0.73425707904E+01  0.00000000000E+00 0. -1.
</event>
<event>
 7    1  0.4876728E-009  0.4778727E+02  0.7816164E-02  0.1312668E+00
        -11   -1    0    0    0    0  0.00000000000E+00  0.00000000000E+00  0.45593999997E+02  0.45594000000E+02  0.51100000000E-03 0. -1.
         11   -1    0    0    0    0 -0.00000000000E+00 -0.00000000000E+00 -0.45593999997E+02  0.45594000000E+02  0.51100000000E-03 0.  1.
    9900012    2    1    2    0    0 -0.36760871265E+02  0.20228517300E+02 -0.11093622994E+02  0.47787273745E+02  0.20000012315E+02 0.  0.
         12    1    1    2    0    0  0.36760871265E+02 -0.20228517300E+02  0.11093622994E+02  0.43400726255E+02  0.00000000000E+00 0. -1.
         11    1    3    3    0    0 -0.23252260006E+02  0.80593626606E+01  0.93240955783E+00  0.24627023972E+02  0.51100000000E-03 0. -1.
        -11    1    3    3    0    0 -0.14004863035E+02  0.12766709809E+02 -0.11141724903E+02  0.21983245940E+02  0.51100000000E-03 0.  1.
        -12    1    3    3    0    0  0.49625177600E+00 -0.59755517000E+00 -0.88430764844E+00  0.11770038332E+01  0.00000000000E+00 0.  1.
</event>
<event>
 7    1  0.4876728E-009  0.4778727E+02  0.7816164E-02  0.1312668E+00
        -11   -1    0    0    0    0  0.00000000000E+00  0.00000000000E+00  0.45593999997E+02  0.45594000000E+02  0.51100000000E-03 0. -1.
         11   -1    0    0    0    0 -0.00000000000E+00 -0.00000000000E+00 -0.45593999997E+02  0.45594000000E+02  0.51100000000E-03 0.  1.
    9900012    2    1    2    0    0  0.71934981193E+01  0.42514046948E+02 -0.49429068333E+01  0.47787274994E+02  0.20000018009E+02 0.  0.
         12    1    1    2    0    0 -0.71934981193E+01 -0.42514046948E+02  0.49429068333E+01  0.43400725006E+02  0.00000000000E+00 0. -1.
         11    1    3    3    0    0  0.19167857927E+01 -0.26433201905E+00 -0.11089990167E+01  0.22302058810E+01  0.51100000000E-03 0. -1.
        -11    1    3    3    0    0  0.18237660624E+01  0.40034178577E+02 -0.61990896931E+01  0.40552315474E+02  0.51100000000E-03 0.  1.
        -12    1    3    3    0    0  0.34529462642E+01  0.27442003893E+01  0.23651818764E+01  0.50047536392E+01  0.00000000000E+00 0.  1.
</event>
<event>
 7    1  0.4876728E-009  0.4778727E+02  0.7816164E-02  0.1312668E+00
        -11   -1    0    0    0    0  0.00000000000E+00  0.00000000000E+00  0.45593999997E+02  0.45594000000E+02  0.51100000000E-03 0. -1.
         11   -1    0    0    0    0 -0.00000000000E+00 -0.00000000000E+00 -0.45593999997E+02  0.45594000000E+02  0.51100000000E-03 0.  1.
    9900012    2    1    2    0    0  0.17592513120E+02 -0.37392732165E+02 -0.13263116857E+02  0.47787271834E+02  0.20000003598E+02 0.  0.
         12    1    1    2    0    0 -0.17592513120E+02  0.37392732165E+02  0.13263116857E+02  0.43400728166E+02  0.00000000000E+00 0. -1.
         11    1    3    3    0    0  0.82285686824E+00 -0.19695789717E+00  0.12581707317E+01  0.15162056886E+01  0.51100000000E-03 0. -1.
        -11    1    3    3    0    0 -0.56893472252E+00 -0.23307852804E+01  0.27713114650E+01  0.36655714751E+01  0.51100000000E-03 0.  1.
        -12    1    3    3    0    0  0.17338590974E+02 -0.34864988987E+02 -0.17292599054E+02  0.42605494670E+02  0.00000000000E+00 0.  1.
</event>
<event>
 7    1  0.4876728E-009  0.4778727E+02  0.7816164E-02  0.1312668E+00
        -11   -1    0    0    0    0  0.00000000000E+00  0.00000000000E+00  0.45593999997E+02  0.45594000000E+02  0.51100000000E-03 0. -1.
         11   -1    0    0    0    0 -0.00000000000E+00 -0.00000000000E+00 -0.45593999997E+02  0.45594000000E+02  0.51100000000E-03 0.  1.
    9900012    2    1    2    0    0  0.18495197226E+02 -0.27790038077E+02 -0.27735624525E+02  0.47787269539E+02  0.19999993136E+02 0.  0.
         12    1    1    2    0    0 -0.18495197226E+02  0.27790038077E+02  0.27735624525E+02  0.43400730461E+02  0.00000000000E+00 0. -1.
         11    1    3    3    0    0  0.18527797435E+02 -0.13358045193E+02 -0.15477256283E+02  0.27590978806E+02  0.51100000000E-03 0. -1.
        -11    1    3    3    0    0 -0.12785644656E+01 -0.47133953028E+01 -0.82970811705E+01  0.96276881225E+01  0.51100000000E-03 0.  1.
         12    1    3    3    0    0  0.12459642565E+01 -0.97185975811E+01 -0.39612870711E+01  0.10568602610E+02  0.00000000000E+00 0. -1.
</event>
<event>
 7    1  0.4876728E-009  0.4778727E+02  0.7816164E-02  0.1312668E+00
        -11   -1    0    0    0    0  0.00000000000E+00  0.00000000000E+00  0.45593999997E+02  0.45594000000E+02  0.51100000000E-03 0.  1.
         11   -1    0    0    0    0 -0.00000000000E+00 -0.00000000000E+00 -0.45593999997E+02  0.45594000000E+02  0.51100000000E-03 0. -1.
    9900012    2    1    2    0    0  0.19284860329E+01 -0.43357231892E+02  0.23390617059E+00  0.47787270423E+02  0.19999997167E+02 0.  0.
         12    1    1    2    0    0 -0.19284860329E+01  0.43357231892E+02 -0.23390617059E+00  0.43400729577E+02  0.00000000000E+00 0. -1.
         11    1    3    3    0    0 -0.21843007333E+01 -0.97890074349E+01 -0.41824617148E+01  0.10866868110E+02  0.51100000000E-03 0. -1.
        -11    1    3    3    0    0 -0.14194085335E+01 -0.26973480975E+02 -0.48447652138E+00  0.27015146016E+02  0.51100000000E-03 0.  1.
        -12    1    3    3    0    0  0.55321952996E+01 -0.65947434823E+01  0.49008444068E+01  0.99052562980E+01  0.00000000000E+00 0.  1.
</event>
<event>
 7    1  0.4876728E-009  0.4778727E+02  0.7816164E-02  0.1312668E+00
        -11   -1    0    0    0    0  0.00000000000E+00  0.00000000000E+00  0.45593999997E+02  0.45594000000E+02  0.51100000000E-03 0.  1.
         11   -1    0    0    0    0 -0.00000000000E+00 -0.00000000000E+00 -0.45593999997E+02  0.45594000000E+02  0.51100000000E-03 0. -1.
    9900012    2    1    2    0    0 -0.25078284057E+02 -0.34927966649E+02  0.58940642834E+01  0.47787272135E+02  0.20000004971E+02 0.  0.
         12    1    1    2    0    0  0.25078284057E+02  0.34927966649E+02 -0.58940642834E+01  0.43400727865E+02  0.00000000000E+00 0. -1.
         11    1    3    3    0    0 -0.11597271229E+01 -0.66393747495E+01 -0.24179113999E+01  0.71604860074E+01  0.51100000000E-03 0. -1.
        -11    1    3    3    0    0 -0.15449181285E+02 -0.78201868865E+01  0.11812370451E+01  0.17355916758E+02  0.51100000000E-03 0.  1.
        -12    1    3    3    0    0 -0.84693756489E+01 -0.20468405013E+02  0.71307386382E+01  0.23270869369E+02  0.00000000000E+00 0.  1.
</event>
<event>
 7    1  0.4876728E-009  0.4778727E+02  0.7816164E-02  0.1312668E+00
        -11   -1    0    0    0    0  0.00000000000E+00  0.00000000000E+00  0.45593999997E+02  0.45594000000E+02  0.51100000000E-03 0. -1.
         11   -1    0    0    0    0 -0.00000000000E+00 -0.00000000000E+00 -0.45593999997E+02  0.45594000000E+02  0.51100000000E-03 0.  1.
    9900012    2    1    2    0    0  0.23382348220E+02 -0.31013816084E+02  0.19365747721E+02  0.47787272113E+02  0.20000004870E+02 0.  0.
         12    1    1    2    0    0 -0.23382348220E+02  0.31013816084E+02 -0.19365747721E+02  0.43400727887E+02  0.00000000000E+00 0. -1.
         11    1    3    3    0    0  0.82411413610E+00 -0.86640899635E+01  0.18778108746E+01  0.89034708371E+01  0.51100000000E-03 0. -1.
        -11    1    3    3    0    0  0.20738255459E+02 -0.14586536559E+02  0.17676428919E+02  0.30907902353E+02  0.51100000000E-03 0.  1.
        -12    1    3    3    0    0  0.18199786243E+01 -0.77631895612E+01 -0.18849207260E+00  0.79758989223E+01  0.00000000000E+00 0.  1.
</event>
<event>
 7    1  0.4876728E-009  0.4778727E+02  0.7816164E-02  0.1312668E+00
        -11   -1    0    0    0    0  0.00000000000E+00  0.00000000000E+00  0.45593999997E+02  0.45594000000E+02  0.51100000000E-03 0.  1.
         11   -1    0    0    0    0 -0.00000000000E+00 -0.00000000000E+00 -0.45593999997E+02  0.45594000000E+02  0.51100000000E-03 0. -1.
    9900012    2    1    2    0    0 -0.33108311798E+02 -0.19865140446E+02  0.19820162547E+02  0.47787274679E+02  0.20000016569E+02 0.  0.
         12    1    1    2    0    0  0.33108311798E+02  0.19865140446E+02 -0.19820162547E+02  0.43400725321E+02  0.00000000000E+00 0. -1.
         11    1    3    3    0    0 -0.51349084460E+01 -0.43469368227E+01 -0.15966159985E+01  0.69146458620E+01  0.51100000000E-03 0. -1.
        -11    1    3    3    0    0 -0.19222163015E+02 -0.12376624682E+02  0.21768373187E+02  0.31567934062E+02  0.51100000000E-03 0.  1.
        -12    1    3    3    0    0 -0.87512403372E+01 -0.31415789415E+01 -0.35159464142E+00  0.93046947546E+01  0.00000000000E+00 0.  1.
</event>
<event>
 7    1  0.4876728E-009  0.4778727E+02  0.7816164E-02  0.1312668E+00
        -11   -1    0    0    0    0  0.00000000000E+00  0.00000000000E+00  0.45593999997E+02  0.45594000000E+02  0.51100000000E-03 0. -1.
         11   -1    0    0    0    0 -0.00000000000E+00 -0.00000000000E+00 -0.45593999997E+02  0.45594000000E+02  0.51100000000E-03 0.  1.
    9900012    2    1    2    0    0  0.20754097995E+02 -0.66192519413E+01 -0.37537662794E+02  0.47787271804E+02  0.20000003465E+02 0.  0.
         12    1    1    2    0    0 -0.20754097995E+02  0.66192519413E+01  0.37537662794E+02  0.43400728196E+02  0.00000000000E+00 0. -1.
         11    1    3    3    0    0  0.58318348260E-01  0.14120744086E+01 -0.16346809950E+02  0.16407789338E+02  0.51100000000E-03 0. -1.
        -11    1    3    3    0    0  0.13633545856E+02 -0.26844712779E+01 -0.10062746391E+02  0.17156305658E+02  0.51100000000E-03 0.  1.
         12    1    3    3    0    0  0.70622337902E+01 -0.53468550720E+01 -0.11128106454E+02  0.14223176808E+02  0.00000000000E+00 0. -1.
</event>
<event>
 7    1  0.4876728E-009  0.4778727E+02  0.7816164E-02  0.1312668E+00
        -11   -1    0    0    0    0  0.00000000000E+00  0.00000000000E+00  0.45593999997E+02  0.45594000000E+02  0.51100000000E-03 0.  1.
         11   -1    0    0    0    0 -0.00000000000E+00 -0.00000000000E+00 -0.45593999997E+02  0.45594000000E+02  0.51100000000E-03 0. -1.
    9900012    2    1    2    0    0 -0.12185361007E+02  0.75603363733E+01  0.40963171622E+02  0.47787272606E+02  0.20000007121E+02 0.  0.
         12    1    1    2    0    0  0.12185361007E+02 -0.75603363733E+01 -0.40963171622E+02  0.43400727394E+02  0.00000000000E+00 0. -1.
         11    1    3    3    0    0  0.35072784678E+00  0.79540075890E+00  0.31129112427E+00  0.92334977930E+00  0.51100000000E-03 0. -1.
        -11    1    3    3    0    0 -0.13887332819E+02 -0.12846339518E+01  0.32317608786E+02  0.35198524616E+02  0.51100000000E-03 0.  1.
        -12    1    3    3    0    0  0.13512439657E+01  0.80495695662E+01  0.83342717123E+01  0.11665398211E+02  0.00000000000E+00 0.  1.
</event>
<event>
 7    1  0.4876728E-009  0.4778727E+02  0.7816164E-02  0.1312668E+00
        -11   -1    0    0    0    0  0.00000000000E+00  0.00000000000E+00  0.45593999997E+02  0.45594000000E+02  0.51100000000E-03 0.  1.
         11   -1    0    0    0    0 -0.00000000000E+00 -0.00000000000E+00 -0.45593999997E+02  0.45594000000E+02  0.51100000000E-03 0. -1.
    9900012    2    1    2    0    0 -0.98964909357E+00  0.37521599762E+02  0.21789296410E+02  0.47787270835E+02  0.19999999043E+02 0.  0.
         12    1    1    2    0    0  0.98964909357E+00 -0.37521599762E+02 -0.21789296410E+02  0.43400729165E+02  0.00000000000E+00 0. -1.
         11    1    3    3    0    0  0.79822642033E+01  0.15885088069E+02  0.55338180076E+01  0.18619229489E+02  0.51100000000E-03 0. -1.
        -11    1    3    3    0    0 -0.77347539296E+01  0.21158489447E+02  0.13918103825E+02  0.26480591163E+02  0.51100000000E-03 0.  1.
         12    1    3    3    0    0 -0.12371593672E+01  0.47802224715E+00  0.23373745772E+01  0.26874501823E+01  0.00000000000E+00 0. -1.
</event>
<event>
 7    1  0.4876728E-009  0.4778727E+02  0.7816164E-02  0.1312668E+00
        -11   -1    0    0    0    0  0.00000000000E+00  0.00000000000E+00  0.45593999997E+02  0.45594000000E+02  0.51100000000E-03 0.  1.
         11   -1    0    0    0    0 -0.00000000000E+00 -0.00000000000E+00 -0.45593999997E+02  0.45594000000E+02  0.51100000000E-03 0. -1.
    9900012    2    1    2    0    0  0.87966767296E+01  0.35620424871E+02  0.23182481883E+02  0.47787266645E+02  0.19999979942E+02 0.  0.
         12    1    1    2    0    0 -0.87966767296E+01 -0.35620424871E+02 -0.23182481883E+02  0.43400733355E+02  0.00000000000E+00 0. -1.
         11    1    3    3    0    0  0.95374857225E+00  0.36513810051E+01 -0.48267737009E+00  0.38046284034E+01  0.51100000000E-03 0. -1.
        -11    1    3    3    0    0 -0.32821654691E+01  0.36191992995E+00  0.37776126335E+01  0.50173652122E+01  0.51100000000E-03 0.  1.
        -12    1    3    3    0    0  0.11125093626E+02  0.31607123936E+02  0.19887546620E+02  0.38965273029E+02  0.00000000000E+00 0.  1.
</event>
<event>
 7    1  0.6358838E-009  0.4778727E+02  0.7816164E-02  0.1312668E+00
        -11   -1    0    0    0    0  0.00000000000E+00  0.00000000000E+00  0.45593999997E+02  0.45594000000E+02  0.51100000000E-03 0.  1.
         11   -1    0    0    0    0 -0.00000000000E+00 -0.00000000000E+00 -0.45593999997E+02  0.45594000000E+02  0.51100000000E-03 0. -1.
    9900012    2    1    2    0    0 -0.40399410495E+02  0.15016178033E+02 -0.51015201285E+01  0.47787268685E+02  0.19999989242E+02 0.  0.
         12    1    1    2    0    0  0.40399410495E+02 -0.15016178033E+02  0.51015201285E+01  0.43400731315E+02  0.00000000000E+00 0. -1.
         11    1    3    3    0    0 -0.41089166929E+01  0.77073947565E+01  0.11712928706E+01  0.88124376634E+01  0.51100000000E-03 0. -1.
        -11    1    3    3    0    0 -0.28360439141E+02  0.79621380615E+01 -0.10865780347E+01  0.29476953758E+02  0.51100000000E-03 0.  1.
         12    1    3    3    0    0 -0.79300546613E+01 -0.65335478470E+00 -0.51862349644E+01  0.94978772635E+01  0.00000000000E+00 0. -1.
</event>
<event>
 7    1  0.4876728E-009  0.4778728E+02  0.7816164E-02  0.1312668E+00
        -11   -1    0    0    0    0  0.00000000000E+00  0.00000000000E+00  0.45593999997E+02  0.45594000000E+02  0.51100000000E-03 0. -1.
         11   -1    0    0    0    0 -0.00000000000E+00 -0.00000000000E+00 -0.45593999997E+02  0.45594000000E+02  0.51100000000E-03 0.  1.
    9900012    2    1    2    0    0  0.97073207765E+01 -0.41464050881E+02  0.83739319749E+01  0.47787281932E+02  0.20000049642E+02 0.  0.
         12    1    1    2    0    0 -0.97073207765E+01  0.41464050881E+02 -0.83739319749E+01  0.43400718068E+02  0.00000000000E+00 0. -1.
         11    1    3    3    0    0  0.36991833933E+01 -0.67687465140E+01  0.85564829520E+01  0.11520125343E+02  0.51100000000E-03 0. -1.
        -11    1    3    3    0    0  0.64841576008E+01 -0.20763812736E+02 -0.32496487819E+01  0.21994100041E+02  0.51100000000E-03 0.  1.
        -12    1    3    3    0    0 -0.47602021755E+00 -0.13931491630E+02  0.30670978048E+01  0.14273056548E+02  0.00000000000E+00 0.  1.
</event>
<event>
 7    1  0.4876728E-009  0.4778727E+02  0.7816164E-02  0.1312668E+00
        -11   -1    0    0    0    0  0.00000000000E+00  0.00000000000E+00  0.45593999997E+02  0.45594000000E+02  0.51100000000E-03 0.  1.
         11   -1    0    0    0    0 -0.00000000000E+00 -0.00000000000E+00 -0.45593999997E+02  0.45594000000E+02  0.51100000000E-03 0. -1.
    9900012    2    1    2    0    0 -0.36415583864E+02 -0.22627594239E+02  0.67468803079E+01  0.47787272321E+02  0.20000005820E+02 0.  0.
         12    1    1    2    0    0  0.36415583864E+02  0.22627594239E+02 -0.67468803079E+01  0.43400727679E+02  0.00000000000E+00 0. -1.
         11    1    3    3    0    0 -0.34096341828E+00 -0.59120726174E+01  0.32549510550E+01  0.67574821730E+01  0.51100000000E-03 0. -1.
        -11    1    3    3    0    0 -0.29627921036E+01  0.94625793876E+00 -0.92036536351E+00  0.32435495678E+01  0.51100000000E-03 0.  1.
         12    1    3    3    0    0 -0.33111828342E+02 -0.17661779561E+02  0.44122946164E+01  0.37786240580E+02  0.00000000000E+00 0. -1.
</event>
<event>
 7    1  0.4876728E-009  0.4778727E+02  0.7816164E-02  0.1312668E+00
        -11   -1    0    0    0    0  0.00000000000E+00  0.00000000000E+00  0.45593999997E+02  0.45594000000E+02  0.51100000000E-03 0.  1.
         11   -1    0    0    0    0 -0.00000000000E+00 -0.00000000000E+00 -0.45593999997E+02  0.45594000000E+02  0.51100000000E-03 0. -1.
    9900012    2    1    2    0    0  0.34298434377E+02  0.17565404035E+02  0.19967405921E+02  0.47787270527E+02  0.19999997639E+02 0.  0.
         12    1    1    2    0    0 -0.34298434377E+02 -0.17565404035E+02 -0.19967405921E+02  0.43400729473E+02  0.00000000000E+00 0. -1.
         11    1    3    3    0    0  0.12683103791E+02  0.43949990674E+01  0.97362832107E+01  0.16582290240E+02  0.51100000000E-03 0. -1.
        -11    1    3    3    0    0 -0.11160487603E+01  0.27793884695E+01 -0.17702683380E+01  0.34791400301E+01  0.51100000000E-03 0.  1.
        -12    1    3    3    0    0  0.22731379346E+02  0.10391016498E+02  0.12001391048E+02  0.27725840257E+02  0.00000000000E+00 0.  1.
</event>
<event>
 7    1  0.4876728E-009  0.4778727E+02  0.7816164E-02  0.1312668E+00
        -11   -1    0    0    0    0  0.00000000000E+00  0.00000000000E+00  0.45593999997E+02  0.45594000000E+02  0.51100000000E-03 0. -1.
         11   -1    0    0    0    0 -0.00000000000E+00 -0.00000000000E+00 -0.45593999997E+02  0.45594000000E+02  0.51100000000E-03 0.  1.
    9900012    2    1    2    0    0 -0.13901855901E+02  0.22901602417E+02 -0.34144960145E+02  0.47787270812E+02  0.19999998940E+02 0.  0.
         12    1    1    2    0    0  0.13901855901E+02 -0.22901602417E+02  0.34144960145E+02  0.43400729188E+02  0.00000000000E+00 0. -1.
         11    1    3    3    0    0 -0.34358377767E+01  0.63687351894E+01 -0.50731229860E+01  0.88375531813E+01  0.51100000000E-03 0. -1.
        -11    1    3    3    0    0  0.25811706179E+01  0.17775253964E+00  0.58810710377E+00  0.26532824860E+01  0.51100000000E-03 0.  1.
        -12    1    3    3    0    0 -0.13047188742E+02  0.16355114688E+02 -0.29659944263E+02  0.36296435145E+02  0.00000000000E+00 0.  1.
</event>
<event>
 7    1  0.4876728E-009  0.4778727E+02  0.7816164E-02  0.1312668E+00
        -11   -1    0    0    0    0  0.00000000000E+00  0.00000000000E+00  0.45593999997E+02  0.45594000000E+02  0.51100000000E-03 0.  1.
         11   -1    0    0    0    0 -0.00000000000E+00 -0.00000000000E+00 -0.45593999997E+02  0.45594000000E+02  0.51100000000E-03 0. -1.
    9900012    2    1    2    0    0  0.25274712747E+02 -0.27082298828E+02  0.22613295244E+02  0.47787272633E+02  0.20000007241E+02 0.  0.
         12    1    1    2    0    0 -0.25274712747E+02  0.27082298828E+02 -0.22613295244E+02  0.43400727367E+02  0.00000000000E+00 0. -1.
         11    1    3    3    0    0  0.12289833787E+02 -0.22560670447E+01  0.63420980112E+01  0.14012567947E+02  0.51100000000E-03 0. -1.
        -11    1    3    3    0    0  0.12180276615E+02 -0.14527287841E+02  0.81552409442E+01  0.20637567336E+02  0.51100000000E-03 0.  1.
         12    1    3    3    0    0  0.80460234452E+00 -0.10298943942E+02  0.81159562881E+01  0.13137137349E+02  0.00000000000E+00 0. -1.
</event>
<event>
 7    1  0.4876728E-009  0.4778727E+02  0.7816164E-02  0.1312668E+00
        -11   -1    0    0    0    0  0.00000000000E+00  0.00000000000E+00  0.45593999997E+02  0.45594000000E+02  0.51100000000E-03 0.  1.
         11   -1    0    0    0    0 -0.00000000000E+00 -0.00000000000E+00 -0.45593999997E+02  0.45594000000E+02  0.51100000000E-03 0. -1.
    9900012    2    1    2    0    0  0.23925969808E+02  0.33556042230E+02  0.13607469144E+02  0.47787271689E+02  0.20000002939E+02 0.  0.
         12    1    1    2    0    0 -0.23925969808E+02 -0.33556042230E+02 -0.13607469144E+02  0.43400728311E+02  0.00000000000E+00 0. -1.
         11    1    3    3    0    0 -0.33727205369E+01  0.38227462694E+01  0.11450699604E+01  0.52249228066E+01  0.51100000000E-03 0. -1.
        -11    1    3    3    0    0  0.13316134140E+02  0.18031997335E+02  0.79023247589E+01  0.23768026699E+02  0.51100000000E-03 0.  1.
         12    1    3    3    0    0  0.13982556205E+02  0.11701298625E+02  0.45600744251E+01  0.18794322183E+02  0.00000000000E+00 0. -1.
</event>
<event>
 7    1  0.4876728E-009  0.4778727E+02  0.7816164E-02  0.1312668E+00
        -11   -1    0    0    0    0  0.00000000000E+00  0.00000000000E+00  0.45593999997E+02  0.45594000000E+02  0.51100000000E-03 0.  1.
         11   -1    0    0    0    0 -0.00000000000E+00 -0.00000000000E+00 -0.45593999997E+02  0.45594000000E+02  0.51100000000E-03 0. -1.
    9900012    2    1    2    0    0  0.28550130939E+02 -0.30947302804E+02 -0.10525113393E+02  0.47787267986E+02  0.19999986054E+02 0.  0.
         12    1    1    2    0    0 -0.28550130939E+02  0.30947302804E+02  0.10525113393E+02  0.43400732014E+02  0.00000000000E+00 0. -1.
         11    1    3    3    0    0  0.10928952912E+02 -0.44775964966E+00 -0.60337442296E+00  0.10954750632E+02  0.51100000000E-03 0. -1.
        -11    1    3    3    0    0  0.85477695470E+01 -0.18381445111E+02 -0.67439536439E+01  0.21364053914E+02  0.51100000000E-03 0.  1.
        -12    1    3    3    0    0  0.90734084802E+01 -0.12118098043E+02 -0.31777853261E+01  0.15468463440E+02  0.00000000000E+00 0.  1.
</event>
<event>
 7    1  0.4876728E-009  0.4778727E+02  0.7816164E-02  0.1312668E+00
        -11   -1    0    0    0    0  0.00000000000E+00  0.00000000000E+00  0.45593999997E+02  0.45594000000E+02  0.51100000000E-03 0.  1.
         11   -1    0    0    0    0 -0.00000000000E+00 -0.00000000000E+00 -0.45593999997E+02  0.45594000000E+02  0.51100000000E-03 0. -1.
    9900012    2    1    2    0    0  0.29199321709E+02 -0.31946913617E+02 -0.32276647414E+01  0.47787268467E+02  0.19999988247E+02 0.  0.
         12    1    1    2    0    0 -0.29199321709E+02  0.31946913617E+02  0.32276647414E+01  0.43400731533E+02  0.00000000000E+00 0. -1.
         11    1    3    3    0    0  0.13912433779E+02 -0.42513510131E+01  0.11219496435E+00  0.14547934116E+02  0.51100000000E-03 0. -1.
        -11    1    3    3    0    0  0.85841936098E+01 -0.21342370902E+02 -0.57155899619E+01  0.23703441617E+02  0.51100000000E-03 0.  1.
        -12    1    3    3    0    0  0.67026943209E+01 -0.63531917023E+01  0.23757302562E+01  0.95358927330E+01  0.00000000000E+00 0.  1.
</event>
<event>
 7    1  0.4876728E-009  0.4778727E+02  0.7816164E-02  0.1312668E+00
        -11   -1    0    0    0    0  0.00000000000E+00  0.00000000000E+00  0.45593999997E+02  0.45594000000E+02  0.51100000000E-03 0. -1.
         11   -1    0    0    0    0 -0.00000000000E+00 -0.00000000000E+00 -0.45593999997E+02  0.45594000000E+02  0.51100000000E-03 0.  1.
    9900012    2    1    2    0    0  0.25471214266E+02  0.33085413428E+02  0.11840437644E+02  0.47787270727E+02  0.19999998552E+02 0.  0.
         12    1    1    2    0    0 -0.25471214266E+02 -0.33085413428E+02 -0.11840437644E+02  0.43400729273E+02  0.00000000000E+00 0. -1.
         11    1    3    3    0    0  0.67531865185E+01  0.21005116133E+02  0.47438771112E+01  0.22568225500E+02  0.51100000000E-03 0.  1.
        -11    1    3    3    0    0  0.61582225422E+01  0.73062231443E+01 -0.87576738883E+00  0.95953931808E+01  0.51100000000E-03 0. -1.
         12    1    3    3    0    0  0.12559805205E+02  0.47740741506E+01  0.79723279213E+01  0.15623652046E+02  0.00000000000E+00 0. -1.
</event>
<event>
 7    1  0.4876728E-009  0.4778727E+02  0.7816164E-02  0.1312668E+00
        -11   -1    0    0    0    0  0.00000000000E+00  0.00000000000E+00  0.45593999997E+02  0.45594000000E+02  0.51100000000E-03 0.  1.
         11   -1    0    0    0    0 -0.00000000000E+00 -0.00000000000E+00 -0.45593999997E+02  0.45594000000E+02  0.51100000000E-03 0. -1.
    9900012    2    1    2    0    0 -0.16480143345E+02 -0.39086486721E+02 -0.91801141159E+01  0.47787273462E+02  0.20000011021E+02 0.  0.
         12    1    1    2    0    0  0.16480143345E+02  0.39086486721E+02  0.91801141159E+01  0.43400726538E+02  0.00000000000E+00 0. -1.
         11    1    3    3    0    0  0.81985402751E+00 -0.13608696081E+02 -0.31081303835E+01  0.13983177192E+02  0.51100000000E-03 0.  1.
        -11    1    3    3    0    0 -0.15141409346E+02 -0.17468723068E+02  0.65131943787E+00  0.23126668154E+02  0.51100000000E-03 0. -1.
         12    1    3    3    0    0 -0.21585880265E+01 -0.80090675721E+01 -0.67233031703E+01  0.10677428116E+02  0.00000000000E+00 0. -1.
</event>
<event>
 7    1  0.4876728E-009  0.4778727E+02  0.7816164E-02  0.1312668E+00
        -11   -1    0    0    0    0  0.00000000000E+00  0.00000000000E+00  0.45593999997E+02  0.45594000000E+02  0.51100000000E-03 0. -1.
         11   -1    0    0    0    0 -0.00000000000E+00 -0.00000000000E+00 -0.45593999997E+02  0.45594000000E+02  0.51100000000E-03 0.  1.
    9900012    2    1    2    0    0 -0.31550364693E+02  0.79294224259E+01 -0.28728413031E+02  0.47787274574E+02  0.20000016092E+02 0.  0.
         12    1    1    2    0    0  0.31550364693E+02 -0.79294224259E+01  0.28728413031E+02  0.43400725426E+02  0.00000000000E+00 0. -1.
         11    1    3    3    0    0 -0.34750702858E+01 -0.35139552232E+01 -0.78578299150E+01  0.92827520723E+01  0.51100000000E-03 0. -1.
        -11    1    3    3    0    0 -0.18959350289E+02  0.88839540073E+01 -0.77534474021E+01  0.22327058675E+02  0.51100000000E-03 0.  1.
        -12    1    3    3    0    0 -0.91159441172E+01  0.25594236419E+01 -0.13117135714E+02  0.16177463826E+02  0.00000000000E+00 0.  1.
</event>
<event>
 7    1  0.4876728E-009  0.4778727E+02  0.7816164E-02  0.1312668E+00
        -11   -1    0    0    0    0  0.00000000000E+00  0.00000000000E+00  0.45593999997E+02  0.45594000000E+02  0.51100000000E-03 0.  1.
         11   -1    0    0    0    0 -0.00000000000E+00 -0.00000000000E+00 -0.45593999997E+02  0.45594000000E+02  0.51100000000E-03 0. -1.
    9900012    2    1    2    0    0 -0.29698319207E+02  0.30898065950E+02  0.68514702036E+01  0.47787270891E+02  0.19999999302E+02 0.  0.
         12    1    1    2    0    0  0.29698319207E+02 -0.30898065950E+02 -0.68514702036E+01  0.43400729109E+02  0.00000000000E+00 0. -1.
         11    1    3    3    0    0 -0.45328812534E+01  0.12480182938E+02 -0.48321971478E+01  0.14129830437E+02  0.51100000000E-03 0. -1.
        -11    1    3    3    0    0 -0.14527968348E+02  0.13511016849E+02  0.77587705736E+01  0.21302768874E+02  0.51100000000E-03 0.  1.
         12    1    3    3    0    0 -0.10637469606E+02  0.49068661628E+01  0.39248967777E+01  0.12354671581E+02  0.00000000000E+00 0. -1.
</event>
<event>
 7    1  0.4876728E-009  0.4778727E+02  0.7816164E-02  0.1312668E+00
        -11   -1    0    0    0    0  0.00000000000E+00  0.00000000000E+00  0.45593999997E+02  0.45594000000E+02  0.51100000000E-03 0. -1.
         11   -1    0    0    0    0 -0.00000000000E+00 -0.00000000000E+00 -0.45593999997E+02  0.45594000000E+02  0.51100000000E-03 0.  1.
    9900012    2    1    2    0    0  0.22292614303E+02  0.28362789512E+02 -0.24129122400E+02  0.47787273864E+02  0.20000012854E+02 0.  0.
         12    1    1    2    0    0 -0.22292614303E+02 -0.28362789512E+02  0.24129122400E+02  0.43400726136E+02  0.00000000000E+00 0. -1.
         11    1    3    3    0    0  0.11808947674E+01  0.11230638396E+02 -0.38426678302E+01  0.11928446988E+02  0.51100000000E-03 0. -1.
        -11    1    3    3    0    0  0.13654129671E+02  0.44783347166E+01 -0.67169039716E+01  0.15862141662E+02  0.51100000000E-03 0.  1.
        -12    1    3    3    0    0  0.74575898650E+01  0.12653816400E+02 -0.13569550598E+02  0.19996685213E+02  0.00000000000E+00 0.  1.
</event>
<event>
 7    1  0.4876728E-009  0.4778728E+02  0.7816164E-02  0.1312668E+00
        -11   -1    0    0    0    0  0.00000000000E+00  0.00000000000E+00  0.45593999997E+02  0.45594000000E+02  0.51100000000E-03 0.  1.
         11   -1    0    0    0    0 -0.00000000000E+00 -0.00000000000E+00 -0.45593999997E+02  0.45594000000E+02  0.51100000000E-03 0. -1.
    9900012    2    1    2    0    0  0.32272613089E+02 -0.20213863536E+02 -0.20820681875E+02  0.47787278481E+02  0.20000033906E+02 0.  0.
         12    1    1    2    0    0 -0.32272613089E+02  0.20213863536E+02  0.20820681875E+02  0.43400721519E+02  0.00000000000E+00 0. -1.
         11    1    3    3    0    0  0.28029744213E+01 -0.26497778750E+00 -0.10128657694E+02  0.10512686896E+02  0.51100000000E-03 0. -1.
        -11    1    3    3    0    0  0.16360101611E+02 -0.11279508120E+02 -0.44509264709E+01  0.20363962651E+02  0.51100000000E-03 0.  1.
         12    1    3    3    0    0  0.13109537056E+02 -0.86693776286E+01 -0.62410977106E+01  0.16910628934E+02  0.00000000000E+00 0. -1.
</event>
<event>
 7    1  0.4876728E-009  0.4778727E+02  0.7816164E-02  0.1312668E+00
        -11   -1    0    0    0    0  0.00000000000E+00  0.00000000000E+00  0.45593999997E+02  0.45594000000E+02  0.51100000000E-03 0.  1.
         11   -1    0    0    0    0 -0.00000000000E+00 -0.00000000000E+00 -0.45593999997E+02  0.45594000000E+02  0.51100000000E-03 0. -1.
    9900012    2    1    2    0    0 -0.36749593553E+02 -0.10537241677E+02  0.20544031860E+02  0.47787270357E+02  0.19999996865E+02 0.  0.
         12    1    1    2    0    0  0.36749593553E+02  0.10537241677E+02 -0.20544031860E+02  0.43400729643E+02  0.00000000000E+00 0. -1.
         11    1    3    3    0    0 -0.10619797057E+02  0.25190353146E+01 -0.61201259695E+00  0.10931614160E+02  0.51100000000E-03 0. -1.
        -11    1    3    3    0    0 -0.65589846054E+01 -0.72210179032E+01  0.70071833041E+01  0.12010994827E+02  0.51100000000E-03 0.  1.
         12    1    3    3    0    0 -0.19570811890E+02 -0.58352590879E+01  0.14148861153E+02  0.24844661370E+02  0.00000000000E+00 0. -1.
</event>
<event>
 7    1  0.4876728E-009  0.4778727E+02  0.7816164E-02  0.1312668E+00
        -11   -1    0    0    0    0  0.00000000000E+00  0.00000000000E+00  0.45593999997E+02  0.45594000000E+02  0.51100000000E-03 0. -1.
         11   -1    0    0    0    0 -0.00000000000E+00 -0.00000000000E+00 -0.45593999997E+02  0.45594000000E+02  0.51100000000E-03 0.  1.
    9900012    2    1    2    0    0 -0.29539726591E+02  0.29663259779E+02 -0.11450735563E+02  0.47787265298E+02  0.19999973798E+02 0.  0.
         12    1    1    2    0    0  0.29539726591E+02 -0.29663259779E+02  0.11450735563E+02  0.43400734702E+02  0.00000000000E+00 0. -1.
         11    1    3    3    0    0 -0.54616156895E+01  0.17391249090E+01 -0.74448551538E+01  0.93957261514E+01  0.51100000000E-03 0. -1.
        -11    1    3    3    0    0 -0.21233817195E+02  0.21343387724E+02  0.14574308097E+00  0.30107082780E+02  0.51100000000E-03 0.  1.
        -12    1    3    3    0    0 -0.28442937063E+01  0.65807471457E+01 -0.41516234898E+01  0.82844563662E+01  0.00000000000E+00 0.  1.
</event>
<event>
 7    1  0.4876728E-009  0.4778726E+02  0.7816164E-02  0.1312668E+00
        -11   -1    0    0    0    0  0.00000000000E+00  0.00000000000E+00  0.45593999997E+02  0.45594000000E+02  0.51100000000E-03 0. -1.
         11   -1    0    0    0    0 -0.00000000000E+00 -0.00000000000E+00 -0.45593999997E+02  0.45594000000E+02  0.51100000000E-03 0.  1.
    9900012    2    1    2    0    0  0.22844228475E+02 -0.30820189749E+02  0.20294861798E+02  0.47787259382E+02  0.19999946826E+02 0.  0.
         12    1    1    2    0    0 -0.22844228475E+02  0.30820189749E+02 -0.20294861798E+02  0.43400740618E+02  0.00000000000E+00 0. -1.
         11    1    3    3    0    0 -0.14997351313E+01 -0.10885061491E+01  0.62413409843E+01  0.65106365775E+01  0.51100000000E-03 0. -1.
        -11    1    3    3    0    0  0.97078258815E+01 -0.15982016651E+02  0.59715455718E+01  0.19629724816E+02  0.51100000000E-03 0.  1.
         12    1    3    3    0    0  0.14636137725E+02 -0.13749666949E+02  0.80819752416E+01  0.21646897988E+02  0.00000000000E+00 0. -1.
</event>
<event>
 7    1  0.4876728E-009  0.4778729E+02  0.7816164E-02  0.1312668E+00
        -11   -1    0    0    0    0  0.00000000000E+00  0.00000000000E+00  0.45593999997E+02  0.45594000000E+02  0.51100000000E-03 0.  1.
         11   -1    0    0    0    0 -0.00000000000E+00 -0.00000000000E+00 -0.45593999997E+02  0.45594000000E+02  0.51100000000E-03 0. -1.
    9900012    2    1    2    0    0 -0.11832361953E+02  0.39222992169E+02  0.14323898612E+02  0.47787286002E+02  0.20000068199E+02 0.  0.
         12    1    1    2    0    0  0.11832361953E+02 -0.39222992169E+02 -0.14323898612E+02  0.43400713998E+02  0.00000000000E+00 0. -1.
         11    1    3    3    0    0  0.14919259544E+01  0.24376452476E+02  0.80066270531E+01  0.25701038022E+02  0.51100000000E-03 0. -1.
        -11    1    3    3    0    0 -0.83556346548E+00  0.30438277523E+01  0.34309734782E+01  0.46620417158E+01  0.51100000000E-03 0.  1.
         12    1    3    3    0    0 -0.12488724442E+02  0.11802711940E+02  0.28862980808E+01  0.17424206265E+02  0.00000000000E+00 0. -1.
</event>
<event>
 7    1  0.4876728E-009  0.4778727E+02  0.7816164E-02  0.1312668E+00
        -11   -1    0    0    0    0  0.00000000000E+00  0.00000000000E+00  0.45593999997E+02  0.45594000000E+02  0.51100000000E-03 0. -1.
         11   -1    0    0    0    0 -0.00000000000E+00 -0.00000000000E+00 -0.45593999997E+02  0.45594000000E+02  0.51100000000E-03 0.  1.
    9900012    2    1    2    0    0  0.33983861702E+02 -0.56331305531E+01 -0.26400533739E+02  0.47787271922E+02  0.20000004000E+02 0.  0.
         12    1    1    2    0    0 -0.33983861702E+02  0.56331305531E+01  0.26400533739E+02  0.43400728078E+02  0.00000000000E+00 0. -1.
         11    1    3    3    0    0  0.30091383047E+02  0.12333755445E+01 -0.23941547681E+02  0.38473500679E+02  0.51100000000E-03 0. -1.
        -11    1    3    3    0    0  0.39381899458E+01 -0.55786111323E+01 -0.34849950088E+01  0.76665137245E+01  0.51100000000E-03 0.  1.
         12    1    3    3    0    0 -0.45711290039E-01 -0.12878949652E+01  0.10260089511E+01  0.16472575182E+01  0.00000000000E+00 0. -1.
</event>
<event>
 7    1  0.4876728E-009  0.4778727E+02  0.7816164E-02  0.1312668E+00
        -11   -1    0    0    0    0  0.00000000000E+00  0.00000000000E+00  0.45593999997E+02  0.45594000000E+02  0.51100000000E-03 0.  1.
         11   -1    0    0    0    0 -0.00000000000E+00 -0.00000000000E+00 -0.45593999997E+02  0.45594000000E+02  0.51100000000E-03 0. -1.
    9900012    2    1    2    0    0 -0.16041986776E+02 -0.28010251452E+02  0.29012134585E+02  0.47787268678E+02  0.19999989210E+02 0.  0.
         12    1    1    2    0    0  0.16041986776E+02  0.28010251452E+02 -0.29012134585E+02  0.43400731322E+02  0.00000000000E+00 0. -1.
         11    1    3    3    0    0 -0.24732414735E+01  0.82992146728E+00  0.76984870462E+01  0.81284928548E+01  0.51100000000E-03 0. -1.
        -11    1    3    3    0    0 -0.59631768954E+01 -0.13871173887E+02  0.41730836402E+01  0.15664723777E+02  0.51100000000E-03 0.  1.
         12    1    3    3    0    0 -0.76055684069E+01 -0.14968999033E+02  0.17140563898E+02  0.23994052046E+02  0.00000000000E+00 0. -1.
</event>
<event>
 7    1  0.4876728E-009  0.4778727E+02  0.7816164E-02  0.1312668E+00
        -11   -1    0    0    0    0  0.00000000000E+00  0.00000000000E+00  0.45593999997E+02  0.45594000000E+02  0.51100000000E-03 0.  1.
         11   -1    0    0    0    0 -0.00000000000E+00 -0.00000000000E+00 -0.45593999997E+02  0.45594000000E+02  0.51100000000E-03 0. -1.
    9900012    2    1    2    0    0 -0.11057264234E+01  0.25126872717E+02  0.35370053842E+02  0.47787273367E+02  0.20000010591E+02 0.  0.
         12    1    1    2    0    0  0.11057264234E+01 -0.25126872717E+02 -0.35370053842E+02  0.43400726633E+02  0.00000000000E+00 0. -1.
         11    1    3    3    0    0  0.14656658382E+01 -0.13862479621E+01  0.81956171890E+01  0.84402607265E+01  0.51100000000E-03 0. -1.
        -11    1    3    3    0    0 -0.21188600819E+01  0.97159667398E+01  0.17024776869E+02  0.19716303037E+02  0.51100000000E-03 0.  1.
         12    1    3    3    0    0 -0.45253217968E+00  0.16797153939E+02  0.10149659784E+02  0.19630709604E+02  0.00000000000E+00 0. -1.
</event>
<event>
 7    1  0.4876728E-009  0.4778727E+02  0.7816164E-02  0.1312668E+00
        -11   -1    0    0    0    0  0.00000000000E+00  0.00000000000E+00  0.45593999997E+02  0.45594000000E+02  0.51100000000E-03 0. -1.
         11   -1    0    0    0    0 -0.00000000000E+00 -0.00000000000E+00 -0.45593999997E+02  0.45594000000E+02  0.51100000000E-03 0.  1.
    9900012    2    1    2    0    0 -0.24366205008E+02  0.29729679655E+02 -0.20150863066E+02  0.47787273264E+02  0.20000010120E+02 0.  0.
         12    1    1    2    0    0  0.24366205008E+02 -0.29729679655E+02  0.20150863066E+02  0.43400726736E+02  0.00000000000E+00 0. -1.
         11    1    3    3    0    0  0.12171124453E+01 -0.53721592951E+00 -0.35486901886E+01  0.37898767757E+01  0.51100000000E-03 0. -1.
        -11    1    3    3    0    0 -0.25940392860E+02  0.27586871673E+02 -0.14409518635E+02  0.40516338655E+02  0.51100000000E-03 0.  1.
         12    1    3    3    0    0  0.35707540678E+00  0.26800239115E+01 -0.21926542420E+01  0.34810578330E+01  0.00000000000E+00 0. -1.
</event>
<event>
 7    1  0.4876728E-009  0.4778727E+02  0.7816164E-02  0.1312668E+00
        -11   -1    0    0    0    0  0.00000000000E+00  0.00000000000E+00  0.45593999997E+02  0.45594000000E+02  0.51100000000E-03 0.  1.
         11   -1    0    0    0    0 -0.00000000000E+00 -0.00000000000E+00 -0.45593999997E+02  0.45594000000E+02  0.51100000000E-03 0. -1.
    9900012    2    1    2    0    0  0.23475313137E+01  0.10061503137E+02  0.42153034646E+02  0.47787273296E+02  0.20000010264E+02 0.  0.
         12    1    1    2    0    0 -0.23475313137E+01 -0.10061503137E+02 -0.42153034646E+02  0.43400726704E+02  0.00000000000E+00 0. -1.
         11    1    3    3    0    0 -0.31222024442E+01  0.45282907777E+01  0.31905629220E+02  0.32376268186E+02  0.51100000000E-03 0. -1.
        -11    1    3    3    0    0  0.35193687445E+01  0.15959667942E+01  0.10316630017E+02  0.11016620241E+02  0.51100000000E-03 0.  1.
         12    1    3    3    0    0  0.19503650135E+01  0.39372455648E+01 -0.69224591980E-01  0.43943848679E+01  0.00000000000E+00 0. -1.
</event>
<event>
 7    1  0.4876728E-009  0.4778726E+02  0.7816164E-02  0.1312668E+00
        -11   -1    0    0    0    0  0.00000000000E+00  0.00000000000E+00  0.45593999997E+02  0.45594000000E+02  0.51100000000E-03 0.  1.
         11   -1    0    0    0    0 -0.00000000000E+00 -0.00000000000E+00 -0.45593999997E+02  0.45594000000E+02  0.51100000000E-03 0. -1.
    9900012    2    1    2    0    0 -0.23271065039E+02  0.16518280260E+02  0.32699048419E+02  0.47787264772E+02  0.19999971400E+02 0.  0.
         12    1    1    2    0    0  0.23271065039E+02 -0.16518280260E+02 -0.32699048419E+02  0.43400735228E+02  0.00000000000E+00 0. -1.
         11    1    3    3    0    0  0.25917223338E+01  0.39322042629E+01  0.84051184071E+01  0.96345872106E+01  0.51100000000E-03 0. -1.
        -11    1    3    3    0    0 -0.10884042693E+02  0.19816800301E+01  0.93876231095E+01  0.14509200839E+02  0.51100000000E-03 0.  1.
         12    1    3    3    0    0 -0.14978744680E+02  0.10604395967E+02  0.14906306903E+02  0.23643476722E+02  0.00000000000E+00 0. -1.
</event>
<event>
 7    1  0.4876728E-009  0.4778727E+02  0.7816164E-02  0.1312668E+00
        -11   -1    0    0    0    0  0.00000000000E+00  0.00000000000E+00  0.45593999997E+02  0.45594000000E+02  0.51100000000E-03 0. -1.
         11   -1    0    0    0    0 -0.00000000000E+00 -0.00000000000E+00 -0.45593999997E+02  0.45594000000E+02  0.51100000000E-03 0.  1.
    9900012    2    1    2    0    0  0.40658912153E+02  0.55988140470E+01  0.14111314827E+02  0.47787273481E+02  0.20000011110E+02 0.  0.
         12    1    1    2    0    0 -0.40658912153E+02 -0.55988140470E+01 -0.14111314827E+02  0.43400726519E+02  0.00000000000E+00 0. -1.
         11    1    3    3    0    0  0.15384754246E+02  0.73717884709E+01  0.14587952474E+02  0.22446431478E+02  0.51100000000E-03 0. -1.
        -11    1    3    3    0    0  0.13629226179E+02 -0.98792385590E+00 -0.26858517131E+00  0.13667623716E+02  0.51100000000E-03 0.  1.
         12    1    3    3    0    0  0.11644931728E+02 -0.78505056797E+00 -0.20805247483E+00  0.11673218287E+02  0.00000000000E+00 0. -1.
</event>
<event>
 7    1  0.4876728E-009  0.4778727E+02  0.7816164E-02  0.1312668E+00
        -11   -1    0    0    0    0  0.00000000000E+00  0.00000000000E+00  0.45593999997E+02  0.45594000000E+02  0.51100000000E-03 0. -1.
         11   -1    0    0    0    0 -0.00000000000E+00 -0.00000000000E+00 -0.45593999997E+02  0.45594000000E+02  0.51100000000E-03 0.  1.
    9900012    2    1    2    0    0 -0.31281919655E+02 -0.28880038106E+02  0.84266340995E+01  0.47787271198E+02  0.20000000700E+02 0.  0.
         12    1    1    2    0    0  0.31281919655E+02  0.28880038106E+02 -0.84266340995E+01  0.43400728802E+02  0.00000000000E+00 0. -1.
         11    1    3    3    0    0 -0.57504216287E+01 -0.13503930720E+02 -0.21179759109E+01  0.14829339703E+02  0.51100000000E-03 0. -1.
        -11    1    3    3    0    0 -0.17585693860E+02 -0.62695749870E+01  0.35830103522E+01  0.19010580278E+02  0.51100000000E-03 0.  1.
         12    1    3    3    0    0 -0.79458041667E+01 -0.91065323990E+01  0.69615996582E+01  0.13947351218E+02  0.00000000000E+00 0. -1.
</event>
<event>
 7    1  0.4876728E-009  0.4778727E+02  0.7816164E-02  0.1312668E+00
        -11   -1    0    0    0    0  0.00000000000E+00  0.00000000000E+00  0.45593999997E+02  0.45594000000E+02  0.51100000000E-03 0.  1.
         11   -1    0    0    0    0 -0.00000000000E+00 -0.00000000000E+00 -0.45593999997E+02  0.45594000000E+02  0.51100000000E-03 0. -1.
    9900012    2    1    2    0    0 -0.50793372904E+01  0.40997756948E+02  0.13304423385E+02  0.47787269319E+02  0.19999992132E+02 0.  0.
         12    1    1    2    0    0  0.50793372904E+01 -0.40997756948E+02 -0.13304423385E+02  0.43400730681E+02  0.00000000000E+00 0. -1.
         11    1    3    3    0    0 -0.16930533056E+01  0.46504972727E+01  0.33215223753E+01  0.59603746132E+01  0.51100000000E-03 0. -1.
        -11    1    3    3    0    0 -0.11169724894E+00  0.30023792822E+02  0.14553416463E+02  0.33365289489E+02  0.51100000000E-03 0.  1.
        -12    1    3    3    0    0 -0.32745867358E+01  0.63234668531E+01 -0.45705154530E+01  0.84616052164E+01  0.00000000000E+00 0.  1.
</event>
<event>
 7    1  0.4876728E-009  0.4778727E+02  0.7816164E-02  0.1312668E+00
        -11   -1    0    0    0    0  0.00000000000E+00  0.00000000000E+00  0.45593999997E+02  0.45594000000E+02  0.51100000000E-03 0. -1.
         11   -1    0    0    0    0 -0.00000000000E+00 -0.00000000000E+00 -0.45593999997E+02  0.45594000000E+02  0.51100000000E-03 0.  1.
    9900012    2    1    2    0    0  0.23800691832E+02  0.35520645551E+02 -0.74454217415E+01  0.47787268474E+02  0.19999988281E+02 0.  0.
         12    1    1    2    0    0 -0.23800691832E+02 -0.35520645551E+02  0.74454217415E+01  0.43400731526E+02  0.00000000000E+00 0. -1.
         11    1    3    3    0    0  0.35059173768E+01  0.11166784690E+02  0.45056012453E+01  0.12541490334E+02  0.51100000000E-03 0. -1.
        -11    1    3    3    0    0  0.11570461442E+02  0.15318274827E+02 -0.12086476909E+02  0.22684974013E+02  0.51100000000E-03 0.  1.
        -12    1    3    3    0    0  0.87243130133E+01  0.90355860345E+01  0.13545392194E+00  0.12560804127E+02  0.00000000000E+00 0.  1.
</event>
<event>
 7    1  0.4876728E-009  0.4778727E+02  0.7816164E-02  0.1312668E+00
        -11   -1    0    0    0    0  0.00000000000E+00  0.00000000000E+00  0.45593999997E+02  0.45594000000E+02  0.51100000000E-03 0. -1.
         11   -1    0    0    0    0 -0.00000000000E+00 -0.00000000000E+00 -0.45593999997E+02  0.45594000000E+02  0.51100000000E-03 0.  1.
    9900012    2    1    2    0    0  0.28573277921E+02 -0.32044911808E+02 -0.63493868417E+01  0.47787270776E+02  0.19999998776E+02 0.  0.
         12    1    1    2    0    0 -0.28573277921E+02  0.32044911808E+02  0.63493868417E+01  0.43400729224E+02  0.00000000000E+00 0. -1.
         11    1    3    3    0    0  0.39787622504E+01 -0.63726448885E+01 -0.58550222845E+01  0.95248327089E+01  0.51100000000E-03 0. -1.
        -11    1    3    3    0    0  0.13468106882E+02 -0.13058739017E+02  0.67664762758E+01  0.19942561750E+02  0.51100000000E-03 0.  1.
        -12    1    3    3    0    0  0.11126408788E+02 -0.12613527903E+02 -0.72608408329E+01  0.18319876317E+02  0.00000000000E+00 0.  1.
</event>
<event>
 7    1  0.4876728E-009  0.4778727E+02  0.7816164E-02  0.1312668E+00
        -11   -1    0    0    0    0  0.00000000000E+00  0.00000000000E+00  0.45593999997E+02  0.45594000000E+02  0.51100000000E-03 0.  1.
         11   -1    0    0    0    0 -0.00000000000E+00 -0.00000000000E+00 -0.45593999997E+02  0.45594000000E+02  0.51100000000E-03 0. -1.
    9900012    2    1    2    0    0 -0.27746720794E+02 -0.78319167745E+01  0.32440774361E+02  0.47787271016E+02  0.19999999871E+02 0.  0.
         12    1    1    2    0    0  0.27746720794E+02  0.78319167745E+01 -0.32440774361E+02  0.43400728984E+02  0.00000000000E+00 0. -1.
         11    1    3    3    0    0 -0.45740536771E+00 -0.29698311523E+01  0.31538660907E+01  0.43561437445E+01  0.51100000000E-03 0. -1.
        -11    1    3    3    0    0 -0.28675818063E+02 -0.18354988011E+01  0.26523578808E+02  0.39104626714E+02  0.51100000000E-03 0.  1.
        -12    1    3    3    0    0  0.13865026374E+01 -0.30265868211E+01  0.27633294631E+01  0.43265005572E+01  0.00000000000E+00 0.  1.
</event>
<event>
 7    1  0.4876728E-009  0.4778727E+02  0.7816164E-02  0.1312668E+00
        -11   -1    0    0    0    0  0.00000000000E+00  0.00000000000E+00  0.45593999997E+02  0.45594000000E+02  0.51100000000E-03 0.  1.
         11   -1    0    0    0    0 -0.00000000000E+00 -0.00000000000E+00 -0.45593999997E+02  0.45594000000E+02  0.51100000000E-03 0. -1.
    9900012    2    1    2    0    0  0.21907914284E+02  0.19045185692E+02  0.32263716079E+02  0.47787272108E+02  0.20000004849E+02 0.  0.
         12    1    1    2    0    0 -0.21907914284E+02 -0.19045185692E+02 -0.32263716079E+02  0.43400727892E+02  0.00000000000E+00 0. -1.
         11    1    3    3    0    0  0.10977289044E+01  0.92527210807E+01  0.44249973059E+01  0.10314962800E+02  0.51100000000E-03 0. -1.
        -11    1    3    3    0    0  0.16738486436E+02  0.84719696942E+01  0.27347435523E+02  0.33163736650E+02  0.51100000000E-03 0.  1.
         12    1    3    3    0    0  0.40716989441E+01  0.13204949167E+01  0.49128325044E+00  0.43085726579E+01  0.00000000000E+00 0. -1.
</event>
<event>
 7    1  0.4876728E-009  0.4778726E+02  0.7816164E-02  0.1312668E+00
        -11   -1    0    0    0    0  0.00000000000E+00  0.00000000000E+00  0.45593999997E+02  0.45594000000E+02  0.51100000000E-03 0. -1.
         11   -1    0    0    0    0 -0.00000000000E+00 -0.00000000000E+00 -0.45593999997E+02  0.45594000000E+02  0.51100000000E-03 0.  1.
    9900012    2    1    2    0    0  0.22389390073E+02  0.14256960424E+02 -0.34337707789E+02  0.47787264009E+02  0.19999967922E+02 0.  0.
         12    1    1    2    0    0 -0.22389390073E+02 -0.14256960424E+02  0.34337707789E+02  0.43400735991E+02  0.00000000000E+00 0. -1.
         11    1    3    3    0    0  0.14384743315E+02  0.82710690775E+01 -0.24720722330E+02  0.29773235241E+02  0.51100000000E-03 0. -1.
        -11    1    3    3    0    0  0.62070772310E+01  0.72495548546E+01 -0.15695250072E+01  0.96719833721E+01  0.51100000000E-03 0.  1.
         12    1    3    3    0    0  0.17975695270E+01 -0.12636635080E+01 -0.80474604519E+01  0.83420453961E+01  0.00000000000E+00 0. -1.
</event>
<event>
 7    1  0.4876728E-009  0.4778727E+02  0.7816164E-02  0.1312668E+00
        -11   -1    0    0    0    0  0.00000000000E+00  0.00000000000E+00  0.45593999997E+02  0.45594000000E+02  0.51100000000E-03 0. -1.
         11   -1    0    0    0    0 -0.00000000000E+00 -0.00000000000E+00 -0.45593999997E+02  0.45594000000E+02  0.51100000000E-03 0.  1.
    9900012    2    1    2    0    0  0.20206168566E+02 -0.38325696064E+02  0.25446332244E+01  0.47787269762E+02  0.19999994155E+02 0.  0.
         12    1    1    2    0    0 -0.20206168566E+02  0.38325696064E+02 -0.25446332244E+01  0.43400730238E+02  0.00000000000E+00 0. -1.
         11    1    3    3    0    0  0.49636605709E+01 -0.25073859387E+02 -0.10238358008E+00  0.25560650099E+02  0.51100000000E-03 0. -1.
        -11    1    3    3    0    0  0.43389815287E+01 -0.13157967261E+00  0.28013190503E+01  0.51663780929E+01  0.51100000000E-03 0.  1.
         12    1    3    3    0    0  0.10903526467E+02 -0.13120257004E+02 -0.15430224578E+00  0.17060241571E+02  0.00000000000E+00 0. -1.
</event>
<event>
 7    1  0.4876728E-009  0.4778726E+02  0.7816164E-02  0.1312668E+00
        -11   -1    0    0    0    0  0.00000000000E+00  0.00000000000E+00  0.45593999997E+02  0.45594000000E+02  0.51100000000E-03 0. -1.
         11   -1    0    0    0    0 -0.00000000000E+00 -0.00000000000E+00 -0.45593999997E+02  0.45594000000E+02  0.51100000000E-03 0.  1.
    9900012    2    1    2    0    0 -0.10832607989E+02 -0.16675995046E+02 -0.38577061039E+02  0.47787264464E+02  0.19999969998E+02 0.  0.
         12    1    1    2    0    0  0.10832607989E+02  0.16675995046E+02  0.38577061039E+02  0.43400735536E+02  0.00000000000E+00 0. -1.
         11    1    3    3    0    0 -0.12112756025E+02 -0.72525275849E+01 -0.15057401829E+02  0.20640817934E+02  0.51100000000E-03 0.  1.
        -11    1    3    3    0    0  0.44252765456E+01 -0.90703460858E+01 -0.20071924833E+02  0.22466339653E+02  0.51100000000E-03 0. -1.
         12    1    3    3    0    0 -0.31451285095E+01 -0.35312137514E+00 -0.34477343775E+01  0.46801068775E+01  0.00000000000E+00 0. -1.
</event>
<event>
 7    1  0.4876728E-009  0.4778727E+02  0.7816164E-02  0.1312668E+00
        -11   -1    0    0    0    0  0.00000000000E+00  0.00000000000E+00  0.45593999997E+02  0.45594000000E+02  0.51100000000E-03 0.  1.
         11   -1    0    0    0    0 -0.00000000000E+00 -0.00000000000E+00 -0.45593999997E+02  0.45594000000E+02  0.51100000000E-03 0. -1.
    9900012    2    1    2    0    0 -0.19099714152E+02 -0.20773795379E+02  0.32973830484E+02  0.47787272449E+02  0.20000006405E+02 0.  0.
         12    1    1    2    0    0  0.19099714152E+02  0.20773795379E+02 -0.32973830484E+02  0.43400727551E+02  0.00000000000E+00 0. -1.
         11    1    3    3    0    0 -0.24267354136E+01 -0.13558060123E+01  0.26363302979E+01  0.38311215605E+01  0.51100000000E-03 0. -1.
        -11    1    3    3    0    0 -0.36676398152E+01 -0.18377777851E+02  0.18675472959E+02  0.26456900632E+02  0.51100000000E-03 0.  1.
        -12    1    3    3    0    0 -0.13005338923E+02 -0.10402115162E+01  0.11662027227E+02  0.17499250257E+02  0.00000000000E+00 0.  1.
</event>
<event>
 7    1  0.4876728E-009  0.4778727E+02  0.7816164E-02  0.1312668E+00
        -11   -1    0    0    0    0  0.00000000000E+00  0.00000000000E+00  0.45593999997E+02  0.45594000000E+02  0.51100000000E-03 0.  1.
         11   -1    0    0    0    0 -0.00000000000E+00 -0.00000000000E+00 -0.45593999997E+02  0.45594000000E+02  0.51100000000E-03 0. -1.
    9900012    2    1    2    0    0 -0.13259745644E+02 -0.20489690223E+01  0.41274737018E+02  0.47787273687E+02  0.20000012049E+02 0.  0.
         12    1    1    2    0    0  0.13259745644E+02  0.20489690223E+01 -0.41274737018E+02  0.43400726313E+02  0.00000000000E+00 0. -1.
         11    1    3    3    0    0 -0.40737364310E+01  0.38772748588E+01  0.49321591748E+01  0.74802929907E+01  0.51100000000E-03 0. -1.
        -11    1    3    3    0    0 -0.11066574389E+02 -0.66375463708E+01  0.19744210116E+02  0.23587283097E+02  0.51100000000E-03 0.  1.
        -12    1    3    3    0    0  0.18805651763E+01  0.71130248975E+00  0.16598367727E+02  0.16719697600E+02  0.00000000000E+00 0.  1.
</event>
<event>
 7    1  0.4876728E-009  0.4778727E+02  0.7816164E-02  0.1312668E+00
        -11   -1    0    0    0    0  0.00000000000E+00  0.00000000000E+00  0.45593999997E+02  0.45594000000E+02  0.51100000000E-03 0.  1.
         11   -1    0    0    0    0 -0.00000000000E+00 -0.00000000000E+00 -0.45593999997E+02  0.45594000000E+02  0.51100000000E-03 0. -1.
    9900012    2    1    2    0    0  0.12511976224E+02  0.40153144927E+01  0.41363640366E+02  0.47787273695E+02  0.20000012084E+02 0.  0.
         12    1    1    2    0    0 -0.12511976224E+02 -0.40153144927E+01 -0.41363640366E+02  0.43400726305E+02  0.00000000000E+00 0. -1.
         11    1    3    3    0    0  0.29404406954E+01 -0.51941185484E+01  0.81601508606E+01  0.10110050510E+02  0.51100000000E-03 0. -1.
        -11    1    3    3    0    0  0.58931007091E+01  0.71309742174E+01  0.31961590827E+02  0.33273453649E+02  0.51100000000E-03 0.  1.
         12    1    3    3    0    0  0.36784348194E+01  0.20784588236E+01  0.12418986777E+01  0.44037695362E+01  0.00000000000E+00 0. -1.
</event>
<event>
 7    1  0.4876728E-009  0.4778728E+02  0.7816164E-02  0.1312668E+00
        -11   -1    0    0    0    0  0.00000000000E+00  0.00000000000E+00  0.45593999997E+02  0.45594000000E+02  0.51100000000E-03 0.  1.
         11   -1    0    0    0    0 -0.00000000000E+00 -0.00000000000E+00 -0.45593999997E+02  0.45594000000E+02  0.51100000000E-03 0. -1.
    9900012    2    1    2    0    0 -0.32602709885E+02 -0.17558670395E+02  0.22635783771E+02  0.47787282208E+02  0.20000050901E+02 0.  0.
         12    1    1    2    0    0  0.32602709885E+02  0.17558670395E+02 -0.22635783771E+02  0.43400717792E+02  0.00000000000E+00 0. -1.
         11    1    3    3    0    0 -0.13071093469E+02 -0.14312940336E+02  0.37925988590E+01  0.19750887370E+02  0.51100000000E-03 0. -1.
        -11    1    3    3    0    0 -0.11769410673E+02 -0.40561432073E+01  0.14478328320E+02  0.19094326814E+02  0.51100000000E-03 0.  1.
         12    1    3    3    0    0 -0.77622057430E+01  0.81041314821E+00  0.43648565923E+01  0.89420680236E+01  0.00000000000E+00 0. -1.
</event>
<event>
 7    1  0.4876728E-009  0.4778726E+02  0.7816164E-02  0.1312668E+00
        -11   -1    0    0    0    0  0.00000000000E+00  0.00000000000E+00  0.45593999997E+02  0.45594000000E+02  0.51100000000E-03 0. -1.
         11   -1    0    0    0    0 -0.00000000000E+00 -0.00000000000E+00 -0.45593999997E+02  0.45594000000E+02  0.51100000000E-03 0.  1.
    9900012    2    1    2    0    0 -0.24867050212E+02  0.31768873314E+02 -0.15999762673E+02  0.47787263791E+02  0.19999966927E+02 0.  0.
         12    1    1    2    0    0  0.24867050212E+02 -0.31768873314E+02  0.15999762673E+02  0.43400736209E+02  0.00000000000E+00 0. -1.
         11    1    3    3    0    0 -0.14930231984E+02  0.26256625450E+02 -0.30650376172E+01  0.30359786938E+02  0.51100000000E-03 0. -1.
        -11    1    3    3    0    0 -0.88824213341E+01  0.38259266673E+01 -0.10337490751E+02  0.14156229685E+02  0.51100000000E-03 0.  1.
        -12    1    3    3    0    0 -0.10543968945E+01  0.16863211975E+01 -0.25972343052E+01  0.32712471671E+01  0.00000000000E+00 0.  1.
</event>
<event>
 7    1  0.4876728E-009  0.4778727E+02  0.7816164E-02  0.1312668E+00
        -11   -1    0    0    0    0  0.00000000000E+00  0.00000000000E+00  0.45593999997E+02  0.45594000000E+02  0.51100000000E-03 0.  1.
         11   -1    0    0    0    0 -0.00000000000E+00 -0.00000000000E+00 -0.45593999997E+02  0.45594000000E+02  0.51100000000E-03 0. -1.
    9900012    2    1    2    0    0 -0.77982796679E+01  0.17667619443E+02  0.38867280612E+02  0.47787269076E+02  0.19999991024E+02 0.  0.
         12    1    1    2    0    0  0.77982796679E+01 -0.17667619443E+02 -0.38867280612E+02  0.43400730924E+02  0.00000000000E+00 0. -1.
         11    1    3    3    0    0  0.47382034517E+01  0.53210349862E+01  0.54412392294E+01  0.89649913489E+01  0.51100000000E-03 0. -1.
        -11    1    3    3    0    0 -0.98207742652E+01  0.48755604269E+01  0.13649715970E+02  0.17508096497E+02  0.51100000000E-03 0.  1.
         12    1    3    3    0    0 -0.27157088544E+01  0.74710240297E+01  0.19776325414E+02  0.21314181230E+02  0.00000000000E+00 0. -1.
</event>
<event>
 7    1  0.4876728E-009  0.4778732E+02  0.7816164E-02  0.1312668E+00
        -11   -1    0    0    0    0  0.00000000000E+00  0.00000000000E+00  0.45593999997E+02  0.45594000000E+02  0.51100000000E-03 0. -1.
         11   -1    0    0    0    0 -0.00000000000E+00 -0.00000000000E+00 -0.45593999997E+02  0.45594000000E+02  0.51100000000E-03 0.  1.
    9900012    2    1    2    0    0  0.27047158293E+02 -0.33941309589E+02 -0.23976885098E+00  0.47787323076E+02  0.20000237232E+02 0.  0.
         12    1    1    2    0    0 -0.27047158293E+02  0.33941309589E+02  0.23976885098E+00  0.43400676924E+02  0.00000000000E+00 0. -1.
         11    1    3    3    0    0  0.87590294355E+01 -0.86206634227E+01  0.55605693709E+01  0.13489120301E+02  0.51100000000E-03 0. -1.
        -11    1    3    3    0    0  0.93510422639E+01 -0.22471257878E+02 -0.52676564838E+01  0.24902763444E+02  0.51100000000E-03 0.  1.
        -12    1    3    3    0    0  0.89370865936E+01 -0.28493882885E+01 -0.53268173806E+00  0.93954393316E+01  0.00000000000E+00 0.  1.
</event>
<event>
 7    1  0.6102381E-009  0.4778727E+02  0.7816164E-02  0.1312668E+00
        -11   -1    0    0    0    0  0.00000000000E+00  0.00000000000E+00  0.45593999997E+02  0.45594000000E+02  0.51100000000E-03 0. -1.
         11   -1    0    0    0    0 -0.00000000000E+00 -0.00000000000E+00 -0.45593999997E+02  0.45594000000E+02  0.51100000000E-03 0.  1.
    9900012    2    1    2    0    0 -0.27958671424E+02  0.63006384255E+01 -0.32591991859E+02  0.47787270908E+02  0.19999999379E+02 0.  0.
         12    1    1    2    0    0  0.27958671424E+02 -0.63006384255E+01  0.32591991859E+02  0.43400729092E+02  0.00000000000E+00 0. -1.
         11    1    3    3    0    0 -0.31706614038E+01  0.20868506334E+01  0.17269856743E+01  0.41701941303E+01  0.51100000000E-03 0. -1.
        -11    1    3    3    0    0 -0.21808391566E+02  0.41295685959E+01 -0.23208802873E+02  0.32113981543E+02  0.51100000000E-03 0.  1.
         12    1    3    3    0    0 -0.29796184540E+01  0.84219196271E-01 -0.11110174660E+02  0.11503095235E+02  0.00000000000E+00 0. -1.
</event>
<event>
 7    1  0.4876728E-009  0.4778727E+02  0.7816164E-02  0.1312668E+00
        -11   -1    0    0    0    0  0.00000000000E+00  0.00000000000E+00  0.45593999997E+02  0.45594000000E+02  0.51100000000E-03 0. -1.
         11   -1    0    0    0    0 -0.00000000000E+00 -0.00000000000E+00 -0.45593999997E+02  0.45594000000E+02  0.51100000000E-03 0.  1.
    9900012    2    1    2    0    0 -0.34541683037E+02 -0.25918631023E+02  0.43266583896E+01  0.47787271044E+02  0.19999999997E+02 0.  0.
         12    1    1    2    0    0  0.34541683037E+02  0.25918631023E+02 -0.43266583896E+01  0.43400728956E+02  0.00000000000E+00 0. -1.
         11    1    3    3    0    0 -0.27248605209E+02 -0.13501452262E+02  0.67043818687E+01  0.31140398769E+02  0.51100000000E-03 0. -1.
        -11    1    3    3    0    0 -0.54507738762E+01 -0.13317565389E+02 -0.17141001507E+01  0.14491605271E+02  0.51100000000E-03 0.  1.
        -12    1    3    3    0    0 -0.18423039522E+01  0.90038662879E+00 -0.66362332848E+00  0.21552670033E+01  0.00000000000E+00 0.  1.
</event>
<event>
 7    1  0.4876728E-009  0.4778728E+02  0.7816164E-02  0.1312668E+00
        -11   -1    0    0    0    0  0.00000000000E+00  0.00000000000E+00  0.45593999997E+02  0.45594000000E+02  0.51100000000E-03 0.  1.
         11   -1    0    0    0    0 -0.00000000000E+00 -0.00000000000E+00 -0.45593999997E+02  0.45594000000E+02  0.51100000000E-03 0. -1.
    9900012    2    1    2    0    0  0.21365945640E+02  0.17065391988E+02  0.33702991927E+02  0.47787275333E+02  0.20000019554E+02 0.  0.
         12    1    1    2    0    0 -0.21365945640E+02 -0.17065391988E+02 -0.33702991927E+02  0.43400724667E+02  0.00000000000E+00 0. -1.
         11    1    3    3    0    0  0.91491874213E+01 -0.32558230425E+01  0.71983524497E+01  0.12088188136E+02  0.51100000000E-03 0. -1.
        -11    1    3    3    0    0  0.94552196748E+01  0.13449488695E+02  0.16992779369E+02  0.23644121387E+02  0.51100000000E-03 0.  1.
         12    1    3    3    0    0  0.27615385439E+01  0.68717263354E+01  0.95118601083E+01  0.12054965810E+02  0.00000000000E+00 0. -1.
</event>
<event>
 7    1  0.4876728E-009  0.4778726E+02  0.7816164E-02  0.1312668E+00
        -11   -1    0    0    0    0  0.00000000000E+00  0.00000000000E+00  0.45593999997E+02  0.45594000000E+02  0.51100000000E-03 0. -1.
         11   -1    0    0    0    0 -0.00000000000E+00 -0.00000000000E+00 -0.45593999997E+02  0.45594000000E+02  0.51100000000E-03 0.  1.
    9900012    2    1    2    0    0 -0.23950348709E+02 -0.31512530111E+02 -0.17803527434E+02  0.47787258689E+02  0.19999943666E+02 0.  0.
         12    1    1    2    0    0  0.23950348709E+02  0.31512530111E+02  0.17803527434E+02  0.43400741311E+02  0.00000000000E+00 0. -1.
         11    1    3    3    0    0 -0.13874946014E+02 -0.61386457254E+01 -0.36265951574E+01  0.15599656757E+02  0.51100000000E-03 0. -1.
        -11    1    3    3    0    0 -0.11234932466E+02 -0.21887014380E+02 -0.98240363625E+01  0.26491070131E+02  0.51100000000E-03 0.  1.
        -12    1    3    3    0    0  0.11595297707E+01 -0.34868700057E+01 -0.43528959138E+01  0.56965318012E+01  0.00000000000E+00 0.  1.
</event>
<event>
 7    1  0.4876728E-009  0.4778727E+02  0.7816164E-02  0.1312668E+00
        -11   -1    0    0    0    0  0.00000000000E+00  0.00000000000E+00  0.45593999997E+02  0.45594000000E+02  0.51100000000E-03 0.  1.
         11   -1    0    0    0    0 -0.00000000000E+00 -0.00000000000E+00 -0.45593999997E+02  0.45594000000E+02  0.51100000000E-03 0. -1.
    9900012    2    1    2    0    0  0.10970577161E+02 -0.29199450707E+01  0.41889660152E+02  0.47787271088E+02  0.20000000196E+02 0.  0.
         12    1    1    2    0    0 -0.10970577161E+02  0.29199450707E+01 -0.41889660152E+02  0.43400728912E+02  0.00000000000E+00 0. -1.
         11    1    3    3    0    0  0.36654211031E+01  0.20425493105E+01  0.60290400133E+01  0.73455185856E+01  0.51100000000E-03 0. -1.
        -11    1    3    3    0    0  0.10000321661E+02  0.77055789792E+00  0.30617466725E+02  0.32218464608E+02  0.51100000000E-03 0.  1.
        -12    1    3    3    0    0 -0.26951656026E+01 -0.57330522791E+01  0.52431534138E+01  0.82232878936E+01  0.00000000000E+00 0.  1.
</event>
<event>
 7    1  0.4876728E-009  0.4778727E+02  0.7816164E-02  0.1312668E+00
        -11   -1    0    0    0    0  0.00000000000E+00  0.00000000000E+00  0.45593999997E+02  0.45594000000E+02  0.51100000000E-03 0.  1.
         11   -1    0    0    0    0 -0.00000000000E+00 -0.00000000000E+00 -0.45593999997E+02  0.45594000000E+02  0.51100000000E-03 0. -1.
    9900012    2    1    2    0    0 -0.23338027708E+01 -0.43238899054E+02 -0.29281592294E+01  0.47787272550E+02  0.20000006863E+02 0.  0.
         12    1    1    2    0    0  0.23338027708E+01  0.43238899054E+02  0.29281592294E+01  0.43400727450E+02  0.00000000000E+00 0. -1.
         11    1    3    3    0    0 -0.56033528076E+01 -0.13766379605E+02  0.64164177928E+01  0.16188921757E+02  0.51100000000E-03 0. -1.
        -11    1    3    3    0    0  0.41393023226E+01 -0.13592474900E+02 -0.55023512742E+01  0.15236963852E+02  0.51100000000E-03 0.  1.
         12    1    3    3    0    0 -0.86975228584E+00 -0.15880044549E+02 -0.38422257480E+01  0.16361386940E+02  0.00000000000E+00 0. -1.
</event>
<event>
 7    1  0.4876728E-009  0.4778727E+02  0.7816164E-02  0.1312668E+00
        -11   -1    0    0    0    0  0.00000000000E+00  0.00000000000E+00  0.45593999997E+02  0.45594000000E+02  0.51100000000E-03 0.  1.
         11   -1    0    0    0    0 -0.00000000000E+00 -0.00000000000E+00 -0.45593999997E+02  0.45594000000E+02  0.51100000000E-03 0. -1.
    9900012    2    1    2    0    0  0.10287011752E+02 -0.19641711573E+02  0.37309569906E+02  0.47787269005E+02  0.19999990700E+02 0.  0.
         12    1    1    2    0    0 -0.10287011752E+02  0.19641711573E+02 -0.37309569906E+02  0.43400730995E+02  0.00000000000E+00 0. -1.
         11    1    3    3    0    0  0.77551705709E+00 -0.70752841062E+00 -0.44862415355E+00  0.11416159818E+01  0.51100000000E-03 0. -1.
        -11    1    3    3    0    0  0.32636655061E+01  0.30533244163E+01  0.50754395261E+01  0.67627205451E+01  0.51100000000E-03 0.  1.
        -12    1    3    3    0    0  0.62478291888E+01 -0.21987507579E+02  0.32682754534E+02  0.39882932478E+02  0.00000000000E+00 0.  1.
</event>
<event>
 7    1  0.4876728E-009  0.4778727E+02  0.7816164E-02  0.1312668E+00
        -11   -1    0    0    0    0  0.00000000000E+00  0.00000000000E+00  0.45593999997E+02  0.45594000000E+02  0.51100000000E-03 0.  1.
         11   -1    0    0    0    0 -0.00000000000E+00 -0.00000000000E+00 -0.45593999997E+02  0.45594000000E+02  0.51100000000E-03 0. -1.
    9900012    2    1    2    0    0  0.59504694173E+01  0.31240017341E+02  0.29534329856E+02  0.47787269479E+02  0.19999992861E+02 0.  0.
         12    1    1    2    0    0 -0.59504694173E+01 -0.31240017341E+02 -0.29534329856E+02  0.43400730521E+02  0.00000000000E+00 0. -1.
         11    1    3    3    0    0  0.39486003565E+00 -0.11048579488E+01 -0.18952670256E+01  0.22290497738E+01  0.51100000000E-03 0. -1.
        -11    1    3    3    0    0  0.57294686104E+01  0.25898554682E+02  0.24896463862E+02  0.36378508192E+02  0.51100000000E-03 0.  1.
         12    1    3    3    0    0 -0.17385922872E+00  0.64463206076E+01  0.65331330198E+01  0.91797115130E+01  0.00000000000E+00 0. -1.
</event>
<event>
 7    1  0.4876728E-009  0.4778727E+02  0.7816164E-02  0.1312668E+00
        -11   -1    0    0    0    0  0.00000000000E+00  0.00000000000E+00  0.45593999997E+02  0.45594000000E+02  0.51100000000E-03 0.  1.
         11   -1    0    0    0    0 -0.00000000000E+00 -0.00000000000E+00 -0.45593999997E+02  0.45594000000E+02  0.51100000000E-03 0. -1.
    9900012    2    1    2    0    0  0.24710168006E+02 -0.35282258263E+02  0.53097240151E+01  0.47787270512E+02  0.19999997572E+02 0.  0.
         12    1    1    2    0    0 -0.24710168006E+02  0.35282258263E+02 -0.53097240151E+01  0.43400729488E+02  0.00000000000E+00 0. -1.
         11    1    3    3    0    0 -0.52537819672E+00 -0.37888105821E+01 -0.37151777945E+01  0.53323216503E+01  0.51100000000E-03 0. -1.
        -11    1    3    3    0    0  0.15011688077E+02 -0.25178227186E+02  0.47266716551E+01  0.29692344608E+02  0.51100000000E-03 0.  1.
         12    1    3    3    0    0  0.10223858125E+02 -0.63152204949E+01  0.42982301544E+01  0.12762604253E+02  0.00000000000E+00 0. -1.
</event>
<event>
 7    1  0.4876728E-009  0.4778727E+02  0.7816164E-02  0.1312668E+00
        -11   -1    0    0    0    0  0.00000000000E+00  0.00000000000E+00  0.45593999997E+02  0.45594000000E+02  0.51100000000E-03 0. -1.
         11   -1    0    0    0    0 -0.00000000000E+00 -0.00000000000E+00 -0.45593999997E+02  0.45594000000E+02  0.51100000000E-03 0.  1.
    9900012    2    1    2    0    0 -0.23617998519E+02 -0.33924287860E+02 -0.13227099843E+02  0.47787270386E+02  0.19999996996E+02 0.  0.
         12    1    1    2    0    0  0.23617998519E+02  0.33924287860E+02  0.13227099843E+02  0.43400729614E+02  0.00000000000E+00 0. -1.
         11    1    3    3    0    0 -0.28085368797E+00 -0.78896309171E+01  0.24395997803E+01  0.82629778017E+01  0.51100000000E-03 0. -1.
        -11    1    3    3    0    0 -0.12681401517E+02 -0.85544348933E+01 -0.10024577170E+02  0.18289025356E+02  0.51100000000E-03 0.  1.
        -12    1    3    3    0    0 -0.10655743314E+02 -0.17480222049E+02 -0.56421224532E+01  0.21235267228E+02  0.00000000000E+00 0.  1.
</event>
<event>
 7    1  0.4876728E-009  0.4778727E+02  0.7816164E-02  0.1312668E+00
        -11   -1    0    0    0    0  0.00000000000E+00  0.00000000000E+00  0.45593999997E+02  0.45594000000E+02  0.51100000000E-03 0.  1.
         11   -1    0    0    0    0 -0.00000000000E+00 -0.00000000000E+00 -0.45593999997E+02  0.45594000000E+02  0.51100000000E-03 0. -1.
    9900012    2    1    2    0    0  0.21723851842E+02  0.18992650356E+02  0.32418769877E+02  0.47787272509E+02  0.20000006679E+02 0.  0.
         12    1    1    2    0    0 -0.21723851842E+02 -0.18992650356E+02 -0.32418769877E+02  0.43400727491E+02  0.00000000000E+00 0. -1.
         11    1    3    3    0    0  0.51952934568E+01 -0.26656108570E+01  0.42482532654E+01  0.72210948900E+01  0.51100000000E-03 0. -1.
        -11    1    3    3    0    0  0.11471804910E+02  0.21009284149E+02  0.24718189353E+02  0.34409028081E+02  0.51100000000E-03 0.  1.
        -12    1    3    3    0    0  0.50567534747E+01  0.64897706433E+00  0.34523272585E+01  0.61571495380E+01  0.00000000000E+00 0.  1.
</event>
<event>
 7    1  0.4876728E-009  0.4778728E+02  0.7816164E-02  0.1312668E+00
        -11   -1    0    0    0    0  0.00000000000E+00  0.00000000000E+00  0.45593999997E+02  0.45594000000E+02  0.51100000000E-03 0. -1.
         11   -1    0    0    0    0 -0.00000000000E+00 -0.00000000000E+00 -0.45593999997E+02  0.45594000000E+02  0.51100000000E-03 0.  1.
    9900012    2    1    2    0    0 -0.65391877242E+00  0.42975395879E+02  0.60258249028E+01  0.47787276198E+02  0.20000023499E+02 0.  0.
         12    1    1    2    0    0  0.65391877242E+00 -0.42975395879E+02 -0.60258249028E+01  0.43400723802E+02  0.00000000000E+00 0. -1.
         11    1    3    3    0    0 -0.29671933402E+01  0.33548566239E+01  0.33282205569E+01  0.55799956651E+01  0.51100000000E-03 0. -1.
        -11    1    3    3    0    0  0.54862683794E+01  0.14385842538E+02  0.60729123762E+01  0.16550887325E+02  0.51100000000E-03 0.  1.
        -12    1    3    3    0    0 -0.31729938116E+01  0.25234696717E+02 -0.33753080303E+01  0.25656393208E+02  0.00000000000E+00 0.  1.
</event>
<event>
 7    1  0.4876728E-009  0.4778727E+02  0.7816164E-02  0.1312668E+00
        -11   -1    0    0    0    0  0.00000000000E+00  0.00000000000E+00  0.45593999997E+02  0.45594000000E+02  0.51100000000E-03 0.  1.
         11   -1    0    0    0    0 -0.00000000000E+00 -0.00000000000E+00 -0.45593999997E+02  0.45594000000E+02  0.51100000000E-03 0. -1.
    9900012    2    1    2    0    0 -0.36163991401E+02 -0.22125484909E+02  0.92871883948E+01  0.47787271609E+02  0.20000002576E+02 0.  0.
         12    1    1    2    0    0  0.36163991401E+02  0.22125484909E+02 -0.92871883948E+01  0.43400728391E+02  0.00000000000E+00 0. -1.
         11    1    3    3    0    0 -0.18111268745E+01 -0.50831500199E+01 -0.37909048478E+01  0.65946610608E+01  0.51100000000E-03 0. -1.
        -11    1    3    3    0    0 -0.24312917094E+02 -0.15516993392E+02  0.86300250906E+01  0.30106018582E+02  0.51100000000E-03 0.  1.
         12    1    3    3    0    0 -0.10039947433E+02 -0.15253414970E+01  0.44480681521E+01  0.11086591966E+02  0.00000000000E+00 0. -1.
</event>
<event>
 7    1  0.4876728E-009  0.4778727E+02  0.7816164E-02  0.1312668E+00
        -11   -1    0    0    0    0  0.00000000000E+00  0.00000000000E+00  0.45593999997E+02  0.45594000000E+02  0.51100000000E-03 0. -1.
         11   -1    0    0    0    0 -0.00000000000E+00 -0.00000000000E+00 -0.45593999997E+02  0.45594000000E+02  0.51100000000E-03 0.  1.
    9900012    2    1    2    0    0  0.22946391543E+02 -0.12478507718E+02 -0.34660831148E+02  0.47787271255E+02  0.20000000962E+02 0.  0.
         12    1    1    2    0    0 -0.22946391543E+02  0.12478507718E+02  0.34660831148E+02  0.43400728745E+02  0.00000000000E+00 0. -1.
         11    1    3    3    0    0  0.23143005118E+01 -0.20670117685E+01  0.13768476320E+01  0.33947362450E+01  0.51100000000E-03 0. -1.
        -11    1    3    3    0    0  0.17261376221E+02 -0.27471762257E+01 -0.25870463069E+02  0.31221514151E+02  0.51100000000E-03 0.  1.
        -12    1    3    3    0    0  0.33707148105E+01 -0.76643197237E+01 -0.10167215711E+02  0.13171020859E+02  0.00000000000E+00 0.  1.
</event>
<event>
 7    1  0.4876728E-009  0.4778727E+02  0.7816164E-02  0.1312668E+00
        -11   -1    0    0    0    0  0.00000000000E+00  0.00000000000E+00  0.45593999997E+02  0.45594000000E+02  0.51100000000E-03 0. -1.
         11   -1    0    0    0    0 -0.00000000000E+00 -0.00000000000E+00 -0.45593999997E+02  0.45594000000E+02  0.51100000000E-03 0.  1.
    9900012    2    1    2    0    0 -0.29903308463E+02 -0.31401743124E+02 -0.18291628733E+01  0.47787272298E+02  0.20000005716E+02 0.  0.
         12    1    1    2    0    0  0.29903308463E+02  0.31401743124E+02  0.18291628733E+01  0.43400727702E+02  0.00000000000E+00 0. -1.
         11    1    3    3    0    0  0.68588684273E+00  0.18373054874E+01 -0.97150692045E+00  0.21885973071E+01  0.51100000000E-03 0. -1.
        -11    1    3    3    0    0 -0.11889616534E+02 -0.14871706314E+02 -0.31026991967E+01  0.19291380784E+02  0.51100000000E-03 0.  1.
         12    1    3    3    0    0 -0.18699578771E+02 -0.18367342298E+02  0.22450432438E+01  0.26307294207E+02  0.00000000000E+00 0. -1.
</event>
<event>
 7    1  0.4876728E-009  0.4778728E+02  0.7816164E-02  0.1312668E+00
        -11   -1    0    0    0    0  0.00000000000E+00  0.00000000000E+00  0.45593999997E+02  0.45594000000E+02  0.51100000000E-03 0.  1.
         11   -1    0    0    0    0 -0.00000000000E+00 -0.00000000000E+00 -0.45593999997E+02  0.45594000000E+02  0.51100000000E-03 0. -1.
    9900012    2    1    2    0    0 -0.69546983937E+01 -0.10356672680E+02  0.41569150389E+02  0.47787276932E+02  0.20000026843E+02 0.  0.
         12    1    1    2    0    0  0.69546983937E+01  0.10356672680E+02 -0.41569150389E+02  0.43400723068E+02  0.00000000000E+00 0. -1.
         11    1    3    3    0    0  0.12083871649E+01 -0.15950881471E+01  0.15073594008E+01  0.25053220076E+01  0.51100000000E-03 0. -1.
        -11    1    3    3    0    0  0.17292088694E+01 -0.46137701129E+01  0.13460850615E+01  0.51077375836E+01  0.51100000000E-03 0.  1.
        -12    1    3    3    0    0 -0.98922944279E+01 -0.41478144200E+01  0.38715705927E+02  0.40174217341E+02  0.00000000000E+00 0.  1.
</event>
<event>
 7    1  0.4876728E-009  0.4778726E+02  0.7816164E-02  0.1312668E+00
        -11   -1    0    0    0    0  0.00000000000E+00  0.00000000000E+00  0.45593999997E+02  0.45594000000E+02  0.51100000000E-03 0.  1.
         11   -1    0    0    0    0 -0.00000000000E+00 -0.00000000000E+00 -0.45593999997E+02  0.45594000000E+02  0.51100000000E-03 0. -1.
    9900012    2    1    2    0    0  0.36799155071E+02 -0.19767946944E+02  0.11776027231E+02  0.47787258558E+02  0.19999943071E+02 0.  0.
         12    1    1    2    0    0 -0.36799155071E+02  0.19767946944E+02 -0.11776027231E+02  0.43400741442E+02  0.00000000000E+00 0. -1.
         11    1    3    3    0    0  0.96093088518E+01 -0.82334209102E+01 -0.43558426714E+01  0.13382877199E+02  0.51100000000E-03 0. -1.
        -11    1    3    3    0    0  0.15278593057E+02 -0.27763094240E+01  0.70594502151E+01  0.17058110605E+02  0.51100000000E-03 0.  1.
         12    1    3    3    0    0  0.11911253162E+02 -0.87582166100E+01  0.90724196874E+01  0.17346270754E+02  0.00000000000E+00 0. -1.
</event>
<event>
 7    1  0.4876728E-009  0.4778727E+02  0.7816164E-02  0.1312668E+00
        -11   -1    0    0    0    0  0.00000000000E+00  0.00000000000E+00  0.45593999997E+02  0.45594000000E+02  0.51100000000E-03 0.  1.
         11   -1    0    0    0    0 -0.00000000000E+00 -0.00000000000E+00 -0.45593999997E+02  0.45594000000E+02  0.51100000000E-03 0. -1.
    9900012    2    1    2    0    0  0.23086351323E+01  0.65032817070E+01  0.42848578996E+02  0.47787271997E+02  0.20000004345E+02 0.  0.
         12    1    1    2    0    0 -0.23086351323E+01 -0.65032817070E+01 -0.42848578996E+02  0.43400728003E+02  0.00000000000E+00 0. -1.
         11    1    3    3    0    0 -0.38353447305E+01 -0.47115100010E+01  0.18115171581E+02  0.19106743243E+02  0.51100000000E-03 0.  1.
        -11    1    3    3    0    0  0.74212403475E+01  0.84423252632E+01  0.21317420077E+02  0.24099378895E+02  0.51100000000E-03 0. -1.
        -12    1    3    3    0    0 -0.12772604847E+01  0.27724664448E+01  0.34159873386E+01  0.45811498590E+01  0.00000000000E+00 0.  1.
</event>
<event>
 7    1  0.4876728E-009  0.4778727E+02  0.7816164E-02  0.1312668E+00
        -11   -1    0    0    0    0  0.00000000000E+00  0.00000000000E+00  0.45593999997E+02  0.45594000000E+02  0.51100000000E-03 0.  1.
         11   -1    0    0    0    0 -0.00000000000E+00 -0.00000000000E+00 -0.45593999997E+02  0.45594000000E+02  0.51100000000E-03 0. -1.
    9900012    2    1    2    0    0 -0.26903063684E+02 -0.89744736399E+01  0.32852811913E+02  0.47787271166E+02  0.20000000556E+02 0.  0.
         12    1    1    2    0    0  0.26903063684E+02  0.89744736399E+01 -0.32852811913E+02  0.43400728834E+02  0.00000000000E+00 0. -1.
         11    1    3    3    0    0 -0.13157942473E+01 -0.43947335747E+01  0.11921390138E+02  0.12773587624E+02  0.51100000000E-03 0. -1.
        -11    1    3    3    0    0 -0.21240506000E+02 -0.76756379407E+01  0.15451744545E+02  0.27364775217E+02  0.51100000000E-03 0.  1.
        -12    1    3    3    0    0 -0.43467634371E+01  0.30958978754E+01  0.54796772290E+01  0.76489083252E+01  0.00000000000E+00 0.  1.
</event>
<event>
 7    1  0.4876728E-009  0.4778727E+02  0.7816164E-02  0.1312668E+00
        -11   -1    0    0    0    0  0.00000000000E+00  0.00000000000E+00  0.45593999997E+02  0.45594000000E+02  0.51100000000E-03 0. -1.
         11   -1    0    0    0    0 -0.00000000000E+00 -0.00000000000E+00 -0.45593999997E+02  0.45594000000E+02  0.51100000000E-03 0.  1.
    9900012    2    1    2    0    0  0.39007477995E+02 -0.12222461748E+02  0.14582558951E+02  0.47787274934E+02  0.20000017733E+02 0.  0.
         12    1    1    2    0    0 -0.39007477995E+02  0.12222461748E+02 -0.14582558951E+02  0.43400725066E+02  0.00000000000E+00 0. -1.
         11    1    3    3    0    0  0.24055939990E+02  0.41137203134E+00  0.12854986848E+02  0.27278346043E+02  0.51100000000E-03 0. -1.
        -11    1    3    3    0    0  0.54403379064E+01 -0.76190068098E+01  0.26143369249E+01  0.97201491306E+01  0.51100000000E-03 0.  1.
         12    1    3    3    0    0  0.95112000990E+01 -0.50148269692E+01 -0.88676482211E+00  0.10788779760E+02  0.00000000000E+00 0. -1.
</event>
<event>
 7    1  0.4876728E-009  0.4778730E+02  0.7816164E-02  0.1312668E+00
        -11   -1    0    0    0    0  0.00000000000E+00  0.00000000000E+00  0.45593999997E+02  0.45594000000E+02  0.51100000000E-03 0.  1.
         11   -1    0    0    0    0 -0.00000000000E+00 -0.00000000000E+00 -0.45593999997E+02  0.45594000000E+02  0.51100000000E-03 0. -1.
    9900012    2    1    2    0    0 -0.14864295362E+02 -0.29177432181E+02  0.28484219393E+02  0.47787302083E+02  0.20000141517E+02 0.  0.
         12    1    1    2    0    0  0.14864295362E+02  0.29177432181E+02 -0.28484219393E+02  0.43400697917E+02  0.00000000000E+00 0. -1.
         11    1    3    3    0    0  0.20300283551E+01  0.73922088550E+00 -0.17800371629E+00  0.21677518826E+01  0.51100000000E-03 0. -1.
        -11    1    3    3    0    0 -0.11144002404E+02 -0.22775259847E+02  0.25395130074E+02  0.35886123814E+02  0.51100000000E-03 0.  1.
        -12    1    3    3    0    0 -0.57503213133E+01 -0.71413932188E+01  0.32670930350E+01  0.97334263860E+01  0.00000000000E+00 0.  1.
</event>
<event>
 7    1  0.4876728E-009  0.4778727E+02  0.7816164E-02  0.1312668E+00
        -11   -1    0    0    0    0  0.00000000000E+00  0.00000000000E+00  0.45593999997E+02  0.45594000000E+02  0.51100000000E-03 0.  1.
         11   -1    0    0    0    0 -0.00000000000E+00 -0.00000000000E+00 -0.45593999997E+02  0.45594000000E+02  0.51100000000E-03 0. -1.
    9900012    2    1    2    0    0  0.33223304025E+02  0.73364023656E+01  0.26944626278E+02  0.47787267112E+02  0.19999982070E+02 0.  0.
         12    1    1    2    0    0 -0.33223304025E+02 -0.73364023656E+01 -0.26944626278E+02  0.43400732888E+02  0.00000000000E+00 0. -1.
         11    1    3    3    0    0  0.28323905159E+01  0.41609573701E+01 -0.96126682171E+00  0.51244547450E+01  0.51100000000E-03 0.  1.
        -11    1    3    3    0    0  0.22591725283E+02  0.57402906459E+00  0.14230358852E+02  0.26706154233E+02  0.51100000000E-03 0. -1.
         12    1    3    3    0    0  0.77991882258E+01  0.26014159309E+01  0.13675534248E+02  0.15956658133E+02  0.00000000000E+00 0. -1.
</event>
<event>
 7    1  0.4876728E-009  0.4778727E+02  0.7816164E-02  0.1312668E+00
        -11   -1    0    0    0    0  0.00000000000E+00  0.00000000000E+00  0.45593999997E+02  0.45594000000E+02  0.51100000000E-03 0.  1.
         11   -1    0    0    0    0 -0.00000000000E+00 -0.00000000000E+00 -0.45593999997E+02  0.45594000000E+02  0.51100000000E-03 0. -1.
    9900012    2    1    2    0    0 -0.19396757204E+01 -0.38862787468E+02  0.19223545414E+02  0.47787270859E+02  0.19999999156E+02 0.  0.
         12    1    1    2    0    0  0.19396757204E+01  0.38862787468E+02 -0.19223545414E+02  0.43400729141E+02  0.00000000000E+00 0. -1.
         11    1    3    3    0    0 -0.44159287309E+01 -0.28705083252E+02  0.20681365158E+02  0.35653907165E+02  0.51100000000E-03 0. -1.
        -11    1    3    3    0    0 -0.10856079099E+01 -0.60032780121E+01 -0.24456750133E+01  0.65726111977E+01  0.51100000000E-03 0.  1.
        -12    1    3    3    0    0  0.35618609204E+01 -0.41544262040E+01  0.98785526871E+00  0.55607524970E+01  0.00000000000E+00 0.  1.
</event>
<event>
 7    1  0.4876728E-009  0.4778727E+02  0.7816164E-02  0.1312668E+00
        -11   -1    0    0    0    0  0.00000000000E+00  0.00000000000E+00  0.45593999997E+02  0.45594000000E+02  0.51100000000E-03 0.  1.
         11   -1    0    0    0    0 -0.00000000000E+00 -0.00000000000E+00 -0.45593999997E+02  0.45594000000E+02  0.51100000000E-03 0. -1.
    9900012    2    1    2    0    0  0.22197667053E+02  0.31786835100E+01  0.37158887520E+02  0.47787269901E+02  0.19999994786E+02 0.  0.
         12    1    1    2    0    0 -0.22197667053E+02 -0.31786835100E+01 -0.37158887520E+02  0.43400730099E+02  0.00000000000E+00 0. -1.
         11    1    3    3    0    0 -0.26561559604E+01  0.10753901379E+01  0.30993223441E+01  0.42210694958E+01  0.51100000000E-03 0. -1.
        -11    1    3    3    0    0  0.22795018903E+02  0.33461037259E+01  0.24182699589E+02  0.33400782276E+02  0.51100000000E-03 0.  1.
        -12    1    3    3    0    0  0.20588041105E+01 -0.12428103537E+01  0.98768655861E+01  0.10165418129E+02  0.00000000000E+00 0.  1.
</event>
<event>
 7    1  0.4876728E-009  0.4778727E+02  0.7816164E-02  0.1312668E+00
        -11   -1    0    0    0    0  0.00000000000E+00  0.00000000000E+00  0.45593999997E+02  0.45594000000E+02  0.51100000000E-03 0.  1.
         11   -1    0    0    0    0 -0.00000000000E+00 -0.00000000000E+00 -0.45593999997E+02  0.45594000000E+02  0.51100000000E-03 0. -1.
    9900012    2    1    2    0    0 -0.17762456270E+02  0.28694802451E+02  0.27289682597E+02  0.47787270551E+02  0.19999997748E+02 0.  0.
         12    1    1    2    0    0  0.17762456270E+02 -0.28694802451E+02 -0.27289682597E+02  0.43400729449E+02  0.00000000000E+00 0. -1.
         11    1    3    3    0    0 -0.40567514704E+01 -0.16203669236E+01  0.18394023278E+01  0.47398547071E+01  0.51100000000E-03 0. -1.
        -11    1    3    3    0    0 -0.11820001740E+02  0.30569688837E+02  0.23553441083E+02  0.40360660350E+02  0.51100000000E-03 0.  1.
        -12    1    3    3    0    0 -0.18857030592E+01 -0.25451946216E+00  0.18968391868E+01  0.26867554940E+01  0.00000000000E+00 0.  1.
</event>
<event>
 7    1  0.4876728E-009  0.4778728E+02  0.7816164E-02  0.1312668E+00
        -11   -1    0    0    0    0  0.00000000000E+00  0.00000000000E+00  0.45593999997E+02  0.45594000000E+02  0.51100000000E-03 0.  1.
         11   -1    0    0    0    0 -0.00000000000E+00 -0.00000000000E+00 -0.45593999997E+02  0.45594000000E+02  0.51100000000E-03 0. -1.
    9900012    2    1    2    0    0 -0.40974591031E+02 -0.13262548511E+02  0.53675266426E+01  0.47787278285E+02  0.20000033012E+02 0.  0.
         12    1    1    2    0    0  0.40974591031E+02  0.13262548511E+02 -0.53675266426E+01  0.43400721715E+02  0.00000000000E+00 0. -1.
         11    1    3    3    0    0 -0.19270179536E+02 -0.21941183971E+01 -0.46160613722E+01  0.19936448975E+02  0.51100000000E-03 0. -1.
        -11    1    3    3    0    0 -0.22059004073E+02 -0.11522707594E+02  0.85652356670E+01  0.26319872972E+02  0.51100000000E-03 0.  1.
         12    1    3    3    0    0  0.35459257793E+00  0.45427747985E+00  0.14183523477E+01  0.15309563375E+01  0.00000000000E+00 0. -1.
</event>
<event>
 7    1  0.4876728E-009  0.4778727E+02  0.7816164E-02  0.1312668E+00
        -11   -1    0    0    0    0  0.00000000000E+00  0.00000000000E+00  0.45593999997E+02  0.45594000000E+02  0.51100000000E-03 0.  1.
         11   -1    0    0    0    0 -0.00000000000E+00 -0.00000000000E+00 -0.45593999997E+02  0.45594000000E+02  0.51100000000E-03 0. -1.
    9900012    2    1    2    0    0 -0.33703419348E+02  0.26276578230E+02  0.75659921985E+01  0.47787271007E+02  0.19999999828E+02 0.  0.
         12    1    1    2    0    0  0.33703419348E+02 -0.26276578230E+02 -0.75659921985E+01  0.43400728993E+02  0.00000000000E+00 0. -1.
         11    1    3    3    0    0 -0.47727745586E+00  0.15528199838E+01 -0.20588418855E+01  0.26225700835E+01  0.51100000000E-03 0. -1.
        -11    1    3    3    0    0 -0.14212834013E+02  0.23080879066E+01  0.57799638401E+00  0.14410621102E+02  0.51100000000E-03 0.  1.
        -12    1    3    3    0    0 -0.19013307879E+02  0.22415670340E+02  0.90468377001E+01  0.30754079821E+02  0.00000000000E+00 0.  1.
</event>
<event>
 7    1  0.4876728E-009  0.4778727E+02  0.7816164E-02  0.1312668E+00
        -11   -1    0    0    0    0  0.00000000000E+00  0.00000000000E+00  0.45593999997E+02  0.45594000000E+02  0.51100000000E-03 0.  1.
         11   -1    0    0    0    0 -0.00000000000E+00 -0.00000000000E+00 -0.45593999997E+02  0.45594000000E+02  0.51100000000E-03 0. -1.
    9900012    2    1    2    0    0  0.36985926145E+02  0.18924714404E+02  0.12550686004E+02  0.47787271121E+02  0.20000000348E+02 0.  0.
         12    1    1    2    0    0 -0.36985926145E+02 -0.18924714404E+02 -0.12550686004E+02  0.43400728879E+02  0.00000000000E+00 0. -1.
         11    1    3    3    0    0  0.16128632253E+02  0.92604728234E+01 -0.38653145033E+01  0.18995520307E+02  0.51100000000E-03 0. -1.
        -11    1    3    3    0    0  0.19888301877E+02  0.10060125612E+02  0.14443487753E+02  0.26558708884E+02  0.51100000000E-03 0.  1.
        -12    1    3    3    0    0  0.96899201507E+00 -0.39588403107E+00  0.19725127544E+01  0.22330419292E+01  0.00000000000E+00 0.  1.
</event>
<event>
 7    1  0.4876728E-009  0.4778727E+02  0.7816164E-02  0.1312668E+00
        -11   -1    0    0    0    0  0.00000000000E+00  0.00000000000E+00  0.45593999997E+02  0.45594000000E+02  0.51100000000E-03 0.  1.
         11   -1    0    0    0    0 -0.00000000000E+00 -0.00000000000E+00 -0.45593999997E+02  0.45594000000E+02  0.51100000000E-03 0. -1.
    9900012    2    1    2    0    0 -0.25456796873E+02 -0.16487017681E+02  0.31044376329E+02  0.47787267740E+02  0.19999984934E+02 0.  0.
         12    1    1    2    0    0  0.25456796873E+02  0.16487017681E+02 -0.31044376329E+02  0.43400732260E+02  0.00000000000E+00 0. -1.
         11    1    3    3    0    0 -0.53561266777E+01 -0.10142473433E+02  0.73776255812E+01  0.13637713144E+02  0.51100000000E-03 0. -1.
        -11    1    3    3    0    0 -0.20667500947E+02 -0.26111026181E+01  0.20389452501E+02  0.29149497865E+02  0.51100000000E-03 0.  1.
        -12    1    3    3    0    0  0.56683075164E+00 -0.37334416304E+01  0.32772982469E+01  0.50000567304E+01  0.00000000000E+00 0.  1.
</event>
<event>
 7    1  0.4876728E-009  0.4778727E+02  0.7816164E-02  0.1312668E+00
        -11   -1    0    0    0    0  0.00000000000E+00  0.00000000000E+00  0.45593999997E+02  0.45594000000E+02  0.51100000000E-03 0. -1.
         11   -1    0    0    0    0 -0.00000000000E+00 -0.00000000000E+00 -0.45593999997E+02  0.45594000000E+02  0.51100000000E-03 0.  1.
    9900012    2    1    2    0    0  0.25900489457E+02  0.27543231645E+02  0.21310995430E+02  0.47787268557E+02  0.19999988659E+02 0.  0.
         12    1    1    2    0    0 -0.25900489457E+02 -0.27543231645E+02 -0.21310995430E+02  0.43400731443E+02  0.00000000000E+00 0. -1.
         11    1    3    3    0    0  0.45338446814E+01 -0.68094724693E+00  0.79656645261E+01  0.91908241388E+01  0.51100000000E-03 0. -1.
        -11    1    3    3    0    0  0.79371231304E+01  0.53408292871E+01  0.49209296990E+01  0.10758156460E+02  0.51100000000E-03 0.  1.
         12    1    3    3    0    0  0.13429521645E+02  0.22883349605E+02  0.84244012045E+01  0.27838287958E+02  0.00000000000E+00 0. -1.
</event>
<event>
 7    1  0.4876728E-009  0.4778728E+02  0.7816164E-02  0.1312668E+00
        -11   -1    0    0    0    0  0.00000000000E+00  0.00000000000E+00  0.45593999997E+02  0.45594000000E+02  0.51100000000E-03 0.  1.
         11   -1    0    0    0    0 -0.00000000000E+00 -0.00000000000E+00 -0.45593999997E+02  0.45594000000E+02  0.51100000000E-03 0. -1.
    9900012    2    1    2    0    0  0.39834588808E+02 -0.10199722897E+02  0.13885013969E+02  0.47787280817E+02  0.20000044556E+02 0.  0.
         12    1    1    2    0    0 -0.39834588808E+02  0.10199722897E+02 -0.13885013969E+02  0.43400719183E+02  0.00000000000E+00 0. -1.
         11    1    3    3    0    0  0.13649344492E+02 -0.11984610003E+02  0.11889457674E+01  0.18202996300E+02  0.51100000000E-03 0. -1.
        -11    1    3    3    0    0  0.20641283130E+02  0.16590803555E+01  0.12157238728E+02  0.24012779319E+02  0.51100000000E-03 0.  1.
         12    1    3    3    0    0  0.55439611866E+01  0.12580675015E+00  0.53882947421E+00  0.55715051987E+01  0.00000000000E+00 0. -1.
</event>
<event>
 7    1  0.4876728E-009  0.4778727E+02  0.7816164E-02  0.1312668E+00
        -11   -1    0    0    0    0  0.00000000000E+00  0.00000000000E+00  0.45593999997E+02  0.45594000000E+02  0.51100000000E-03 0.  1.
         11   -1    0    0    0    0 -0.00000000000E+00 -0.00000000000E+00 -0.45593999997E+02  0.45594000000E+02  0.51100000000E-03 0. -1.
    9900012    2    1    2    0    0  0.75439061180E+01  0.40585945512E+02  0.13397529593E+02  0.47787270837E+02  0.19999999055E+02 0.  0.
         12    1    1    2    0    0 -0.75439061180E+01 -0.40585945512E+02 -0.13397529593E+02  0.43400729163E+02  0.00000000000E+00 0. -1.
         11    1    3    3    0    0 -0.15483974490E+01  0.20642971813E+02  0.13485101737E+01  0.20744837909E+02  0.51100000000E-03 0. -1.
        -11    1    3    3    0    0  0.89060000843E+01  0.21169783130E+02  0.11508391381E+02  0.25688900866E+02  0.51100000000E-03 0.  1.
        -12    1    3    3    0    0  0.18630348264E+00 -0.12268094305E+01  0.54062803863E+00  0.13535320619E+01  0.00000000000E+00 0.  1.
</event>
<event>
 7    1  0.4876728E-009  0.4778727E+02  0.7816164E-02  0.1312668E+00
        -11   -1    0    0    0    0  0.00000000000E+00  0.00000000000E+00  0.45593999997E+02  0.45594000000E+02  0.51100000000E-03 0. -1.
         11   -1    0    0    0    0 -0.00000000000E+00 -0.00000000000E+00 -0.45593999997E+02  0.45594000000E+02  0.51100000000E-03 0.  1.
    9900012    2    1    2    0    0 -0.36381408158E+02  0.24416605731E+00 -0.23663403183E+02  0.47787272738E+02  0.20000007723E+02 0.  0.
         12    1    1    2    0    0  0.36381408158E+02 -0.24416605731E+00  0.23663403183E+02  0.43400727262E+02  0.00000000000E+00 0. -1.
         11    1    3    3    0    0 -0.64429240302E+01 -0.84890798845E+00 -0.23013586944E+01  0.68940675173E+01  0.51100000000E-03 0. -1.
        -11    1    3    3    0    0  0.85361953981E+00 -0.30658343044E+01 -0.45856356811E+01  0.55817614748E+01  0.51100000000E-03 0.  1.
        -12    1    3    3    0    0 -0.30792103668E+02  0.41589083502E+01 -0.16776408807E+02  0.35311443746E+02  0.00000000000E+00 0.  1.
</event>
<event>
 7    1  0.4876728E-009  0.4778727E+02  0.7816164E-02  0.1312668E+00
        -11   -1    0    0    0    0  0.00000000000E+00  0.00000000000E+00  0.45593999997E+02  0.45594000000E+02  0.51100000000E-03 0.  1.
         11   -1    0    0    0    0 -0.00000000000E+00 -0.00000000000E+00 -0.45593999997E+02  0.45594000000E+02  0.51100000000E-03 0. -1.
    9900012    2    1    2    0    0  0.13992792867E+02 -0.41081994810E+02 -0.30797847912E+00  0.47787269585E+02  0.19999993347E+02 0.  0.
         12    1    1    2    0    0 -0.13992792867E+02  0.41081994810E+02  0.30797847912E+00  0.43400730415E+02  0.00000000000E+00 0. -1.
         11    1    3    3    0    0  0.11647022332E+01 -0.43944198053E+01 -0.66606555505E+01  0.80642289985E+01  0.51100000000E-03 0. -1.
        -11    1    3    3    0    0  0.63976257657E+01 -0.21205016874E+02  0.11890375251E+01  0.22180986600E+02  0.51100000000E-03 0.  1.
         12    1    3    3    0    0  0.64304648683E+01 -0.15482558131E+02  0.51636395463E+01  0.17542053986E+02  0.00000000000E+00 0. -1.
</event>
<event>
 7    1  0.4876728E-009  0.4778728E+02  0.7816164E-02  0.1312668E+00
        -11   -1    0    0    0    0  0.00000000000E+00  0.00000000000E+00  0.45593999997E+02  0.45594000000E+02  0.51100000000E-03 0. -1.
         11   -1    0    0    0    0 -0.00000000000E+00 -0.00000000000E+00 -0.45593999997E+02  0.45594000000E+02  0.51100000000E-03 0.  1.
    9900012    2    1    2    0    0  0.18317812414E+02  0.23050645903E+02 -0.31886490934E+02  0.47787276132E+02  0.20000023195E+02 0.  0.
         12    1    1    2    0    0 -0.18317812414E+02 -0.23050645903E+02  0.31886490934E+02  0.43400723868E+02  0.00000000000E+00 0. -1.
         11    1    3    3    0    0  0.46584109057E-01 -0.23620536513E+01 -0.15329004088E+01  0.28162477617E+01  0.51100000000E-03 0. -1.
        -11    1    3    3    0    0  0.15396490384E+02  0.19531472238E+02 -0.29145337113E+02  0.38314240168E+02  0.51100000000E-03 0.  1.
        -12    1    3    3    0    0  0.28747379208E+01  0.58812273166E+01 -0.12082534122E+01  0.66567882023E+01  0.00000000000E+00 0.  1.
</event>
<event>
 7    1  0.4876728E-009  0.4778727E+02  0.7816164E-02  0.1312668E+00
        -11   -1    0    0    0    0  0.00000000000E+00  0.00000000000E+00  0.45593999997E+02  0.45594000000E+02  0.51100000000E-03 0. -1.
         11   -1    0    0    0    0 -0.00000000000E+00 -0.00000000000E+00 -0.45593999997E+02  0.45594000000E+02  0.51100000000E-03 0.  1.
    9900012    2    1    2    0    0  0.28391030116E+01 -0.36007011932E+01 -0.43157821437E+02  0.47787272976E+02  0.20000008807E+02 0.  0.
         12    1    1    2    0    0 -0.28391030116E+01  0.36007011932E+01  0.43157821437E+02  0.43400727024E+02  0.00000000000E+00 0. -1.
         11    1    3    3    0    0 -0.66860156750E+01  0.13647260666E+01 -0.10995843907E+02  0.12941169434E+02  0.51100000000E-03 0. -1.
        -11    1    3    3    0    0  0.37586519076E+01 -0.47478848702E+01 -0.81675767346E+01  0.10167555502E+02  0.51100000000E-03 0.  1.
         12    1    3    3    0    0  0.57664667791E+01 -0.21754238957E+00 -0.23994400796E+02  0.24678548040E+02  0.00000000000E+00 0. -1.
</event>
<event>
 7    1  0.4876728E-009  0.4778726E+02  0.7816164E-02  0.1312668E+00
        -11   -1    0    0    0    0  0.00000000000E+00  0.00000000000E+00  0.45593999997E+02  0.45594000000E+02  0.51100000000E-03 0.  1.
         11   -1    0    0    0    0 -0.00000000000E+00 -0.00000000000E+00 -0.45593999997E+02  0.45594000000E+02  0.51100000000E-03 0. -1.
    9900012    2    1    2    0    0  0.17882798047E+02 -0.35309187027E+02  0.17807059385E+02  0.47787256706E+02  0.19999934625E+02 0.  0.
         12    1    1    2    0    0 -0.17882798047E+02  0.35309187027E+02 -0.17807059385E+02  0.43400743294E+02  0.00000000000E+00 0. -1.
         11    1    3    3    0    0  0.91499083168E+01 -0.17236124984E+01  0.37655881889E+01  0.10043471358E+02  0.51100000000E-03 0. -1.
        -11    1    3    3    0    0  0.47116283220E+01 -0.26052361947E+02  0.11166031407E+02  0.28733347562E+02  0.51100000000E-03 0.  1.
        -12    1    3    3    0    0  0.40212614079E+01 -0.75332125817E+01  0.28754397900E+01  0.90104377861E+01  0.00000000000E+00 0.  1.
</event>
<event>
 7    1  0.4876728E-009  0.4778726E+02  0.7816164E-02  0.1312668E+00
        -11   -1    0    0    0    0  0.00000000000E+00  0.00000000000E+00  0.45593999997E+02  0.45594000000E+02  0.51100000000E-03 0.  1.
         11   -1    0    0    0    0 -0.00000000000E+00 -0.00000000000E+00 -0.45593999997E+02  0.45594000000E+02  0.51100000000E-03 0. -1.
    9900012    2    1    2    0    0  0.29735345079E+02 -0.16705309673E+02  0.26839634553E+02  0.47787261513E+02  0.19999956542E+02 0.  0.
         12    1    1    2    0    0 -0.29735345079E+02  0.16705309673E+02 -0.26839634553E+02  0.43400738487E+02  0.00000000000E+00 0. -1.
         11    1    3    3    0    0  0.40022233618E+01  0.31551099213E+01  0.80583758807E+01  0.95346700283E+01  0.51100000000E-03 0. -1.
        -11    1    3    3    0    0  0.18527497918E+02 -0.18095676116E+02  0.14255503588E+02  0.29562494076E+02  0.51100000000E-03 0.  1.
        -12    1    3    3    0    0  0.72056237992E+01 -0.17647434787E+01  0.45257550846E+01  0.86900974083E+01  0.00000000000E+00 0.  1.
</event>
<event>
 7    1  0.4876728E-009  0.4778727E+02  0.7816164E-02  0.1312668E+00
        -11   -1    0    0    0    0  0.00000000000E+00  0.00000000000E+00  0.45593999997E+02  0.45594000000E+02  0.51100000000E-03 0.  1.
         11   -1    0    0    0    0 -0.00000000000E+00 -0.00000000000E+00 -0.45593999997E+02  0.45594000000E+02  0.51100000000E-03 0. -1.
    9900012    2    1    2    0    0  0.41562890522E+02  0.20951656093E+01  0.12319073886E+02  0.47787272254E+02  0.20000005513E+02 0.  0.
         12    1    1    2    0    0 -0.41562890522E+02 -0.20951656093E+01 -0.12319073886E+02  0.43400727746E+02  0.00000000000E+00 0. -1.
         11    1    3    3    0    0  0.35244388935E+02 -0.28739324839E+01  0.47785233403E+01  0.35682779108E+02  0.51100000000E-03 0.  1.
        -11    1    3    3    0    0  0.45182758755E+01  0.58289670700E+01  0.51728341918E+01  0.90083232528E+01  0.51100000000E-03 0. -1.
        -12    1    3    3    0    0  0.18002257120E+01 -0.85986897682E+00  0.23677163538E+01  0.30961698926E+01  0.00000000000E+00 0.  1.
</event>
<event>
 7    1  0.4876728E-009  0.4778727E+02  0.7816164E-02  0.1312668E+00
        -11   -1    0    0    0    0  0.00000000000E+00  0.00000000000E+00  0.45593999997E+02  0.45594000000E+02  0.51100000000E-03 0.  1.
         11   -1    0    0    0    0 -0.00000000000E+00 -0.00000000000E+00 -0.45593999997E+02  0.45594000000E+02  0.51100000000E-03 0. -1.
    9900012    2    1    2    0    0 -0.86562381042E+01  0.40332716154E+02  0.13489430754E+02  0.47787271981E+02  0.20000004272E+02 0.  0.
         12    1    1    2    0    0  0.86562381042E+01 -0.40332716154E+02 -0.13489430754E+02  0.43400728019E+02  0.00000000000E+00 0. -1.
         11    1    3    3    0    0 -0.10747543735E+02  0.15310826294E+02  0.10644334383E+02  0.21522847229E+02  0.51100000000E-03 0.  1.
        -11    1    3    3    0    0  0.37817814512E+01  0.74299965929E+01  0.19875079427E+01  0.85707005780E+01  0.51100000000E-03 0. -1.
         12    1    3    3    0    0 -0.16904758202E+01  0.17591893268E+02  0.85758842820E+00  0.17693724174E+02  0.00000000000E+00 0. -1.
</event>
<event>
 7    1  0.4876728E-009  0.4778727E+02  0.7816164E-02  0.1312668E+00
        -11   -1    0    0    0    0  0.00000000000E+00  0.00000000000E+00  0.45593999997E+02  0.45594000000E+02  0.51100000000E-03 0.  1.
         11   -1    0    0    0    0 -0.00000000000E+00 -0.00000000000E+00 -0.45593999997E+02  0.45594000000E+02  0.51100000000E-03 0. -1.
    9900012    2    1    2    0    0 -0.11578503407E+02  0.20900171080E+02  0.36231816442E+02  0.47787269419E+02  0.19999992588E+02 0.  0.
         12    1    1    2    0    0  0.11578503407E+02 -0.20900171080E+02 -0.36231816442E+02  0.43400730581E+02  0.00000000000E+00 0. -1.
         11    1    3    3    0    0 -0.67744085009E+01  0.41294177364E+01  0.26794615201E+02  0.27944518343E+02  0.51100000000E-03 0. -1.
        -11    1    3    3    0    0 -0.18041408666E+01  0.68445492669E+01  0.41041522385E+01  0.81821051564E+01  0.51100000000E-03 0.  1.
         12    1    3    3    0    0 -0.29999540393E+01  0.99262040762E+01  0.53330490026E+01  0.11660645920E+02  0.00000000000E+00 0. -1.
</event>
<event>
 7    1  0.4876728E-009  0.4778725E+02  0.7816164E-02  0.1312668E+00
        -11   -1    0    0    0    0  0.00000000000E+00  0.00000000000E+00  0.45593999997E+02  0.45594000000E+02  0.51100000000E-03 0.  1.
         11   -1    0    0    0    0 -0.00000000000E+00 -0.00000000000E+00 -0.45593999997E+02  0.45594000000E+02  0.51100000000E-03 0. -1.
    9900012    2    1    2    0    0 -0.31138967534E+02  0.11745473478E+02  0.27857378988E+02  0.47787251039E+02  0.19999908785E+02 0.  0.
         12    1    1    2    0    0  0.31138967534E+02 -0.11745473478E+02 -0.27857378988E+02  0.43400748961E+02  0.00000000000E+00 0. -1.
         11    1    3    3    0    0 -0.99930741426E+01 -0.31667777947E+01  0.37180258584E+01  0.11122667349E+02  0.51100000000E-03 0. -1.
        -11    1    3    3    0    0 -0.21754926492E+02  0.12765275537E+02  0.23099320925E+02  0.34202451866E+02  0.51100000000E-03 0.  1.
         12    1    3    3    0    0  0.60903310051E+00  0.21469757354E+01  0.10400322048E+01  0.24621318228E+01  0.00000000000E+00 0. -1.
</event>
<event>
 7    1  0.4876728E-009  0.4778732E+02  0.7816164E-02  0.1312668E+00
        -11   -1    0    0    0    0  0.00000000000E+00  0.00000000000E+00  0.45593999997E+02  0.45594000000E+02  0.51100000000E-03 0.  1.
         11   -1    0    0    0    0 -0.00000000000E+00 -0.00000000000E+00 -0.45593999997E+02  0.45594000000E+02  0.51100000000E-03 0. -1.
    9900012    2    1    2    0    0 -0.35554082738E+02 -0.22949380214E+02  0.96359988137E+01  0.47787316541E+02  0.20000207438E+02 0.  0.
         12    1    1    2    0    0  0.35554082738E+02  0.22949380214E+02 -0.96359988137E+01  0.43400683459E+02  0.00000000000E+00 0. -1.
         11    1    3    3    0    0  0.10802212079E+00 -0.30638371977E+01  0.19701167800E+01  0.36441909309E+01  0.51100000000E-03 0. -1.
        -11    1    3    3    0    0 -0.15307405148E+02 -0.16796704354E+02  0.59057743038E+01  0.23480291734E+02  0.51100000000E-03 0.  1.
        -12    1    3    3    0    0 -0.20354699711E+02 -0.30888386622E+01  0.17601077299E+01  0.20662833877E+02  0.00000000000E+00 0.  1.
</event>
<event>
 7    1  0.4876728E-009  0.4778727E+02  0.7816164E-02  0.1312668E+00
        -11   -1    0    0    0    0  0.00000000000E+00  0.00000000000E+00  0.45593999997E+02  0.45594000000E+02  0.51100000000E-03 0.  1.
         11   -1    0    0    0    0 -0.00000000000E+00 -0.00000000000E+00 -0.45593999997E+02  0.45594000000E+02  0.51100000000E-03 0. -1.
    9900012    2    1    2    0    0  0.12854212315E+02  0.33732458444E-01  0.41453484600E+02  0.47787270771E+02  0.19999998754E+02 0.  0.
         12    1    1    2    0    0 -0.12854212315E+02 -0.33732458444E-01 -0.41453484600E+02  0.43400729229E+02  0.00000000000E+00 0. -1.
         11    1    3    3    0    0  0.95080435726E+01 -0.24711702244E+01  0.31784206900E+02  0.33267782965E+02  0.51100000000E-03 0. -1.
        -11    1    3    3    0    0 -0.75583069287E+00  0.66121886731E-01  0.97174535528E+01  0.97470280574E+01  0.51100000000E-03 0.  1.
         12    1    3    3    0    0  0.41019994357E+01  0.24387807961E+01 -0.48175853064E-01  0.47724597489E+01  0.00000000000E+00 0. -1.
</event>
<event>
 7    1  0.4876728E-009  0.4778727E+02  0.7816164E-02  0.1312668E+00
        -11   -1    0    0    0    0  0.00000000000E+00  0.00000000000E+00  0.45593999997E+02  0.45594000000E+02  0.51100000000E-03 0.  1.
         11   -1    0    0    0    0 -0.00000000000E+00 -0.00000000000E+00 -0.45593999997E+02  0.45594000000E+02  0.51100000000E-03 0. -1.
    9900012    2    1    2    0    0  0.32284659815E+02 -0.27788795963E+02  0.83130445393E+01  0.47787272472E+02  0.20000006510E+02 0.  0.
         12    1    1    2    0    0 -0.32284659815E+02  0.27788795963E+02 -0.83130445393E+01  0.43400727528E+02  0.00000000000E+00 0. -1.
         11    1    3    3    0    0  0.10094623436E+02 -0.62465399371E+01  0.11314091283E+02  0.16399065380E+02  0.51100000000E-03 0. -1.
        -11    1    3    3    0    0  0.96611636091E+01 -0.11685160738E+02  0.25447400570E-01  0.15161850533E+02  0.51100000000E-03 0.  1.
         12    1    3    3    0    0  0.12528872770E+02 -0.98570952875E+01 -0.30264941442E+01  0.16226356559E+02  0.00000000000E+00 0. -1.
</event>
<event>
 7    1  0.4876728E-009  0.4778727E+02  0.7816164E-02  0.1312668E+00
        -11   -1    0    0    0    0  0.00000000000E+00  0.00000000000E+00  0.45593999997E+02  0.45594000000E+02  0.51100000000E-03 0.  1.
         11   -1    0    0    0    0 -0.00000000000E+00 -0.00000000000E+00 -0.45593999997E+02  0.45594000000E+02  0.51100000000E-03 0. -1.
    9900012    2    1    2    0    0  0.32680048113E+02  0.11092628978E+02  0.26317137563E+02  0.47787266229E+02  0.19999978046E+02 0.  0.
         12    1    1    2    0    0 -0.32680048113E+02 -0.11092628978E+02 -0.26317137563E+02  0.43400733771E+02  0.00000000000E+00 0. -1.
         11    1    3    3    0    0  0.22359080756E+01  0.56974722658E+01  0.11888764401E+02  0.13371731166E+02  0.51100000000E-03 0. -1.
        -11    1    3    3    0    0  0.22819239107E+02  0.59606631450E+01  0.11340122128E+02  0.26169553849E+02  0.51100000000E-03 0.  1.
        -12    1    3    3    0    0  0.76249009305E+01 -0.56550643268E+00  0.30882510345E+01  0.82459812137E+01  0.00000000000E+00 0.  1.
</event>
<event>
 7    1  0.4876728E-009  0.4778727E+02  0.7816164E-02  0.1312668E+00
        -11   -1    0    0    0    0  0.00000000000E+00  0.00000000000E+00  0.45593999997E+02  0.45594000000E+02  0.51100000000E-03 0.  1.
         11   -1    0    0    0    0 -0.00000000000E+00 -0.00000000000E+00 -0.45593999997E+02  0.45594000000E+02  0.51100000000E-03 0. -1.
    9900012    2    1    2    0    0  0.27060541839E+02  0.33713001456E+02  0.38449954358E+01  0.47787269802E+02  0.19999994336E+02 0.  0.
         12    1    1    2    0    0 -0.27060541839E+02 -0.33713001456E+02 -0.38449954358E+01  0.43400730198E+02  0.00000000000E+00 0. -1.
         11    1    3    3    0    0  0.19600283998E+02  0.26079372471E+02 -0.12132110007E+01  0.32646235350E+02  0.51100000000E-03 0. -1.
        -11    1    3    3    0    0  0.74486086002E+01  0.40237077779E+01 -0.53634735052E+00  0.84829041667E+01  0.51100000000E-03 0.  1.
         12    1    3    3    0    0  0.11649240105E-01  0.36099212070E+01  0.55945537870E+01  0.66581302857E+01  0.00000000000E+00 0. -1.
</event>
<event>
 7    1  0.4876728E-009  0.4778728E+02  0.7816164E-02  0.1312668E+00
        -11   -1    0    0    0    0  0.00000000000E+00  0.00000000000E+00  0.45593999997E+02  0.45594000000E+02  0.51100000000E-03 0.  1.
         11   -1    0    0    0    0 -0.00000000000E+00 -0.00000000000E+00 -0.45593999997E+02  0.45594000000E+02  0.51100000000E-03 0. -1.
    9900012    2    1    2    0    0 -0.40621982023E+02  0.12468823577E+02 -0.88320736625E+01  0.47787279845E+02  0.20000040123E+02 0.  0.
         12    1    1    2    0    0  0.40621982023E+02 -0.12468823577E+02  0.88320736625E+01  0.43400720155E+02  0.00000000000E+00 0. -1.
         11    1    3    3    0    0  0.14246629929E+00 -0.60610916185E-01 -0.34244413999E+01  0.34279395403E+01  0.51100000000E-03 0. -1.
        -11    1    3    3    0    0 -0.30749977887E+02  0.57524888081E+01 -0.43949372460E+00  0.31286505438E+02  0.51100000000E-03 0.  1.
         12    1    3    3    0    0 -0.10014470435E+02  0.67769456849E+01 -0.49681385380E+01  0.13072834866E+02  0.00000000000E+00 0. -1.
</event>
<event>
 7    1  0.4876728E-009  0.4778727E+02  0.7816164E-02  0.1312668E+00
        -11   -1    0    0    0    0  0.00000000000E+00  0.00000000000E+00  0.45593999997E+02  0.45594000000E+02  0.51100000000E-03 0. -1.
         11   -1    0    0    0    0 -0.00000000000E+00 -0.00000000000E+00 -0.45593999997E+02  0.45594000000E+02  0.51100000000E-03 0.  1.
    9900012    2    1    2    0    0  0.32616391666E+02 -0.19585248406E+02 -0.20885702255E+02  0.47787268219E+02  0.19999987118E+02 0.  0.
         12    1    1    2    0    0 -0.32616391666E+02  0.19585248406E+02  0.20885702255E+02  0.43400731781E+02  0.00000000000E+00 0. -1.
         11    1    3    3    0    0  0.96675362436E+01 -0.49159821152E+00 -0.22100338479E+01  0.99291074973E+01  0.51100000000E-03 0. -1.
        -11    1    3    3    0    0  0.45685558477E+01 -0.12488597218E+02 -0.61135199751E+01  0.14635979289E+02  0.51100000000E-03 0.  1.
         12    1    3    3    0    0  0.18380299575E+02 -0.66050529767E+01 -0.12562148432E+02  0.23222181433E+02  0.00000000000E+00 0. -1.
</event>
<event>
 7    1  0.4876728E-009  0.4778727E+02  0.7816164E-02  0.1312668E+00
        -11   -1    0    0    0    0  0.00000000000E+00  0.00000000000E+00  0.45593999997E+02  0.45594000000E+02  0.51100000000E-03 0.  1.
         11   -1    0    0    0    0 -0.00000000000E+00 -0.00000000000E+00 -0.45593999997E+02  0.45594000000E+02  0.51100000000E-03 0. -1.
    9900012    2    1    2    0    0  0.18686566061E+02  0.23547700018E+02  0.31304014027E+02  0.47787271648E+02  0.20000002753E+02 0.  0.
         12    1    1    2    0    0 -0.18686566061E+02 -0.23547700018E+02 -0.31304014027E+02  0.43400728352E+02  0.00000000000E+00 0. -1.
         11    1    3    3    0    0  0.10043323004E+02  0.26515936940E+01  0.23345856851E+01  0.10646575818E+02  0.51100000000E-03 0. -1.
        -11    1    3    3    0    0  0.28763779633E+01  0.80558266034E+01  0.15247968211E+02  0.17483432937E+02  0.51100000000E-03 0.  1.
         12    1    3    3    0    0  0.57668650939E+01  0.12840279720E+02  0.13721460131E+02  0.19657262893E+02  0.00000000000E+00 0. -1.
</event>
<event>
 7    1  0.4876728E-009  0.4778727E+02  0.7816164E-02  0.1312668E+00
        -11   -1    0    0    0    0  0.00000000000E+00  0.00000000000E+00  0.45593999997E+02  0.45594000000E+02  0.51100000000E-03 0.  1.
         11   -1    0    0    0    0 -0.00000000000E+00 -0.00000000000E+00 -0.45593999997E+02  0.45594000000E+02  0.51100000000E-03 0. -1.
    9900012    2    1    2    0    0 -0.34873561443E+02 -0.23182985793E+02 -0.11402065315E+02  0.47787271764E+02  0.20000003281E+02 0.  0.
         12    1    1    2    0    0  0.34873561443E+02  0.23182985793E+02  0.11402065315E+02  0.43400728236E+02  0.00000000000E+00 0. -1.
         11    1    3    3    0    0 -0.56621953099E+01 -0.88589034343E+01 -0.89813607551E+01  0.13827706500E+02  0.51100000000E-03 0. -1.
        -11    1    3    3    0    0 -0.25319666691E+01 -0.48225349791E+01  0.59225393871E+00  0.54789108249E+01  0.51100000000E-03 0.  1.
         12    1    3    3    0    0 -0.26679399464E+02 -0.95015473795E+01 -0.30129584984E+01  0.28480654439E+02  0.00000000000E+00 0. -1.
</event>
<event>
 7    1  0.4876728E-009  0.4778728E+02  0.7816164E-02  0.1312668E+00
        -11   -1    0    0    0    0  0.00000000000E+00  0.00000000000E+00  0.45593999997E+02  0.45594000000E+02  0.51100000000E-03 0. -1.
         11   -1    0    0    0    0 -0.00000000000E+00 -0.00000000000E+00 -0.45593999997E+02  0.45594000000E+02  0.51100000000E-03 0.  1.
    9900012    2    1    2    0    0 -0.15592827243E+01 -0.43183136461E+02  0.40506770950E+01  0.47787278553E+02  0.20000034234E+02 0.  0.
         12    1    1    2    0    0  0.15592827243E+01  0.43183136461E+02 -0.40506770950E+01  0.43400721447E+02  0.00000000000E+00 0. -1.
         11    1    3    3    0    0  0.47131329247E+01 -0.68706374733E+01  0.38067296802E+01  0.91602659554E+01  0.51100000000E-03 0. -1.
        -11    1    3    3    0    0 -0.74742174458E+01 -0.30791503776E+02  0.38581656423E+01  0.31919681602E+02  0.51100000000E-03 0.  1.
        -12    1    3    3    0    0  0.12018017968E+01 -0.55209952113E+01 -0.36142182275E+01  0.67073309951E+01  0.00000000000E+00 0.  1.
</event>
<event>
 7    1  0.4876728E-009  0.4778727E+02  0.7816164E-02  0.1312668E+00
        -11   -1    0    0    0    0  0.00000000000E+00  0.00000000000E+00  0.45593999997E+02  0.45594000000E+02  0.51100000000E-03 0. -1.
         11   -1    0    0    0    0 -0.00000000000E+00 -0.00000000000E+00 -0.45593999997E+02  0.45594000000E+02  0.51100000000E-03 0.  1.
    9900012    2    1    2    0    0  0.41369642458E+02 -0.21677119315E+01  0.12941291892E+02  0.47787270421E+02  0.19999997159E+02 0.  0.
         12    1    1    2    0    0 -0.41369642458E+02  0.21677119315E+01 -0.12941291892E+02  0.43400729579E+02  0.00000000000E+00 0. -1.
         11    1    3    3    0    0  0.81828353564E+01  0.30297907908E+01 -0.45940868365E+01  0.98612403291E+01  0.51100000000E-03 0. -1.
        -11    1    3    3    0    0  0.20454339873E+02 -0.38686307916E+01  0.11309784412E+02  0.23690874773E+02  0.51100000000E-03 0.  1.
         12    1    3    3    0    0  0.12732467229E+02 -0.13288719306E+01  0.62255943166E+01  0.14235155319E+02  0.00000000000E+00 0. -1.
</event>
<event>
 7    1  0.5108123E-009  0.4778727E+02  0.7816164E-02  0.1312668E+00
        -11   -1    0    0    0    0  0.00000000000E+00  0.00000000000E+00  0.45593999997E+02  0.45594000000E+02  0.51100000000E-03 0.  1.
         11   -1    0    0    0    0 -0.00000000000E+00 -0.00000000000E+00 -0.45593999997E+02  0.45594000000E+02  0.51100000000E-03 0. -1.
    9900012    2    1    2    0    0  0.31933852182E+02  0.17465932053E+02  0.23638814895E+02  0.47787271120E+02  0.20000000343E+02 0.  0.
         12    1    1    2    0    0 -0.31933852182E+02 -0.17465932053E+02 -0.23638814895E+02  0.43400728880E+02  0.00000000000E+00 0. -1.
         11    1    3    3    0    0 -0.18009509103E+01 -0.50309478815E+00  0.13346848104E+01  0.22973707475E+01  0.51100000000E-03 0. -1.
        -11    1    3    3    0    0  0.22382276664E+02  0.61366081974E+01  0.12051708238E+02  0.26150868829E+02  0.51100000000E-03 0.  1.
         12    1    3    3    0    0  0.11352526429E+02  0.11832418644E+02  0.10252421847E+02  0.19339031543E+02  0.00000000000E+00 0. -1.
</event>
<event>
 7    1  0.4876728E-009  0.4778727E+02  0.7816164E-02  0.1312668E+00
        -11   -1    0    0    0    0  0.00000000000E+00  0.00000000000E+00  0.45593999997E+02  0.45594000000E+02  0.51100000000E-03 0. -1.
         11   -1    0    0    0    0 -0.00000000000E+00 -0.00000000000E+00 -0.45593999997E+02  0.45594000000E+02  0.51100000000E-03 0.  1.
    9900012    2    1    2    0    0  0.19757117790E+02 -0.36811088747E+02 -0.11756842236E+02  0.47787270773E+02  0.19999998761E+02 0.  0.
         12    1    1    2    0    0 -0.19757117790E+02  0.36811088747E+02  0.11756842236E+02  0.43400729227E+02  0.00000000000E+00 0. -1.
         11    1    3    3    0    0  0.17924500738E+02 -0.16165602456E+02 -0.41939337878E+01  0.24499051214E+02  0.51100000000E-03 0. -1.
        -11    1    3    3    0    0 -0.25924965611E+01 -0.96538355466E+01 -0.49508799044E+01  0.11154765406E+02  0.51100000000E-03 0.  1.
        -12    1    3    3    0    0  0.44251136126E+01 -0.10991650744E+02 -0.26120285440E+01  0.12133454153E+02  0.00000000000E+00 0.  1.
</event>
<event>
 7    1  0.4876728E-009  0.4778723E+02  0.7816164E-02  0.1312668E+00
        -11   -1    0    0    0    0  0.00000000000E+00  0.00000000000E+00  0.45593999997E+02  0.45594000000E+02  0.51100000000E-03 0.  1.
         11   -1    0    0    0    0 -0.00000000000E+00 -0.00000000000E+00 -0.45593999997E+02  0.45594000000E+02  0.51100000000E-03 0. -1.
    9900012    2    1    2    0    0 -0.23479023870E+02  0.26188480049E+01  0.36407467578E+02  0.47787232470E+02  0.19999824122E+02 0.  0.
         12    1    1    2    0    0  0.23479023870E+02 -0.26188480049E+01 -0.36407467578E+02  0.43400767530E+02  0.00000000000E+00 0. -1.
         11    1    3    3    0    0 -0.26510631070E+01  0.69997927287E+01  0.62242841006E+01  0.97348316199E+01  0.51100000000E-03 0. -1.
        -11    1    3    3    0    0 -0.20909364139E+02 -0.57279505108E+01  0.29263807807E+02  0.36419519126E+02  0.51100000000E-03 0.  1.
        -12    1    3    3    0    0  0.81403375900E-01  0.13470057871E+01  0.91937567060E+00  0.16328817237E+01  0.00000000000E+00 0.  1.
</event>
<event>
 7    1  0.4876728E-009  0.4778727E+02  0.7816164E-02  0.1312668E+00
        -11   -1    0    0    0    0  0.00000000000E+00  0.00000000000E+00  0.45593999997E+02  0.45594000000E+02  0.51100000000E-03 0.  1.
         11   -1    0    0    0    0 -0.00000000000E+00 -0.00000000000E+00 -0.45593999997E+02  0.45594000000E+02  0.51100000000E-03 0. -1.
    9900012    2    1    2    0    0  0.26529647247E+02 -0.24828743130E+02  0.23734673870E+02  0.47787269451E+02  0.19999992737E+02 0.  0.
         12    1    1    2    0    0 -0.26529647247E+02  0.24828743130E+02 -0.23734673870E+02  0.43400730549E+02  0.00000000000E+00 0. -1.
         11    1    3    3    0    0  0.10801698270E+02 -0.10072599886E+02  0.63475956497E+01  0.16075631396E+02  0.51100000000E-03 0.  1.
        -11    1    3    3    0    0 -0.13545639305E+01 -0.58940964672E+01  0.43127565992E+00  0.60631027999E+01  0.51100000000E-03 0. -1.
        -12    1    3    3    0    0  0.17082512907E+02 -0.88620467765E+01  0.16955802560E+02  0.25648535256E+02  0.00000000000E+00 0.  1.
</event>
<event>
 7    1  0.4876728E-009  0.4778727E+02  0.7816164E-02  0.1312668E+00
        -11   -1    0    0    0    0  0.00000000000E+00  0.00000000000E+00  0.45593999997E+02  0.45594000000E+02  0.51100000000E-03 0.  1.
         11   -1    0    0    0    0 -0.00000000000E+00 -0.00000000000E+00 -0.45593999997E+02  0.45594000000E+02  0.51100000000E-03 0. -1.
    9900012    2    1    2    0    0  0.36654364830E+02  0.18673817219E+02  0.13833638105E+02  0.47787268971E+02  0.19999990546E+02 0.  0.
         12    1    1    2    0    0 -0.36654364830E+02 -0.18673817219E+02 -0.13833638105E+02  0.43400731029E+02  0.00000000000E+00 0. -1.
         11    1    3    3    0    0  0.27609640772E+01 -0.13586984980E+01  0.58259830782E+01  0.65887072581E+01  0.51100000000E-03 0. -1.
        -11    1    3    3    0    0  0.32024820538E+02  0.17213446231E+02  0.93804806683E+01  0.37548439109E+02  0.51100000000E-03 0.  1.
         12    1    3    3    0    0  0.18685802144E+01  0.28190694859E+01 -0.13728256410E+01  0.36501226040E+01  0.00000000000E+00 0. -1.
</event>
<event>
 7    1  0.4876728E-009  0.4778727E+02  0.7816164E-02  0.1312668E+00
        -11   -1    0    0    0    0  0.00000000000E+00  0.00000000000E+00  0.45593999997E+02  0.45594000000E+02  0.51100000000E-03 0. -1.
         11   -1    0    0    0    0 -0.00000000000E+00 -0.00000000000E+00 -0.45593999997E+02  0.45594000000E+02  0.51100000000E-03 0.  1.
    9900012    2    1    2    0    0  0.17922490559E+02  0.38872136056E+02 -0.71669344789E+01  0.47787267527E+02  0.19999983963E+02 0.  0.
         12    1    1    2    0    0 -0.17922490559E+02 -0.38872136056E+02  0.71669344789E+01  0.43400732473E+02  0.00000000000E+00 0. -1.
         11    1    3    3    0    0  0.59428359499E+01  0.89014680990E+01 -0.34444587267E+00  0.10708504875E+02  0.51100000000E-03 0.  1.
        -11    1    3    3    0    0  0.56084416380E+01  0.64052594640E+01  0.50864187913E+01  0.99173395016E+01  0.51100000000E-03 0. -1.
        -12    1    3    3    0    0  0.63712129710E+01  0.23565408493E+02 -0.11908907398E+02  0.27161423150E+02  0.00000000000E+00 0.  1.
</event>
<event>
 7    1  0.4876728E-009  0.4778728E+02  0.7816164E-02  0.1312668E+00
        -11   -1    0    0    0    0  0.00000000000E+00  0.00000000000E+00  0.45593999997E+02  0.45594000000E+02  0.51100000000E-03 0.  1.
         11   -1    0    0    0    0 -0.00000000000E+00 -0.00000000000E+00 -0.45593999997E+02  0.45594000000E+02  0.51100000000E-03 0. -1.
    9900012    2    1    2    0    0 -0.88898146355E+01 -0.23957777846E+02  0.35080179589E+02  0.47787275081E+02  0.20000018402E+02 0.  0.
         12    1    1    2    0    0  0.88898146355E+01  0.23957777846E+02 -0.35080179589E+02  0.43400724919E+02  0.00000000000E+00 0. -1.
         11    1    3    3    0    0 -0.29571999131E+01 -0.73422674374E+01  0.47199634828E+01  0.92158547074E+01  0.51100000000E-03 0. -1.
        -11    1    3    3    0    0 -0.10921321192E+02 -0.10963306976E+02  0.15468742360E+02  0.21880387265E+02  0.51100000000E-03 0.  1.
        -12    1    3    3    0    0  0.49887064694E+01 -0.56522034328E+01  0.14891473746E+02  0.16691033108E+02  0.00000000000E+00 0.  1.
</event>
<event>
 7    1  0.4876728E-009  0.4778727E+02  0.7816164E-02  0.1312668E+00
        -11   -1    0    0    0    0  0.00000000000E+00  0.00000000000E+00  0.45593999997E+02  0.45594000000E+02  0.51100000000E-03 0. -1.
         11   -1    0    0    0    0 -0.00000000000E+00 -0.00000000000E+00 -0.45593999997E+02  0.45594000000E+02  0.51100000000E-03 0.  1.
    9900012    2    1    2    0    0 -0.25782855331E+02 -0.30052912764E+02 -0.17767665660E+02  0.47787272614E+02  0.20000007156E+02 0.  0.
         12    1    1    2    0    0  0.25782855331E+02  0.30052912764E+02  0.17767665660E+02  0.43400727386E+02  0.00000000000E+00 0. -1.
         11    1    3    3    0    0 -0.23046539381E+01  0.32670539635E+00  0.66766263012E+00  0.24215573170E+01  0.51100000000E-03 0. -1.
        -11    1    3    3    0    0 -0.19635334062E+02 -0.22432219338E+02 -0.64861670090E+01  0.30509362020E+02  0.51100000000E-03 0.  1.
        -12    1    3    3    0    0 -0.38428673309E+01 -0.79473988231E+01 -0.11949161281E+02  0.14856353277E+02  0.00000000000E+00 0.  1.
</event>
<event>
 7    1  0.4876728E-009  0.4778727E+02  0.7816164E-02  0.1312668E+00
        -11   -1    0    0    0    0  0.00000000000E+00  0.00000000000E+00  0.45593999997E+02  0.45594000000E+02  0.51100000000E-03 0. -1.
         11   -1    0    0    0    0 -0.00000000000E+00 -0.00000000000E+00 -0.45593999997E+02  0.45594000000E+02  0.51100000000E-03 0.  1.
    9900012    2    1    2    0    0 -0.36565634550E+02 -0.20335333883E+02 -0.11534808840E+02  0.47787271329E+02  0.20000001296E+02 0.  0.
         12    1    1    2    0    0  0.36565634550E+02  0.20335333883E+02  0.11534808840E+02  0.43400728671E+02  0.00000000000E+00 0. -1.
         11    1    3    3    0    0 -0.21112141364E+02 -0.46813776119E+01  0.12179015518E+00  0.21625277858E+02  0.51100000000E-03 0. -1.
        -11    1    3    3    0    0 -0.44136721870E+01 -0.97666172826E+01 -0.37168185356E+01  0.11343811335E+02  0.51100000000E-03 0.  1.
        -12    1    3    3    0    0 -0.11039820999E+02 -0.58873389888E+01 -0.79397804594E+01  0.14818182136E+02  0.00000000000E+00 0.  1.
</event>
<event>
 7    1  0.4876728E-009  0.4778726E+02  0.7816164E-02  0.1312668E+00
        -11   -1    0    0    0    0  0.00000000000E+00  0.00000000000E+00  0.45593999997E+02  0.45594000000E+02  0.51100000000E-03 0.  1.
         11   -1    0    0    0    0 -0.00000000000E+00 -0.00000000000E+00 -0.45593999997E+02  0.45594000000E+02  0.51100000000E-03 0. -1.
    9900012    2    1    2    0    0  0.11833487090E+02  0.57041317287E+01  0.41364907983E+02  0.47787260975E+02  0.19999954088E+02 0.  0.
         12    1    1    2    0    0 -0.11833487090E+02 -0.57041317287E+01 -0.41364907983E+02  0.43400739025E+02  0.00000000000E+00 0. -1.
         11    1    3    3    0    0 -0.74385765212E+00 -0.48521501831E+01  0.62304652964E+01  0.79319218149E+01  0.51100000000E-03 0. -1.
        -11    1    3    3    0    0  0.10138608798E+02  0.59194690778E+01  0.31102295816E+02  0.33244312413E+02  0.51100000000E-03 0.  1.
         12    1    3    3    0    0  0.24387359445E+01  0.46368128341E+01  0.40321468710E+01  0.66110267474E+01  0.00000000000E+00 0. -1.
</event>
<event>
 7    1  0.4876728E-009  0.4778727E+02  0.7816164E-02  0.1312668E+00
        -11   -1    0    0    0    0  0.00000000000E+00  0.00000000000E+00  0.45593999997E+02  0.45594000000E+02  0.51100000000E-03 0. -1.
         11   -1    0    0    0    0 -0.00000000000E+00 -0.00000000000E+00 -0.45593999997E+02  0.45594000000E+02  0.51100000000E-03 0.  1.
    9900012    2    1    2    0    0 -0.25887469491E+02  0.26773740030E+02 -0.22285172340E+02  0.47787272609E+02  0.20000007134E+02 0.  0.
         12    1    1    2    0    0  0.25887469491E+02 -0.26773740030E+02  0.22285172340E+02  0.43400727391E+02  0.00000000000E+00 0. -1.
         11    1    3    3    0    0 -0.88164756621E+01  0.14736201174E+02 -0.19719099631E+02  0.26148207561E+02  0.51100000000E-03 0.  1.
        -11    1    3    3    0    0 -0.54458262471E+01  0.60864585840E+01  0.63768245031E+00  0.81919863755E+01  0.51100000000E-03 0. -1.
         12    1    3    3    0    0 -0.11625167582E+02  0.59510802717E+01 -0.32037551600E+01  0.13447078673E+02  0.00000000000E+00 0. -1.
</event>
<event>
 7    1  0.4876728E-009  0.4778727E+02  0.7816164E-02  0.1312668E+00
        -11   -1    0    0    0    0  0.00000000000E+00  0.00000000000E+00  0.45593999997E+02  0.45594000000E+02  0.51100000000E-03 0.  1.
         11   -1    0    0    0    0 -0.00000000000E+00 -0.00000000000E+00 -0.45593999997E+02  0.45594000000E+02  0.51100000000E-03 0. -1.
    9900012    2    1    2    0    0  0.30243846418E+02  0.10002791342E+02  0.29476727300E+02  0.47787268058E+02  0.19999986386E+02 0.  0.
         12    1    1    2    0    0 -0.30243846418E+02 -0.10002791342E+02 -0.29476727300E+02  0.43400731942E+02  0.00000000000E+00 0. -1.
         11    1    3    3    0    0  0.24534190502E+02  0.11193456883E+01  0.13949708352E+02  0.28244889834E+02  0.51100000000E-03 0. -1.
        -11    1    3    3    0    0 -0.46070623960E+00  0.28578550854E+01  0.61799846010E+01  0.68243531458E+01  0.51100000000E-03 0.  1.
        -12    1    3    3    0    0  0.61703621552E+01  0.60255905687E+01  0.93470343469E+01  0.12718025079E+02  0.00000000000E+00 0.  1.
</event>
<event>
 7    1  0.4876728E-009  0.4778727E+02  0.7816164E-02  0.1312668E+00
        -11   -1    0    0    0    0  0.00000000000E+00  0.00000000000E+00  0.45593999997E+02  0.45594000000E+02  0.51100000000E-03 0.  1.
         11   -1    0    0    0    0 -0.00000000000E+00 -0.00000000000E+00 -0.45593999997E+02  0.45594000000E+02  0.51100000000E-03 0. -1.
    9900012    2    1    2    0    0  0.39149567150E+02  0.10091035020E+02  0.15783080815E+02  0.47787271483E+02  0.20000001998E+02 0.  0.
         12    1    1    2    0    0 -0.39149567150E+02 -0.10091035020E+02 -0.15783080815E+02  0.43400728517E+02  0.00000000000E+00 0. -1.
         11    1    3    3    0    0  0.10329294829E+02  0.39762792788E+00  0.12018885289E+01  0.10406583297E+02  0.51100000000E-03 0. -1.
        -11    1    3    3    0    0  0.12429156064E+02  0.28362123833E+00 -0.15551029804E+01  0.12529274002E+02  0.51100000000E-03 0.  1.
        -12    1    3    3    0    0  0.16391116257E+02  0.94097858534E+01  0.16136295267E+02  0.24851414183E+02  0.00000000000E+00 0.  1.
</event>
<event>
 7    1  0.4876728E-009  0.4778727E+02  0.7816164E-02  0.1312668E+00
        -11   -1    0    0    0    0  0.00000000000E+00  0.00000000000E+00  0.45593999997E+02  0.45594000000E+02  0.51100000000E-03 0.  1.
         11   -1    0    0    0    0 -0.00000000000E+00 -0.00000000000E+00 -0.45593999997E+02  0.45594000000E+02  0.51100000000E-03 0. -1.
    9900012    2    1    2    0    0  0.19624064719E+02  0.38624494592E+02 -0.25822001913E+01  0.47787271246E+02  0.20000000917E+02 0.  0.
         12    1    1    2    0    0 -0.19624064719E+02 -0.38624494592E+02  0.25822001913E+01  0.43400728754E+02  0.00000000000E+00 0. -1.
         11    1    3    3    0    0  0.18780323070E+01  0.17998283400E+01  0.25151246369E+01  0.36183199969E+01  0.51100000000E-03 0. -1.
        -11    1    3    3    0    0  0.18486888871E+02  0.21068385372E+02 -0.44640182130E+01  0.28382554169E+02  0.51100000000E-03 0.  1.
        -12    1    3    3    0    0 -0.74085645948E+00  0.15756280880E+02 -0.63330661522E+00  0.15786397079E+02  0.00000000000E+00 0.  1.
</event>
<event>
 7    1  0.4876728E-009  0.4778727E+02  0.7816164E-02  0.1312668E+00
        -11   -1    0    0    0    0  0.00000000000E+00  0.00000000000E+00  0.45593999997E+02  0.45594000000E+02  0.51100000000E-03 0.  1.
         11   -1    0    0    0    0 -0.00000000000E+00 -0.00000000000E+00 -0.45593999997E+02  0.45594000000E+02  0.51100000000E-03 0. -1.
    9900012    2    1    2    0    0 -0.64039799424E+00 -0.40565785859E+02  0.15415258681E+02  0.47787270834E+02  0.19999999041E+02 0.  0.
         12    1    1    2    0    0  0.64039799424E+00  0.40565785859E+02 -0.15415258681E+02  0.43400729166E+02  0.00000000000E+00 0. -1.
         11    1    3    3    0    0 -0.47485112821E+01 -0.52311389061E+01 -0.25607127989E+01  0.75146805621E+01  0.51100000000E-03 0. -1.
        -11    1    3    3    0    0  0.77084601050E+00 -0.25341164047E+02  0.14336841894E+02  0.29125827621E+02  0.51100000000E-03 0.  1.
        -12    1    3    3    0    0  0.33372672773E+01 -0.99934829055E+01  0.36391295858E+01  0.11146762651E+02  0.00000000000E+00 0.  1.
</event>
<event>
 7    1  0.4876728E-009  0.4778727E+02  0.7816164E-02  0.1312668E+00
        -11   -1    0    0    0    0  0.00000000000E+00  0.00000000000E+00  0.45593999997E+02  0.45594000000E+02  0.51100000000E-03 0. -1.
         11   -1    0    0    0    0 -0.00000000000E+00 -0.00000000000E+00 -0.45593999997E+02  0.45594000000E+02  0.51100000000E-03 0.  1.
    9900012    2    1    2    0    0 -0.24195855181E+02  0.12427099755E+02 -0.33819391917E+02  0.47787268602E+02  0.19999988862E+02 0.  0.
         12    1    1    2    0    0  0.24195855181E+02 -0.12427099755E+02  0.33819391917E+02  0.43400731398E+02  0.00000000000E+00 0. -1.
         11    1    3    3    0    0 -0.20029304833E+02  0.65655095657E+01 -0.12748438607E+02  0.24633344376E+02  0.51100000000E-03 0.  1.
        -11    1    3    3    0    0 -0.45356538169E+00  0.21389971151E+00 -0.11080987863E+02  0.11092329193E+02  0.51100000000E-03 0. -1.
        -12    1    3    3    0    0 -0.37129849659E+01  0.56476904777E+01 -0.99899654475E+01  0.12061595033E+02  0.00000000000E+00 0.  1.
</event>
<event>
 7    1  0.4876728E-009  0.4778727E+02  0.7816164E-02  0.1312668E+00
        -11   -1    0    0    0    0  0.00000000000E+00  0.00000000000E+00  0.45593999997E+02  0.45594000000E+02  0.51100000000E-03 0.  1.
         11   -1    0    0    0    0 -0.00000000000E+00 -0.00000000000E+00 -0.45593999997E+02  0.45594000000E+02  0.51100000000E-03 0. -1.
    9900012    2    1    2    0    0  0.21856974049E+02 -0.14354382257E+02  0.34638817786E+02  0.47787270718E+02  0.19999998512E+02 0.  0.
         12    1    1    2    0    0 -0.21856974049E+02  0.14354382257E+02 -0.34638817786E+02  0.43400729282E+02  0.00000000000E+00 0. -1.
         11    1    3    3    0    0  0.14172138270E+02 -0.39183817309E+00  0.99729323378E+01  0.17333851850E+02  0.51100000000E-03 0. -1.
        -11    1    3    3    0    0  0.91926814361E+01 -0.11300875333E+02  0.22054260118E+02  0.26431147627E+02  0.51100000000E-03 0.  1.
         12    1    3    3    0    0 -0.15078456568E+01 -0.26616687514E+01  0.26116253306E+01  0.40222712408E+01  0.00000000000E+00 0. -1.
</event>
<event>
 7    1  0.4876728E-009  0.4778728E+02  0.7816164E-02  0.1312668E+00
        -11   -1    0    0    0    0  0.00000000000E+00  0.00000000000E+00  0.45593999997E+02  0.45594000000E+02  0.51100000000E-03 0.  1.
         11   -1    0    0    0    0 -0.00000000000E+00 -0.00000000000E+00 -0.45593999997E+02  0.45594000000E+02  0.51100000000E-03 0. -1.
    9900012    2    1    2    0    0  0.37412482124E+02  0.15072630064E+02  0.16023255937E+02  0.47787277350E+02  0.20000028750E+02 0.  0.
         12    1    1    2    0    0 -0.37412482124E+02 -0.15072630064E+02 -0.16023255937E+02  0.43400722650E+02  0.00000000000E+00 0. -1.
         11    1    3    3    0    0  0.76219528492E+01  0.14297998320E+01 -0.43851720241E+01  0.89088847078E+01  0.51100000000E-03 0. -1.
        -11    1    3    3    0    0  0.15185300492E+02  0.44946910040E+01  0.10464141028E+02  0.18981407903E+02  0.51100000000E-03 0.  1.
         12    1    3    3    0    0  0.14605228782E+02  0.91481392280E+01  0.99442869336E+01  0.19896984740E+02  0.00000000000E+00 0. -1.
</event>
<event>
 7    1  0.4876728E-009  0.4778728E+02  0.7816164E-02  0.1312668E+00
        -11   -1    0    0    0    0  0.00000000000E+00  0.00000000000E+00  0.45593999997E+02  0.45594000000E+02  0.51100000000E-03 0. -1.
         11   -1    0    0    0    0 -0.00000000000E+00 -0.00000000000E+00 -0.45593999997E+02  0.45594000000E+02  0.51100000000E-03 0.  1.
    9900012    2    1    2    0    0 -0.42594964451E+02  0.71237698086E+01  0.43062107019E+01  0.47787279459E+02  0.20000038367E+02 0.  0.
         12    1    1    2    0    0  0.42594964451E+02 -0.71237698086E+01 -0.43062107019E+01  0.43400720541E+02  0.00000000000E+00 0. -1.
         11    1    3    3    0    0 -0.14342055071E+02 -0.48660186467E+01  0.46737809679E+01  0.15849823656E+02  0.51100000000E-03 0. -1.
        -11    1    3    3    0    0 -0.99930494511E+01  0.40279021502E+00 -0.21790135506E+01  0.10235789056E+02  0.51100000000E-03 0.  1.
         12    1    3    3    0    0 -0.18259859928E+02  0.11586998240E+02  0.18114432846E+01  0.21701666747E+02  0.00000000000E+00 0. -1.
</event>
<event>
 7    1  0.4876728E-009  0.4778727E+02  0.7816164E-02  0.1312668E+00
        -11   -1    0    0    0    0  0.00000000000E+00  0.00000000000E+00  0.45593999997E+02  0.45594000000E+02  0.51100000000E-03 0. -1.
         11   -1    0    0    0    0 -0.00000000000E+00 -0.00000000000E+00 -0.45593999997E+02  0.45594000000E+02  0.51100000000E-03 0.  1.
    9900012    2    1    2    0    0 -0.27939130265E+02  0.32311286172E+02 -0.76817512137E+01  0.47787268258E+02  0.19999987294E+02 0.  0.
         12    1    1    2    0    0  0.27939130265E+02 -0.32311286172E+02  0.76817512137E+01  0.43400731742E+02  0.00000000000E+00 0. -1.
         11    1    3    3    0    0 -0.15921536707E+02  0.57027126431E+01 -0.13799571667E+01  0.16968221612E+02  0.51100000000E-03 0. -1.
        -11    1    3    3    0    0 -0.60875458381E+01  0.19543985583E+02 -0.17817814626E+01  0.20547514016E+02  0.51100000000E-03 0.  1.
        -12    1    3    3    0    0 -0.59300477192E+01  0.70645879461E+01 -0.45200125844E+01  0.10271532630E+02  0.00000000000E+00 0.  1.
</event>
<event>
 7    1  0.4876728E-009  0.4778727E+02  0.7816164E-02  0.1312668E+00
        -11   -1    0    0    0    0  0.00000000000E+00  0.00000000000E+00  0.45593999997E+02  0.45594000000E+02  0.51100000000E-03 0.  1.
         11   -1    0    0    0    0 -0.00000000000E+00 -0.00000000000E+00 -0.45593999997E+02  0.45594000000E+02  0.51100000000E-03 0. -1.
    9900012    2    1    2    0    0  0.11090146765E+01 -0.13124363020E+02  0.41353891437E+02  0.47787272412E+02  0.20000006234E+02 0.  0.
         12    1    1    2    0    0 -0.11090146765E+01  0.13124363020E+02 -0.41353891437E+02  0.43400727588E+02  0.00000000000E+00 0. -1.
         11    1    3    3    0    0  0.61430370966E+01 -0.55237939060E+01  0.23619972285E+02  0.25023035286E+02  0.51100000000E-03 0. -1.
        -11    1    3    3    0    0 -0.72243920017E+01 -0.76699848142E+01  0.17668564874E+02  0.20571793598E+02  0.51100000000E-03 0.  1.
        -12    1    3    3    0    0  0.21903695816E+01  0.69415700404E-01  0.65354276962E-01  0.21924435283E+01  0.00000000000E+00 0.  1.
</event>
<event>
 7    1  0.4876728E-009  0.4778727E+02  0.7816164E-02  0.1312668E+00
        -11   -1    0    0    0    0  0.00000000000E+00  0.00000000000E+00  0.45593999997E+02  0.45594000000E+02  0.51100000000E-03 0.  1.
         11   -1    0    0    0    0 -0.00000000000E+00 -0.00000000000E+00 -0.45593999997E+02  0.45594000000E+02  0.51100000000E-03 0. -1.
    9900012    2    1    2    0    0 -0.83520005598E+01 -0.29381781484E+02  0.30831450342E+02  0.47787270436E+02  0.19999997224E+02 0.  0.
         12    1    1    2    0    0  0.83520005598E+01  0.29381781484E+02 -0.30831450342E+02  0.43400729564E+02  0.00000000000E+00 0. -1.
         11    1    3    3    0    0 -0.61258429791E+01 -0.67006670994E+00  0.71177622164E+01  0.94147480493E+01  0.51100000000E-03 0. -1.
        -11    1    3    3    0    0  0.74534510351E+00 -0.19215572101E+02  0.10751197547E+02  0.22031386689E+02  0.51100000000E-03 0.  1.
        -12    1    3    3    0    0 -0.29715026842E+01 -0.94961426729E+01  0.12962490578E+02  0.16341135697E+02  0.00000000000E+00 0.  1.
</event>
<event>
 7    1  0.4876728E-009  0.4778730E+02  0.7816164E-02  0.1312668E+00
        -11   -1    0    0    0    0  0.00000000000E+00  0.00000000000E+00  0.45593999997E+02  0.45594000000E+02  0.51100000000E-03 0. -1.
         11   -1    0    0    0    0 -0.00000000000E+00 -0.00000000000E+00 -0.45593999997E+02  0.45594000000E+02  0.51100000000E-03 0.  1.
    9900012    2    1    2    0    0  0.74527491528E+01 -0.15432034980E+01 -0.42728166181E+02  0.47787295718E+02  0.20000112498E+02 0.  0.
         12    1    1    2    0    0 -0.74527491528E+01  0.15432034980E+01  0.42728166181E+02  0.43400704282E+02  0.00000000000E+00 0. -1.
         11    1    3    3    0    0 -0.45703019151E+00 -0.60800684573E+01 -0.16544919375E+02  0.17632653415E+02  0.51100000000E-03 0. -1.
        -11    1    3    3    0    0  0.10290812248E+02  0.94476612689E+00 -0.15439636513E+02  0.18578906741E+02  0.51100000000E-03 0.  1.
        -12    1    3    3    0    0 -0.23810329041E+01  0.35920988324E+01 -0.10743610292E+02  0.11575735563E+02  0.00000000000E+00 0.  1.
</event>
<event>
 7    1  0.4876728E-009  0.4778727E+02  0.7816164E-02  0.1312668E+00
        -11   -1    0    0    0    0  0.00000000000E+00  0.00000000000E+00  0.45593999997E+02  0.45594000000E+02  0.51100000000E-03 0.  1.
         11   -1    0    0    0    0 -0.00000000000E+00 -0.00000000000E+00 -0.45593999997E+02  0.45594000000E+02  0.51100000000E-03 0. -1.
    9900012    2    1    2    0    0 -0.41205589046E+01 -0.43178940522E+02  0.14910974983E+01  0.47787270951E+02  0.19999999573E+02 0.  0.
         12    1    1    2    0    0  0.41205589046E+01  0.43178940522E+02 -0.14910974983E+01  0.43400729049E+02  0.00000000000E+00 0. -1.
         11    1    3    3    0    0 -0.21732440324E+00  0.10289978642E+01 -0.25428068099E+01  0.27517145990E+01  0.51100000000E-03 0. -1.
        -11    1    3    3    0    0 -0.57055532986E+01 -0.35768402212E+02  0.30177256791E+01  0.36346094752E+02  0.51100000000E-03 0.  1.
        -12    1    3    3    0    0  0.18023187972E+01 -0.84395361741E+01  0.10161786291E+01  0.86894615994E+01  0.00000000000E+00 0.  1.
</event>
<event>
 7    1  0.4876728E-009  0.4778727E+02  0.7816164E-02  0.1312668E+00
        -11   -1    0    0    0    0  0.00000000000E+00  0.00000000000E+00  0.45593999997E+02  0.45594000000E+02  0.51100000000E-03 0.  1.
         11   -1    0    0    0    0 -0.00000000000E+00 -0.00000000000E+00 -0.45593999997E+02  0.45594000000E+02  0.51100000000E-03 0. -1.
    9900012    2    1    2    0    0 -0.32781307177E+02 -0.28032818658E+02 -0.48135692845E+01  0.47787268768E+02  0.19999989622E+02 0.  0.
         12    1    1    2    0    0  0.32781307177E+02  0.28032818658E+02  0.48135692845E+01  0.43400731232E+02  0.00000000000E+00 0. -1.
         11    1    3    3    0    0 -0.95789826015E+01 -0.15343178201E+02  0.58491385355E+00  0.18097296745E+02  0.51100000000E-03 0. -1.
        -11    1    3    3    0    0 -0.15010373615E+02 -0.28001779395E+01  0.10783996088E+01  0.15307359620E+02  0.51100000000E-03 0.  1.
        -12    1    3    3    0    0 -0.81919509604E+01 -0.98894625179E+01 -0.64768827469E+01  0.14382612403E+02  0.00000000000E+00 0.  1.
</event>
<event>
 7    1  0.4876728E-009  0.4778726E+02  0.7816164E-02  0.1312668E+00
        -11   -1    0    0    0    0  0.00000000000E+00  0.00000000000E+00  0.45593999997E+02  0.45594000000E+02  0.51100000000E-03 0.  1.
         11   -1    0    0    0    0 -0.00000000000E+00 -0.00000000000E+00 -0.45593999997E+02  0.45594000000E+02  0.51100000000E-03 0. -1.
    9900012    2    1    2    0    0  0.18540779913E+02  0.77899812665E+01  0.38460104645E+02  0.47787262941E+02  0.19999963054E+02 0.  0.
         12    1    1    2    0    0 -0.18540779913E+02 -0.77899812665E+01 -0.38460104645E+02  0.43400737059E+02  0.00000000000E+00 0. -1.
         11    1    3    3    0    0  0.12740692482E+02  0.11260352386E+02  0.35681744082E+02  0.39526037516E+02  0.51100000000E-03 0. -1.
        -11    1    3    3    0    0  0.36352189855E+01 -0.41225497526E+01  0.16787401236E+01  0.57470342090E+01  0.51100000000E-03 0.  1.
        -12    1    3    3    0    0  0.21648684459E+01  0.65217863311E+00  0.10996204398E+01  0.25141912157E+01  0.00000000000E+00 0.  1.
</event>
<event>
 7    1  0.4876728E-009  0.4778727E+02  0.7816164E-02  0.1312668E+00
        -11   -1    0    0    0    0  0.00000000000E+00  0.00000000000E+00  0.45593999997E+02  0.45594000000E+02  0.51100000000E-03 0.  1.
         11   -1    0    0    0    0 -0.00000000000E+00 -0.00000000000E+00 -0.45593999997E+02  0.45594000000E+02  0.51100000000E-03 0. -1.
    9900012    2    1    2    0    0 -0.97865726984E+01  0.23502898801E+02  0.35149116362E+02  0.47787266846E+02  0.19999980859E+02 0.  0.
         12    1    1    2    0    0  0.97865726984E+01 -0.23502898801E+02 -0.35149116362E+02  0.43400733154E+02  0.00000000000E+00 0. -1.
         11    1    3    3    0    0  0.26954616082E+01  0.92441097178E+01  0.67316562620E+01  0.11748798834E+02  0.51100000000E-03 0.  1.
        -11    1    3    3    0    0 -0.12897603137E+02  0.71313541080E+01  0.16306158864E+02  0.21979426636E+02  0.51100000000E-03 0. -1.
         12    1    3    3    0    0  0.41556883011E+00  0.71274349750E+01  0.12111301237E+02  0.14059041376E+02  0.00000000000E+00 0. -1.
</event>
<event>
 7    1  0.4876728E-009  0.4778727E+02  0.7816164E-02  0.1312668E+00
        -11   -1    0    0    0    0  0.00000000000E+00  0.00000000000E+00  0.45593999997E+02  0.45594000000E+02  0.51100000000E-03 0. -1.
         11   -1    0    0    0    0 -0.00000000000E+00 -0.00000000000E+00 -0.45593999997E+02  0.45594000000E+02  0.51100000000E-03 0.  1.
    9900012    2    1    2    0    0 -0.11871464891E+02 -0.22883493153E+02 -0.34914710588E+02  0.47787274741E+02  0.20000016855E+02 0.  0.
         12    1    1    2    0    0  0.11871464891E+02  0.22883493153E+02  0.34914710588E+02  0.43400725259E+02  0.00000000000E+00 0. -1.
         11    1    3    3    0    0 -0.25333371932E+01 -0.16472025521E+02 -0.14900597938E+02  0.22355608720E+02  0.51100000000E-03 0.  1.
        -11    1    3    3    0    0 -0.10545948412E+02 -0.18346575826E+01 -0.15857072266E+02  0.19131903655E+02  0.51100000000E-03 0. -1.
         12    1    3    3    0    0  0.12078207146E+01 -0.45768100500E+01 -0.41570403845E+01  0.62997623662E+01  0.00000000000E+00 0. -1.
</event>
<event>
 7    1  0.4876728E-009  0.4778728E+02  0.7816164E-02  0.1312668E+00
        -11   -1    0    0    0    0  0.00000000000E+00  0.00000000000E+00  0.45593999997E+02  0.45594000000E+02  0.51100000000E-03 0.  1.
         11   -1    0    0    0    0 -0.00000000000E+00 -0.00000000000E+00 -0.45593999997E+02  0.45594000000E+02  0.51100000000E-03 0. -1.
    9900012    2    1    2    0    0  0.32333908013E+02 -0.26378261799E+01  0.28830247364E+02  0.47787275382E+02  0.20000019775E+02 0.  0.
         12    1    1    2    0    0 -0.32333908013E+02  0.26378261799E+01 -0.28830247364E+02  0.43400724618E+02  0.00000000000E+00 0. -1.
         11    1    3    3    0    0  0.30800602718E+01 -0.28602271057E+01  0.14413072610E+01  0.44435388212E+01  0.51100000000E-03 0. -1.
        -11    1    3    3    0    0  0.16553575929E+02 -0.65480867673E+01  0.21184915922E+02  0.27671266311E+02  0.51100000000E-03 0.  1.
        -12    1    3    3    0    0  0.12700271812E+02  0.67704876930E+01  0.62040241808E+01  0.15672470250E+02  0.00000000000E+00 0.  1.
</event>
<event>
 7    1  0.4876728E-009  0.4778727E+02  0.7816164E-02  0.1312668E+00
        -11   -1    0    0    0    0  0.00000000000E+00  0.00000000000E+00  0.45593999997E+02  0.45594000000E+02  0.51100000000E-03 0.  1.
         11   -1    0    0    0    0 -0.00000000000E+00 -0.00000000000E+00 -0.45593999997E+02  0.45594000000E+02  0.51100000000E-03 0. -1.
    9900012    2    1    2    0    0 -0.90733017764E+01 -0.35458613677E+02  0.23323492411E+02  0.47787269738E+02  0.19999994042E+02 0.  0.
         12    1    1    2    0    0  0.90733017764E+01  0.35458613677E+02 -0.23323492411E+02  0.43400730262E+02  0.00000000000E+00 0. -1.
         11    1    3    3    0    0 -0.91154805572E+00 -0.17536953713E+02  0.34964972695E+01  0.17905338835E+02  0.51100000000E-03 0. -1.
        -11    1    3    3    0    0 -0.10416808772E+02 -0.16954693038E+02  0.17471253605E+02  0.26480487605E+02  0.51100000000E-03 0.  1.
         12    1    3    3    0    0  0.22550550509E+01 -0.96696692632E+00  0.23557415364E+01  0.34014432974E+01  0.00000000000E+00 0. -1.
</event>
<event>
 7    1  0.4876728E-009  0.4778727E+02  0.7816164E-02  0.1312668E+00
        -11   -1    0    0    0    0  0.00000000000E+00  0.00000000000E+00  0.45593999997E+02  0.45594000000E+02  0.51100000000E-03 0.  1.
         11   -1    0    0    0    0 -0.00000000000E+00 -0.00000000000E+00 -0.45593999997E+02  0.45594000000E+02  0.51100000000E-03 0. -1.
    9900012    2    1    2    0    0  0.35080226484E+02  0.46469064355E+00  0.25549665056E+02  0.47787267149E+02  0.19999982238E+02 0.  0.
         12    1    1    2    0    0 -0.35080226484E+02 -0.46469064355E+00 -0.25549665056E+02  0.43400732851E+02  0.00000000000E+00 0. -1.
         11    1    3    3    0    0  0.32002109915E+01  0.13011627165E+01 -0.58646138185E+00  0.35040422398E+01  0.51100000000E-03 0. -1.
        -11    1    3    3    0    0  0.74641167349E+01 -0.68891284714E+01  0.45247058848E+01  0.11119626493E+02  0.51100000000E-03 0.  1.
        -12    1    3    3    0    0  0.24415898757E+02  0.60526563985E+01  0.21611420553E+02  0.33163598416E+02  0.00000000000E+00 0.  1.
</event>
<event>
 7    1  0.4876728E-009  0.4778728E+02  0.7816164E-02  0.1312668E+00
        -11   -1    0    0    0    0  0.00000000000E+00  0.00000000000E+00  0.45593999997E+02  0.45594000000E+02  0.51100000000E-03 0. -1.
         11   -1    0    0    0    0 -0.00000000000E+00 -0.00000000000E+00 -0.45593999997E+02  0.45594000000E+02  0.51100000000E-03 0.  1.
    9900012    2    1    2    0    0 -0.35438050812E+02  0.21339156877E+02 -0.13130415527E+02  0.47787275658E+02  0.20000021033E+02 0.  0.
         12    1    1    2    0    0  0.35438050812E+02 -0.21339156877E+02  0.13130415527E+02  0.43400724342E+02  0.00000000000E+00 0. -1.
         11    1    3    3    0    0 -0.53678138436E+01 -0.30537606047E+01 -0.14667872648E+00  0.61774099913E+01  0.51100000000E-03 0. -1.
        -11    1    3    3    0    0 -0.28399834429E+02  0.21826659531E+02 -0.13888908298E+02  0.38416863951E+02  0.51100000000E-03 0.  1.
         12    1    3    3    0    0 -0.16704025390E+01  0.25662579511E+01  0.90517149748E+00  0.31930017153E+01  0.00000000000E+00 0. -1.
</event>
<event>
 7    1  0.4876728E-009  0.4778727E+02  0.7816164E-02  0.1312668E+00
        -11   -1    0    0    0    0  0.00000000000E+00  0.00000000000E+00  0.45593999997E+02  0.45594000000E+02  0.51100000000E-03 0.  1.
         11   -1    0    0    0    0 -0.00000000000E+00 -0.00000000000E+00 -0.45593999997E+02  0.45594000000E+02  0.51100000000E-03 0. -1.
    9900012    2    1    2    0    0  0.65858957961E+01  0.31098377415E+02  0.29548943722E+02  0.47787272168E+02  0.20000005122E+02 0.  0.
         12    1    1    2    0    0 -0.65858957961E+01 -0.31098377415E+02 -0.29548943722E+02  0.43400727832E+02  0.00000000000E+00 0. -1.
         11    1    3    3    0    0  0.50462275477E+01  0.37041017288E+01  0.57979186669E+01  0.85323292957E+01  0.51100000000E-03 0. -1.
        -11    1    3    3    0    0 -0.64806168614E+01  0.15303386737E+02  0.10915369766E+02  0.19883091760E+02  0.51100000000E-03 0.  1.
        -12    1    3    3    0    0  0.80202851098E+01  0.12090888949E+02  0.12835655290E+02  0.19371851112E+02  0.00000000000E+00 0.  1.
</event>
<event>
 7    1  0.4876728E-009  0.4778727E+02  0.7816164E-02  0.1312668E+00
        -11   -1    0    0    0    0  0.00000000000E+00  0.00000000000E+00  0.45593999997E+02  0.45594000000E+02  0.51100000000E-03 0.  1.
         11   -1    0    0    0    0 -0.00000000000E+00 -0.00000000000E+00 -0.45593999997E+02  0.45594000000E+02  0.51100000000E-03 0. -1.
    9900012    2    1    2    0    0  0.37055734665E+02 -0.18508414786E+02  0.12958960582E+02  0.47787267877E+02  0.19999985556E+02 0.  0.
         12    1    1    2    0    0 -0.37055734665E+02  0.18508414786E+02 -0.12958960582E+02  0.43400732123E+02  0.00000000000E+00 0. -1.
         11    1    3    3    0    0  0.28526337627E+01  0.26556487539E+01  0.55586715432E+01  0.67888746692E+01  0.51100000000E-03 0. -1.
        -11    1    3    3    0    0  0.19516502105E+02 -0.10501088811E+02  0.35414780675E+01  0.22443457572E+02  0.51100000000E-03 0.  1.
         12    1    3    3    0    0  0.14686598797E+02 -0.10662974729E+02  0.38588109714E+01  0.18554935635E+02  0.00000000000E+00 0. -1.
</event>
<event>
 7    1  0.4876728E-009  0.4778727E+02  0.7816164E-02  0.1312668E+00
        -11   -1    0    0    0    0  0.00000000000E+00  0.00000000000E+00  0.45593999997E+02  0.45594000000E+02  0.51100000000E-03 0.  1.
         11   -1    0    0    0    0 -0.00000000000E+00 -0.00000000000E+00 -0.45593999997E+02  0.45594000000E+02  0.51100000000E-03 0. -1.
    9900012    2    1    2    0    0 -0.35270045961E+02 -0.20798231490E+02  0.14390305314E+02  0.47787268875E+02  0.19999990108E+02 0.  0.
         12    1    1    2    0    0  0.35270045961E+02  0.20798231490E+02 -0.14390305314E+02  0.43400731125E+02  0.00000000000E+00 0. -1.
         11    1    3    3    0    0 -0.14407300160E+01 -0.87242812527E+01  0.32668364668E+01  0.94266116456E+01  0.51100000000E-03 0. -1.
        -11    1    3    3    0    0 -0.31230063487E+02 -0.13162772714E+02  0.10415118091E+02  0.35454902849E+02  0.51100000000E-03 0.  1.
         12    1    3    3    0    0 -0.25992524580E+01  0.10888224769E+01  0.70835075532E+00  0.29057543804E+01  0.00000000000E+00 0. -1.
</event>
<event>
 7    1  0.4876728E-009  0.4778727E+02  0.7816164E-02  0.1312668E+00
        -11   -1    0    0    0    0  0.00000000000E+00  0.00000000000E+00  0.45593999997E+02  0.45594000000E+02  0.51100000000E-03 0.  1.
         11   -1    0    0    0    0 -0.00000000000E+00 -0.00000000000E+00 -0.45593999997E+02  0.45594000000E+02  0.51100000000E-03 0. -1.
    9900012    2    1    2    0    0  0.42476701585E+01  0.43642861733E+01  0.42971310553E+02  0.47787271594E+02  0.20000002504E+02 0.  0.
         12    1    1    2    0    0 -0.42476701585E+01 -0.43642861733E+01 -0.42971310553E+02  0.43400728406E+02  0.00000000000E+00 0. -1.
         11    1    3    3    0    0  0.47499962042E+01  0.50385383335E+01  0.34329317054E+02  0.35020727322E+02  0.51100000000E-03 0. -1.
        -11    1    3    3    0    0  0.10593068608E+01 -0.11981320527E+01  0.10303536695E+02  0.10426913260E+02  0.51100000000E-03 0.  1.
         12    1    3    3    0    0 -0.15616329065E+01  0.52387989252E+00 -0.16615431968E+01  0.23396310118E+01  0.00000000000E+00 0. -1.
</event>
<event>
 7    1  0.4876728E-009  0.4778729E+02  0.7816164E-02  0.1312668E+00
        -11   -1    0    0    0    0  0.00000000000E+00  0.00000000000E+00  0.45593999997E+02  0.45594000000E+02  0.51100000000E-03 0.  1.
         11   -1    0    0    0    0 -0.00000000000E+00 -0.00000000000E+00 -0.45593999997E+02  0.45594000000E+02  0.51100000000E-03 0. -1.
    9900012    2    1    2    0    0  0.76922440781E+01 -0.55912367321E+01  0.42346064176E+02  0.47787289195E+02  0.20000082757E+02 0.  0.
         12    1    1    2    0    0 -0.76922440781E+01  0.55912367321E+01 -0.42346064176E+02  0.43400710805E+02  0.00000000000E+00 0. -1.
         11    1    3    3    0    0  0.10832038720E+01 -0.76136852374E+01  0.12752545018E+02  0.14891908481E+02  0.51100000000E-03 0. -1.
        -11    1    3    3    0    0  0.48863471920E+01  0.62885434692E+01  0.10077464520E+02  0.12844355151E+02  0.51100000000E-03 0.  1.
        -12    1    3    3    0    0  0.17226930141E+01 -0.42660949639E+01  0.19516054638E+02  0.20051025563E+02  0.00000000000E+00 0.  1.
</event>
<event>
 7    1  0.4876728E-009  0.4778727E+02  0.7816164E-02  0.1312668E+00
        -11   -1    0    0    0    0  0.00000000000E+00  0.00000000000E+00  0.45593999997E+02  0.45594000000E+02  0.51100000000E-03 0.  1.
         11   -1    0    0    0    0 -0.00000000000E+00 -0.00000000000E+00 -0.45593999997E+02  0.45594000000E+02  0.51100000000E-03 0. -1.
    9900012    2    1    2    0    0  0.38968528822E+02  0.18494600248E+02 -0.47986405297E+01  0.47787269271E+02  0.19999991914E+02 0.  0.
         12    1    1    2    0    0 -0.38968528822E+02 -0.18494600248E+02  0.47986405297E+01  0.43400730729E+02  0.00000000000E+00 0. -1.
         11    1    3    3    0    0  0.31550438674E+01 -0.33109721669E+01 -0.16962246250E+01  0.48779111036E+01  0.51100000000E-03 0. -1.
        -11    1    3    3    0    0  0.19778408418E+02  0.16089180438E+02  0.53465166506E+00  0.25501627779E+02  0.51100000000E-03 0.  1.
         12    1    3    3    0    0  0.16035076536E+02  0.57163919771E+01 -0.36370675697E+01  0.17407730388E+02  0.00000000000E+00 0. -1.
</event>
<event>
 7    1  0.4876728E-009  0.4778727E+02  0.7816164E-02  0.1312668E+00
        -11   -1    0    0    0    0  0.00000000000E+00  0.00000000000E+00  0.45593999997E+02  0.45594000000E+02  0.51100000000E-03 0.  1.
         11   -1    0    0    0    0 -0.00000000000E+00 -0.00000000000E+00 -0.45593999997E+02  0.45594000000E+02  0.51100000000E-03 0. -1.
    9900012    2    1    2    0    0 -0.17873230528E+02  0.11652967623E+02  0.37793906939E+02  0.47787269297E+02  0.19999992031E+02 0.  0.
         12    1    1    2    0    0  0.17873230528E+02 -0.11652967623E+02 -0.37793906939E+02  0.43400730703E+02  0.00000000000E+00 0. -1.
         11    1    3    3    0    0  0.26301232713E-03  0.33619483872E+01 -0.10990013957E+01  0.35370187102E+01  0.51100000000E-03 0. -1.
        -11    1    3    3    0    0 -0.15761345588E+02  0.48536224000E+01  0.26455439747E+02  0.31174796834E+02  0.51100000000E-03 0.  1.
         12    1    3    3    0    0 -0.21121479516E+01  0.34373968356E+01  0.12437468587E+02  0.13075453752E+02  0.00000000000E+00 0. -1.
</event>
<event>
 7    1  0.4876728E-009  0.4778728E+02  0.7816164E-02  0.1312668E+00
        -11   -1    0    0    0    0  0.00000000000E+00  0.00000000000E+00  0.45593999997E+02  0.45594000000E+02  0.51100000000E-03 0.  1.
         11   -1    0    0    0    0 -0.00000000000E+00 -0.00000000000E+00 -0.45593999997E+02  0.45594000000E+02  0.51100000000E-03 0. -1.
    9900012    2    1    2    0    0  0.10384289406E+01  0.29342854833E+02  0.31961549086E+02  0.47787284748E+02  0.20000062479E+02 0.  0.
         12    1    1    2    0    0 -0.10384289406E+01 -0.29342854833E+02 -0.31961549086E+02  0.43400715252E+02  0.00000000000E+00 0. -1.
         11    1    3    3    0    0 -0.33301358100E+00  0.19475960052E+02  0.69360175254E+01  0.20676853178E+02  0.51100000000E-03 0. -1.
        -11    1    3    3    0    0  0.13558296090E+01  0.59014348523E+01  0.11257022719E+02  0.12782244247E+02  0.51100000000E-03 0.  1.
         12    1    3    3    0    0  0.15612912578E-01  0.39654599290E+01  0.13768508842E+02  0.14328187322E+02  0.00000000000E+00 0. -1.
</event>
<event>
 7    1  0.4876728E-009  0.4778727E+02  0.7816164E-02  0.1312668E+00
        -11   -1    0    0    0    0  0.00000000000E+00  0.00000000000E+00  0.45593999997E+02  0.45594000000E+02  0.51100000000E-03 0.  1.
         11   -1    0    0    0    0 -0.00000000000E+00 -0.00000000000E+00 -0.45593999997E+02  0.45594000000E+02  0.51100000000E-03 0. -1.
    9900012    2    1    2    0    0  0.20983732229E+02 -0.33640741669E+02  0.17652389161E+02  0.47787270036E+02  0.19999995403E+02 0.  0.
         12    1    1    2    0    0 -0.20983732229E+02  0.33640741669E+02 -0.17652389161E+02  0.43400729964E+02  0.00000000000E+00 0. -1.
         11    1    3    3    0    0  0.10379481946E+00 -0.10957836583E+02  0.25322660139E+01  0.11247103066E+02  0.51100000000E-03 0. -1.
        -11    1    3    3    0    0  0.17303101908E+02 -0.12064851057E+02  0.13917202851E+02  0.25271456272E+02  0.51100000000E-03 0.  1.
         12    1    3    3    0    0  0.35768355016E+01 -0.10618054029E+02  0.12029202971E+01  0.11268710698E+02  0.00000000000E+00 0. -1.
</event>
<event>
 7    1  0.4876728E-009  0.4778727E+02  0.7816164E-02  0.1312668E+00
        -11   -1    0    0    0    0  0.00000000000E+00  0.00000000000E+00  0.45593999997E+02  0.45594000000E+02  0.51100000000E-03 0. -1.
         11   -1    0    0    0    0 -0.00000000000E+00 -0.00000000000E+00 -0.45593999997E+02  0.45594000000E+02  0.51100000000E-03 0.  1.
    9900012    2    1    2    0    0 -0.35379792372E+02  0.23147431279E+02  0.98025599204E+01  0.47787268853E+02  0.19999990006E+02 0.  0.
         12    1    1    2    0    0  0.35379792372E+02 -0.23147431279E+02 -0.98025599204E+01  0.43400731147E+02  0.00000000000E+00 0. -1.
         11    1    3    3    0    0 -0.57288073291E+00 -0.63159893500E-01  0.45509647523E+01  0.45873153307E+01  0.51100000000E-03 0. -1.
        -11    1    3    3    0    0 -0.20013430150E+02  0.10166480385E+02 -0.11138430765E+01  0.22475216494E+02  0.51100000000E-03 0.  1.
         12    1    3    3    0    0 -0.14793481489E+02  0.13044110788E+02  0.63654382447E+01  0.20724737028E+02  0.00000000000E+00 0. -1.
</event>
<event>
 7    1  0.4876728E-009  0.4778729E+02  0.7816164E-02  0.1312668E+00
        -11   -1    0    0    0    0  0.00000000000E+00  0.00000000000E+00  0.45593999997E+02  0.45594000000E+02  0.51100000000E-03 0.  1.
         11   -1    0    0    0    0 -0.00000000000E+00 -0.00000000000E+00 -0.45593999997E+02  0.45594000000E+02  0.51100000000E-03 0. -1.
    9900012    2    1    2    0    0  0.92469609708E+00 -0.12911678158E+02  0.41425299420E+02  0.47787286552E+02  0.20000070707E+02 0.  0.
         12    1    1    2    0    0 -0.92469609708E+00  0.12911678158E+02 -0.41425299420E+02  0.43400713448E+02  0.00000000000E+00 0. -1.
         11    1    3    3    0    0  0.62717725861E+01 -0.54965460818E+01  0.43171472299E+01  0.93906821193E+01  0.51100000000E-03 0. -1.
        -11    1    3    3    0    0 -0.85558498160E+00 -0.23590098357E+01  0.51265262908E+01  0.57077338004E+01  0.51100000000E-03 0.  1.
         12    1    3    3    0    0 -0.44914915074E+01 -0.50561222404E+01  0.31981625899E+02  0.32688870633E+02  0.00000000000E+00 0. -1.
</event>
<event>
 7    1  0.4876728E-009  0.4778728E+02  0.7816164E-02  0.1312668E+00
        -11   -1    0    0    0    0  0.00000000000E+00  0.00000000000E+00  0.45593999997E+02  0.45594000000E+02  0.51100000000E-03 0.  1.
         11   -1    0    0    0    0 -0.00000000000E+00 -0.00000000000E+00 -0.45593999997E+02  0.45594000000E+02  0.51100000000E-03 0. -1.
    9900012    2    1    2    0    0 -0.37136695409E+02  0.22261650840E+02 -0.29845684279E+01  0.47787275436E+02  0.20000020023E+02 0.  0.
         12    1    1    2    0    0  0.37136695409E+02 -0.22261650840E+02  0.29845684279E+01  0.43400724564E+02  0.00000000000E+00 0. -1.
         11    1    3    3    0    0  0.46088690193E+00  0.10793055801E+01  0.14134298153E+01  0.18371448978E+01  0.51100000000E-03 0. -1.
        -11    1    3    3    0    0 -0.15519590055E+02  0.99185218041E+01 -0.93796834746E+01  0.20669136716E+02  0.51100000000E-03 0.  1.
        -12    1    3    3    0    0 -0.22077992256E+02  0.11263823456E+02  0.49816852313E+01  0.25280993822E+02  0.00000000000E+00 0.  1.
</event>
<event>
 7    1  0.4876728E-009  0.4778727E+02  0.7816164E-02  0.1312668E+00
        -11   -1    0    0    0    0  0.00000000000E+00  0.00000000000E+00  0.45593999997E+02  0.45594000000E+02  0.51100000000E-03 0.  1.
         11   -1    0    0    0    0 -0.00000000000E+00 -0.00000000000E+00 -0.45593999997E+02  0.45594000000E+02  0.51100000000E-03 0. -1.
    9900012    2    1    2    0    0  0.13495524477E+02  0.11557876952E+02  0.39596837644E+02  0.47787271297E+02  0.20000001152E+02 0.  0.
         12    1    1    2    0    0 -0.13495524477E+02 -0.11557876952E+02 -0.39596837644E+02  0.43400728703E+02  0.00000000000E+00 0. -1.
         11    1    3    3    0    0  0.34627692865E+01  0.20256544060E+01 -0.13673493328E+01  0.42383595132E+01  0.51100000000E-03 0. -1.
        -11    1    3    3    0    0  0.39773786333E+01  0.72027249276E+01  0.24891311938E+02  0.26215953109E+02  0.51100000000E-03 0.  1.
         12    1    3    3    0    0  0.60553765575E+01  0.23294976188E+01  0.16072875038E+02  0.17332958674E+02  0.00000000000E+00 0. -1.
</event>
<event>
 7    1  0.4876728E-009  0.4778727E+02  0.7816164E-02  0.1312668E+00
        -11   -1    0    0    0    0  0.00000000000E+00  0.00000000000E+00  0.45593999997E+02  0.45594000000E+02  0.51100000000E-03 0. -1.
         11   -1    0    0    0    0 -0.00000000000E+00 -0.00000000000E+00 -0.45593999997E+02  0.45594000000E+02  0.51100000000E-03 0.  1.
    9900012    2    1    2    0    0  0.21923389568E+02  0.14658114632E+02 -0.34469230366E+02  0.47787272164E+02  0.20000005103E+02 0.  0.
         12    1    1    2    0    0 -0.21923389568E+02 -0.14658114632E+02  0.34469230366E+02  0.43400727836E+02  0.00000000000E+00 0. -1.
         11    1    3    3    0    0  0.59780039777E+01 -0.39618422779E+00 -0.37045310549E+00  0.60025602258E+01  0.51100000000E-03 0. -1.
        -11    1    3    3    0    0  0.29602586298E+01  0.95627887579E+01 -0.12966232976E+02  0.16380880863E+02  0.51100000000E-03 0.  1.
        -12    1    3    3    0    0  0.12985126961E+02  0.54915101015E+01 -0.21132544284E+02  0.25403831075E+02  0.00000000000E+00 0.  1.
</event>
<event>
 7    1  0.4876728E-009  0.4778727E+02  0.7816164E-02  0.1312668E+00
        -11   -1    0    0    0    0  0.00000000000E+00  0.00000000000E+00  0.45593999997E+02  0.45594000000E+02  0.51100000000E-03 0. -1.
         11   -1    0    0    0    0 -0.00000000000E+00 -0.00000000000E+00 -0.45593999997E+02  0.45594000000E+02  0.51100000000E-03 0.  1.
    9900012    2    1    2    0    0 -0.61133977196E+01 -0.11583544191E+02 -0.41377180334E+02  0.47787272125E+02  0.20000004926E+02 0.  0.
         12    1    1    2    0    0  0.61133977196E+01  0.11583544191E+02  0.41377180334E+02  0.43400727875E+02  0.00000000000E+00 0. -1.
         11    1    3    3    0    0 -0.18365989753E+01 -0.35003879163E+01 -0.34551508737E+02  0.34776897039E+02  0.51100000000E-03 0.  1.
        -11    1    3    3    0    0 -0.18180151387E+00 -0.26466708851E+01  0.81749083731E+00  0.27760061410E+01  0.51100000000E-03 0. -1.
        -12    1    3    3    0    0 -0.40949972305E+01 -0.54364853900E+01 -0.76431624338E+01  0.10234368945E+02  0.00000000000E+00 0.  1.
</event>
<event>
 7    1  0.4876728E-009  0.4778727E+02  0.7816164E-02  0.1312668E+00
        -11   -1    0    0    0    0  0.00000000000E+00  0.00000000000E+00  0.45593999997E+02  0.45594000000E+02  0.51100000000E-03 0. -1.
         11   -1    0    0    0    0 -0.00000000000E+00 -0.00000000000E+00 -0.45593999997E+02  0.45594000000E+02  0.51100000000E-03 0.  1.
    9900012    2    1    2    0    0 -0.48091188977E+01  0.20162235200E+02 -0.38131090413E+02  0.47787269489E+02  0.19999992906E+02 0.  0.
         12    1    1    2    0    0  0.48091188977E+01 -0.20162235200E+02  0.38131090413E+02  0.43400730511E+02  0.00000000000E+00 0. -1.
         11    1    3    3    0    0  0.25553983551E+01  0.11781453923E+02 -0.99067218371E+01  0.15603712863E+02  0.51100000000E-03 0. -1.
        -11    1    3    3    0    0 -0.73450359344E+01  0.87163196920E+01 -0.29096189281E+02  0.31249192194E+02  0.51100000000E-03 0.  1.
        -12    1    3    3    0    0 -0.19481318347E-01 -0.33553841526E+00  0.87182070470E+00  0.93436443159E+00  0.00000000000E+00 0.  1.
</event>
<event>
 7    1  0.4876728E-009  0.4778727E+02  0.7816164E-02  0.1312668E+00
        -11   -1    0    0    0    0  0.00000000000E+00  0.00000000000E+00  0.45593999997E+02  0.45594000000E+02  0.51100000000E-03 0.  1.
         11   -1    0    0    0    0 -0.00000000000E+00 -0.00000000000E+00 -0.45593999997E+02  0.45594000000E+02  0.51100000000E-03 0. -1.
    9900012    2    1    2    0    0 -0.28495517857E+02 -0.25576256856E+02  0.20432422141E+02  0.47787270430E+02  0.19999997197E+02 0.  0.
         12    1    1    2    0    0  0.28495517857E+02  0.25576256856E+02 -0.20432422141E+02  0.43400729570E+02  0.00000000000E+00 0. -1.
         11    1    3    3    0    0  0.15039429937E-01  0.91679129820E+00 -0.14097759208E+01  0.16817255653E+01  0.51100000000E-03 0. -1.
        -11    1    3    3    0    0 -0.28454370663E+02 -0.24919901895E+02  0.22893397783E+02  0.44212672194E+02  0.51100000000E-03 0.  1.
        -12    1    3    3    0    0 -0.56186623904E-01 -0.15731462598E+01 -0.10511997212E+01  0.18928726701E+01  0.00000000000E+00 0.  1.
</event>
<event>
 7    1  0.4876728E-009  0.4778727E+02  0.7816164E-02  0.1312668E+00
        -11   -1    0    0    0    0  0.00000000000E+00  0.00000000000E+00  0.45593999997E+02  0.45594000000E+02  0.51100000000E-03 0. -1.
         11   -1    0    0    0    0 -0.00000000000E+00 -0.00000000000E+00 -0.45593999997E+02  0.45594000000E+02  0.51100000000E-03 0.  1.
    9900012    2    1    2    0    0  0.19988515803E+02  0.26112032898E+01 -0.38435191847E+02  0.47787272829E+02  0.20000008138E+02 0.  0.
         12    1    1    2    0    0 -0.19988515803E+02 -0.26112032898E+01  0.38435191847E+02  0.43400727171E+02  0.00000000000E+00 0. -1.
         11    1    3    3    0    0 -0.30587068824E+01  0.32228303243E+01 -0.10460723252E+02  0.11365256456E+02  0.51100000000E-03 0.  1.
        -11    1    3    3    0    0  0.14666416729E+02 -0.12549337235E+01 -0.20022365127E+02  0.24851031042E+02  0.51100000000E-03 0. -1.
        -12    1    3    3    0    0  0.83808059560E+01  0.64330668893E+00 -0.79521034685E+01  0.11570985331E+02  0.00000000000E+00 0.  1.
</event>
<event>
 7    1  0.4876728E-009  0.4778726E+02  0.7816164E-02  0.1312668E+00
        -11   -1    0    0    0    0  0.00000000000E+00  0.00000000000E+00  0.45593999997E+02  0.45594000000E+02  0.51100000000E-03 0.  1.
         11   -1    0    0    0    0 -0.00000000000E+00 -0.00000000000E+00 -0.45593999997E+02  0.45594000000E+02  0.51100000000E-03 0. -1.
    9900012    2    1    2    0    0  0.18673754073E+02 -0.24499468291E+02  0.30572719426E+02  0.47787260250E+02  0.19999950785E+02 0.  0.
         12    1    1    2    0    0 -0.18673754073E+02  0.24499468291E+02 -0.30572719426E+02  0.43400739750E+02  0.00000000000E+00 0. -1.
         11    1    3    3    0    0 -0.24546323482E+01 -0.64843000375E+01  0.12288727328E+01  0.70414128834E+01  0.51100000000E-03 0. -1.
        -11    1    3    3    0    0  0.20306246957E+02 -0.17950860468E+02  0.29309879851E+02  0.39920497419E+02  0.51100000000E-03 0.  1.
        -12    1    3    3    0    0  0.82213946387E+00 -0.64307785815E-01  0.33966841326E-01  0.82534994741E+00  0.00000000000E+00 0.  1.
</event>
<event>
 7    1  0.4876728E-009  0.4778727E+02  0.7816164E-02  0.1312668E+00
        -11   -1    0    0    0    0  0.00000000000E+00  0.00000000000E+00  0.45593999997E+02  0.45594000000E+02  0.51100000000E-03 0.  1.
         11   -1    0    0    0    0 -0.00000000000E+00 -0.00000000000E+00 -0.45593999997E+02  0.45594000000E+02  0.51100000000E-03 0. -1.
    9900012    2    1    2    0    0 -0.66644789351E+00  0.10399466942E+02  0.42131109062E+02  0.47787269404E+02  0.19999992519E+02 0.  0.
         12    1    1    2    0    0  0.66644789351E+00 -0.10399466942E+02 -0.42131109062E+02  0.43400730596E+02  0.00000000000E+00 0. -1.
         11    1    3    3    0    0 -0.20978087846E+01  0.72853770362E+01  0.47098789115E+01  0.89252719778E+01  0.51100000000E-03 0. -1.
        -11    1    3    3    0    0  0.21376594129E+01  0.51480316045E+01  0.35623772744E+02  0.36057246178E+02  0.51100000000E-03 0.  1.
        -12    1    3    3    0    0 -0.70629852180E+00 -0.20339416981E+01  0.17974574067E+01  0.28047512479E+01  0.00000000000E+00 0.  1.
</event>
<event>
 7    1  0.4876728E-009  0.4778727E+02  0.7816164E-02  0.1312668E+00
        -11   -1    0    0    0    0  0.00000000000E+00  0.00000000000E+00  0.45593999997E+02  0.45594000000E+02  0.51100000000E-03 0.  1.
         11   -1    0    0    0    0 -0.00000000000E+00 -0.00000000000E+00 -0.45593999997E+02  0.45594000000E+02  0.51100000000E-03 0. -1.
    9900012    2    1    2    0    0  0.20805110970E+02  0.26269845935E+02  0.27580171342E+02  0.47787270753E+02  0.19999998672E+02 0.  0.
         12    1    1    2    0    0 -0.20805110970E+02 -0.26269845935E+02 -0.27580171342E+02  0.43400729247E+02  0.00000000000E+00 0. -1.
         11    1    3    3    0    0  0.39363985358E+01  0.10433154348E+02  0.27205479286E+00  0.11154369420E+02  0.51100000000E-03 0. -1.
        -11    1    3    3    0    0  0.63766994126E+01  0.25287135311E+01  0.11865113249E+02  0.13705385809E+02  0.51100000000E-03 0.  1.
        -12    1    3    3    0    0  0.10492013022E+02  0.13307978056E+02  0.15443003300E+02  0.22927515524E+02  0.00000000000E+00 0.  1.
</event>
<event>
 7    1  0.4876728E-009  0.4778727E+02  0.7816164E-02  0.1312668E+00
        -11   -1    0    0    0    0  0.00000000000E+00  0.00000000000E+00  0.45593999997E+02  0.45594000000E+02  0.51100000000E-03 0.  1.
         11   -1    0    0    0    0 -0.00000000000E+00 -0.00000000000E+00 -0.45593999997E+02  0.45594000000E+02  0.51100000000E-03 0. -1.
    9900012    2    1    2    0    0  0.29241809369E+01  0.22641790366E+02  0.36910998024E+02  0.47787270971E+02  0.19999999663E+02 0.  0.
         12    1    1    2    0    0 -0.29241809369E+01 -0.22641790366E+02 -0.36910998024E+02  0.43400729029E+02  0.00000000000E+00 0. -1.
         11    1    3    3    0    0  0.10513755333E+02  0.12037352254E+02  0.18967041541E+02  0.24802934616E+02  0.51100000000E-03 0. -1.
        -11    1    3    3    0    0 -0.19097124297E+01  0.76633126714E+01  0.87857376085E+01  0.11813659393E+02  0.51100000000E-03 0.  1.
         12    1    3    3    0    0 -0.56798619667E+01  0.29411254408E+01  0.91582188747E+01  0.11170676961E+02  0.00000000000E+00 0. -1.
</event>
<event>
 7    1  0.4876728E-009  0.4778727E+02  0.7816164E-02  0.1312668E+00
        -11   -1    0    0    0    0  0.00000000000E+00  0.00000000000E+00  0.45593999997E+02  0.45594000000E+02  0.51100000000E-03 0.  1.
         11   -1    0    0    0    0 -0.00000000000E+00 -0.00000000000E+00 -0.45593999997E+02  0.45594000000E+02  0.51100000000E-03 0. -1.
    9900012    2    1    2    0    0 -0.27795128806E+02 -0.31081794837E+02  0.12040602625E+02  0.47787271121E+02  0.20000000348E+02 0.  0.
         12    1    1    2    0    0  0.27795128806E+02  0.31081794837E+02 -0.12040602625E+02  0.43400728879E+02  0.00000000000E+00 0. -1.
         11    1    3    3    0    0 -0.55039776550E+00 -0.46319021041E+01 -0.39317810856E+01  0.61005210900E+01  0.51100000000E-03 0. -1.
        -11    1    3    3    0    0 -0.19804662081E+02 -0.15132917061E+02  0.94673293272E+01  0.26661960614E+02  0.51100000000E-03 0.  1.
         12    1    3    3    0    0 -0.74400689598E+01 -0.11316975672E+02  0.65050543838E+01  0.15024789417E+02  0.00000000000E+00 0. -1.
</event>
<event>
 7    1  0.4876728E-009  0.4778728E+02  0.7816164E-02  0.1312668E+00
        -11   -1    0    0    0    0  0.00000000000E+00  0.00000000000E+00  0.45593999997E+02  0.45594000000E+02  0.51100000000E-03 0. -1.
         11   -1    0    0    0    0 -0.00000000000E+00 -0.00000000000E+00 -0.45593999997E+02  0.45594000000E+02  0.51100000000E-03 0.  1.
    9900012    2    1    2    0    0 -0.38726610319E+00 -0.32244456332E+02 -0.29047681072E+02  0.47787277485E+02  0.20000029364E+02 0.  0.
         12    1    1    2    0    0  0.38726610319E+00  0.32244456332E+02  0.29047681072E+02  0.43400722515E+02  0.00000000000E+00 0. -1.
         11    1    3    3    0    0  0.73549924756E+01 -0.20725691454E+02 -0.14410626627E+02  0.26292895630E+02  0.51100000000E-03 0.  1.
        -11    1    3    3    0    0 -0.48435050000E+01 -0.57226487408E+01 -0.12669764337E+02  0.14721792619E+02  0.51100000000E-03 0. -1.
         12    1    3    3    0    0 -0.28987535787E+01 -0.57961161373E+01 -0.19672901076E+01  0.67725892356E+01  0.00000000000E+00 0. -1.
</event>
<event>
 7    1  0.4876728E-009  0.4778727E+02  0.7816164E-02  0.1312668E+00
        -11   -1    0    0    0    0  0.00000000000E+00  0.00000000000E+00  0.45593999997E+02  0.45594000000E+02  0.51100000000E-03 0.  1.
         11   -1    0    0    0    0 -0.00000000000E+00 -0.00000000000E+00 -0.45593999997E+02  0.45594000000E+02  0.51100000000E-03 0. -1.
    9900012    2    1    2    0    0 -0.65022668113E+01  0.26112608775E+01  0.42831354965E+02  0.47787272757E+02  0.20000007810E+02 0.  0.
         12    1    1    2    0    0  0.65022668113E+01 -0.26112608775E+01 -0.42831354965E+02  0.43400727243E+02  0.00000000000E+00 0. -1.
         11    1    3    3    0    0 -0.39260734484E+00  0.60086227708E+01  0.47314534658E+01  0.76579592771E+01  0.51100000000E-03 0. -1.
        -11    1    3    3    0    0 -0.52268626671E+01 -0.67358710230E+01  0.20647707384E+02  0.22338752701E+02  0.51100000000E-03 0.  1.
         12    1    3    3    0    0 -0.88279679932E+00  0.33385091297E+01  0.17452194116E+02  0.17790560779E+02  0.00000000000E+00 0. -1.
</event>
<event>
 7    1  0.4876728E-009  0.4778727E+02  0.7816164E-02  0.1312668E+00
        -11   -1    0    0    0    0  0.00000000000E+00  0.00000000000E+00  0.45593999997E+02  0.45594000000E+02  0.51100000000E-03 0.  1.
         11   -1    0    0    0    0 -0.00000000000E+00 -0.00000000000E+00 -0.45593999997E+02  0.45594000000E+02  0.51100000000E-03 0. -1.
    9900012    2    1    2    0    0 -0.27394644752E+02  0.13096467675E+02  0.31010308302E+02  0.47787271346E+02  0.20000001376E+02 0.  0.
         12    1    1    2    0    0  0.27394644752E+02 -0.13096467675E+02 -0.31010308302E+02  0.43400728654E+02  0.00000000000E+00 0. -1.
         11    1    3    3    0    0 -0.14250036007E+01  0.60619946507E+01  0.14273387390E+02  0.15572668437E+02  0.51100000000E-03 0. -1.
        -11    1    3    3    0    0 -0.18156056495E+02  0.26649650574E+01  0.13124132346E+02  0.22560746359E+02  0.51100000000E-03 0.  1.
        -12    1    3    3    0    0 -0.78135846568E+01  0.43695079666E+01  0.36127885667E+01  0.96538565499E+01  0.00000000000E+00 0.  1.
</event>
<event>
 7    1  0.4876728E-009  0.4778727E+02  0.7816164E-02  0.1312668E+00
        -11   -1    0    0    0    0  0.00000000000E+00  0.00000000000E+00  0.45593999997E+02  0.45594000000E+02  0.51100000000E-03 0. -1.
         11   -1    0    0    0    0 -0.00000000000E+00 -0.00000000000E+00 -0.45593999997E+02  0.45594000000E+02  0.51100000000E-03 0.  1.
    9900012    2    1    2    0    0 -0.30599723427E+02 -0.30030268487E+02 -0.67426257376E+01  0.47787273035E+02  0.20000009077E+02 0.  0.
         12    1    1    2    0    0  0.30599723427E+02  0.30030268487E+02  0.67426257376E+01  0.43400726965E+02  0.00000000000E+00 0. -1.
         11    1    3    3    0    0  0.13461636062E+01 -0.45928297402E+01 -0.51547539561E+00  0.48137258565E+01  0.51100000000E-03 0. -1.
        -11    1    3    3    0    0 -0.24292283383E+02 -0.13113008118E+02 -0.68846823404E+01  0.28451096026E+02  0.51100000000E-03 0.  1.
        -12    1    3    3    0    0 -0.76536036500E+01 -0.12324430629E+02  0.65753199844E+00  0.14522451153E+02  0.00000000000E+00 0.  1.
</event>
<event>
 7    1  0.4876728E-009  0.4778730E+02  0.7816164E-02  0.1312668E+00
        -11   -1    0    0    0    0  0.00000000000E+00  0.00000000000E+00  0.45593999997E+02  0.45594000000E+02  0.51100000000E-03 0. -1.
         11   -1    0    0    0    0 -0.00000000000E+00 -0.00000000000E+00 -0.45593999997E+02  0.45594000000E+02  0.51100000000E-03 0.  1.
    9900012    2    1    2    0    0  0.59446733994E+01 -0.36609039039E+02 -0.22540183247E+02  0.47787300213E+02  0.20000132991E+02 0.  0.
         12    1    1    2    0    0 -0.59446733994E+01  0.36609039039E+02  0.22540183247E+02  0.43400699787E+02  0.00000000000E+00 0. -1.
         11    1    3    3    0    0  0.45750768188E+01 -0.10149700766E+02 -0.58830509841E+01  0.12591983270E+02  0.51100000000E-03 0.  1.
        -11    1    3    3    0    0  0.43756691295E+01 -0.29051115222E+01  0.13163749774E+01  0.54147018967E+01  0.51100000000E-03 0. -1.
        -12    1    3    3    0    0 -0.30060725489E+01 -0.23554226751E+02 -0.17973507240E+02  0.29780615046E+02  0.00000000000E+00 0.  1.
</event>
<event>
 7    1  0.4876728E-009  0.4778727E+02  0.7816164E-02  0.1312668E+00
        -11   -1    0    0    0    0  0.00000000000E+00  0.00000000000E+00  0.45593999997E+02  0.45594000000E+02  0.51100000000E-03 0.  1.
         11   -1    0    0    0    0 -0.00000000000E+00 -0.00000000000E+00 -0.45593999997E+02  0.45594000000E+02  0.51100000000E-03 0. -1.
    9900012    2    1    2    0    0  0.15233761354E+02 -0.32037031564E+02  0.25003690207E+02  0.47787269587E+02  0.19999993355E+02 0.  0.
         12    1    1    2    0    0 -0.15233761354E+02  0.32037031564E+02 -0.25003690207E+02  0.43400730413E+02  0.00000000000E+00 0. -1.
         11    1    3    3    0    0  0.46874300382E+01 -0.47910476119E+00  0.54849198141E+01  0.72308981021E+01  0.51100000000E-03 0. -1.
        -11    1    3    3    0    0  0.11836668220E+02 -0.31662800530E+02  0.17263954937E+02  0.37956340607E+02  0.51100000000E-03 0.  1.
        -12    1    3    3    0    0 -0.12903369040E+01  0.10487372746E+00  0.22548154564E+01  0.26000308781E+01  0.00000000000E+00 0.  1.
</event>
<event>
 7    1  0.4876728E-009  0.4778728E+02  0.7816164E-02  0.1312668E+00
        -11   -1    0    0    0    0  0.00000000000E+00  0.00000000000E+00  0.45593999997E+02  0.45594000000E+02  0.51100000000E-03 0.  1.
         11   -1    0    0    0    0 -0.00000000000E+00 -0.00000000000E+00 -0.45593999997E+02  0.45594000000E+02  0.51100000000E-03 0. -1.
    9900012    2    1    2    0    0  0.17409223785E+02  0.24963179146E+02  0.30941578800E+02  0.47787277834E+02  0.20000030957E+02 0.  0.
         12    1    1    2    0    0 -0.17409223785E+02 -0.24963179146E+02 -0.30941578800E+02  0.43400722166E+02  0.00000000000E+00 0. -1.
         11    1    3    3    0    0  0.22271893938E+01  0.27091249914E+01 -0.14339160293E+01  0.37889109590E+01  0.51100000000E-03 0. -1.
        -11    1    3    3    0    0  0.12557855966E+02  0.21216221416E+02  0.32915809779E+02  0.41125154484E+02  0.51100000000E-03 0.  1.
        -12    1    3    3    0    0  0.26241784251E+01  0.10378327392E+01 -0.54031495000E+00  0.28732123915E+01  0.00000000000E+00 0.  1.
</event>
<event>
 7    1  0.4876728E-009  0.4778727E+02  0.7816164E-02  0.1312668E+00
        -11   -1    0    0    0    0  0.00000000000E+00  0.00000000000E+00  0.45593999997E+02  0.45594000000E+02  0.51100000000E-03 0. -1.
         11   -1    0    0    0    0 -0.00000000000E+00 -0.00000000000E+00 -0.45593999997E+02  0.45594000000E+02  0.51100000000E-03 0.  1.
    9900012    2    1    2    0    0  0.30725937798E+02 -0.25681391426E+02 -0.16733375845E+02  0.47787274358E+02  0.20000015107E+02 0.  0.
         12    1    1    2    0    0 -0.30725937798E+02  0.25681391426E+02  0.16733375845E+02  0.43400725642E+02  0.00000000000E+00 0. -1.
         11    1    3    3    0    0 -0.84696824002E+00  0.17000471330E+01 -0.14870988346E-02  0.18993467105E+01  0.51100000000E-03 0. -1.
        -11    1    3    3    0    0  0.20564626945E+02 -0.14311428199E+02 -0.61832761844E+01  0.25806079965E+02  0.51100000000E-03 0.  1.
        -12    1    3    3    0    0  0.11008279092E+02 -0.13070010359E+02 -0.10548612562E+02  0.20081847683E+02  0.00000000000E+00 0.  1.
</event>
<event>
 7    1  0.4876728E-009  0.4778728E+02  0.7816164E-02  0.1312668E+00
        -11   -1    0    0    0    0  0.00000000000E+00  0.00000000000E+00  0.45593999997E+02  0.45594000000E+02  0.51100000000E-03 0.  1.
         11   -1    0    0    0    0 -0.00000000000E+00 -0.00000000000E+00 -0.45593999997E+02  0.45594000000E+02  0.51100000000E-03 0. -1.
    9900012    2    1    2    0    0  0.13699912928E+02 -0.35745419602E+02  0.20449940972E+02  0.47787277396E+02  0.20000028959E+02 0.  0.
         12    1    1    2    0    0 -0.13699912928E+02  0.35745419602E+02 -0.20449940972E+02  0.43400722604E+02  0.00000000000E+00 0. -1.
         11    1    3    3    0    0 -0.43509402916E+01 -0.14402790806E+02  0.52702223047E+01  0.15941966875E+02  0.51100000000E-03 0. -1.
        -11    1    3    3    0    0  0.71523265052E+01 -0.93389210349E+01  0.69531228567E+01  0.13664447967E+02  0.51100000000E-03 0.  1.
         12    1    3    3    0    0  0.10898526714E+02 -0.12003707761E+02  0.82265958111E+01  0.18180862554E+02  0.00000000000E+00 0. -1.
</event>
<event>
 7    1  0.4876728E-009  0.4778728E+02  0.7816164E-02  0.1312668E+00
        -11   -1    0    0    0    0  0.00000000000E+00  0.00000000000E+00  0.45593999997E+02  0.45594000000E+02  0.51100000000E-03 0. -1.
         11   -1    0    0    0    0 -0.00000000000E+00 -0.00000000000E+00 -0.45593999997E+02  0.45594000000E+02  0.51100000000E-03 0.  1.
    9900012    2    1    2    0    0  0.36333731325E+02  0.10731471826E+02 -0.21173527589E+02  0.47787276618E+02  0.20000025413E+02 0.  0.
         12    1    1    2    0    0 -0.36333731325E+02 -0.10731471826E+02  0.21173527589E+02  0.43400723382E+02  0.00000000000E+00 0. -1.
         11    1    3    3    0    0  0.37032852584E+01  0.63984471852E+01 -0.10345901012E+01  0.74649062302E+01  0.51100000000E-03 0. -1.
        -11    1    3    3    0    0  0.26117049716E+02  0.23014905965E+01 -0.99140030825E+01  0.28030066040E+02  0.51100000000E-03 0.  1.
        -12    1    3    3    0    0  0.65133963500E+01  0.20315340439E+01 -0.10224934405E+02  0.12292304348E+02  0.00000000000E+00 0.  1.
</event>
<event>
 7    1  0.4876728E-009  0.4778727E+02  0.7816164E-02  0.1312668E+00
        -11   -1    0    0    0    0  0.00000000000E+00  0.00000000000E+00  0.45593999997E+02  0.45594000000E+02  0.51100000000E-03 0.  1.
         11   -1    0    0    0    0 -0.00000000000E+00 -0.00000000000E+00 -0.45593999997E+02  0.45594000000E+02  0.51100000000E-03 0. -1.
    9900012    2    1    2    0    0 -0.35682419059E+02 -0.14895731103E+02  0.19710541983E+02  0.47787270740E+02  0.19999998613E+02 0.  0.
         12    1    1    2    0    0  0.35682419059E+02  0.14895731103E+02 -0.19710541983E+02  0.43400729260E+02  0.00000000000E+00 0. -1.
         11    1    3    3    0    0  0.48983898816E+00  0.52898483984E+00  0.88363210599E+00  0.11404267425E+01  0.51100000000E-03 0. -1.
        -11    1    3    3    0    0 -0.94219224587E+01 -0.12659348878E+02  0.73114296381E+01  0.17392203439E+02  0.51100000000E-03 0.  1.
        -12    1    3    3    0    0 -0.26750335589E+02 -0.27653670647E+01  0.11515480239E+02  0.29254640559E+02  0.00000000000E+00 0.  1.
</event>
<event>
 7    1  0.4876728E-009  0.4778727E+02  0.7816164E-02  0.1312668E+00
        -11   -1    0    0    0    0  0.00000000000E+00  0.00000000000E+00  0.45593999997E+02  0.45594000000E+02  0.51100000000E-03 0. -1.
         11   -1    0    0    0    0 -0.00000000000E+00 -0.00000000000E+00 -0.45593999997E+02  0.45594000000E+02  0.51100000000E-03 0.  1.
    9900012    2    1    2    0    0 -0.14361213114E+02  0.40797391536E+02 -0.35988621028E+01  0.47787269514E+02  0.19999993022E+02 0.  0.
         12    1    1    2    0    0  0.14361213114E+02 -0.40797391536E+02  0.35988621028E+01  0.43400730486E+02  0.00000000000E+00 0. -1.
         11    1    3    3    0    0 -0.53867620804E+01  0.24512102114E+02  0.66626989735E+01  0.25966361194E+02  0.51100000000E-03 0. -1.
        -11    1    3    3    0    0 -0.19601808238E+01  0.17170245729E+01 -0.33311132287E+01  0.42292786441E+01  0.51100000000E-03 0.  1.
         12    1    3    3    0    0 -0.70142702099E+01  0.14568264849E+02 -0.69304478476E+01  0.17591629676E+02  0.00000000000E+00 0. -1.
</event>
<event>
 7    1  0.4876728E-009  0.4778727E+02  0.7816164E-02  0.1312668E+00
        -11   -1    0    0    0    0  0.00000000000E+00  0.00000000000E+00  0.45593999997E+02  0.45594000000E+02  0.51100000000E-03 0.  1.
         11   -1    0    0    0    0 -0.00000000000E+00 -0.00000000000E+00 -0.45593999997E+02  0.45594000000E+02  0.51100000000E-03 0. -1.
    9900012    2    1    2    0    0  0.62271563705E+01  0.21285561947E+02  0.37306443020E+02  0.47787270575E+02  0.19999997858E+02 0.  0.
         12    1    1    2    0    0 -0.62271563705E+01 -0.21285561947E+02 -0.37306443020E+02  0.43400729425E+02  0.00000000000E+00 0. -1.
         11    1    3    3    0    0 -0.17226946929E+01  0.27934894122E+01  0.18158372951E+02  0.18452581624E+02  0.51100000000E-03 0. -1.
        -11    1    3    3    0    0 -0.67794510507E+00  0.77571865534E+01  0.10500155028E+02  0.13072368135E+02  0.51100000000E-03 0.  1.
         12    1    3    3    0    0  0.86277961685E+01  0.10734885981E+02  0.86479150411E+01  0.16262320816E+02  0.00000000000E+00 0. -1.
</event>
<event>
 7    1  0.4876728E-009  0.4778727E+02  0.7816164E-02  0.1312668E+00
        -11   -1    0    0    0    0  0.00000000000E+00  0.00000000000E+00  0.45593999997E+02  0.45594000000E+02  0.51100000000E-03 0.  1.
         11   -1    0    0    0    0 -0.00000000000E+00 -0.00000000000E+00 -0.45593999997E+02  0.45594000000E+02  0.51100000000E-03 0. -1.
    9900012    2    1    2    0    0 -0.19885459291E+02 -0.18086225155E+02  0.34074628252E+02  0.47787270489E+02  0.19999997468E+02 0.  0.
         12    1    1    2    0    0  0.19885459291E+02  0.18086225155E+02 -0.34074628252E+02  0.43400729511E+02  0.00000000000E+00 0. -1.
         11    1    3    3    0    0 -0.11692517134E+02 -0.15890789336E+02  0.15201642199E+02  0.24906265646E+02  0.51100000000E-03 0. -1.
        -11    1    3    3    0    0 -0.46722846757E+01 -0.59820289351E+01  0.13022945982E+02  0.15073554212E+02  0.51100000000E-03 0.  1.
         12    1    3    3    0    0 -0.35206574809E+01  0.37865931153E+01  0.58500400715E+01  0.78074506311E+01  0.00000000000E+00 0. -1.
</event>
<event>
 7    1  0.4876728E-009  0.4778723E+02  0.7816164E-02  0.1312668E+00
        -11   -1    0    0    0    0  0.00000000000E+00  0.00000000000E+00  0.45593999997E+02  0.45594000000E+02  0.51100000000E-03 0. -1.
         11   -1    0    0    0    0 -0.00000000000E+00 -0.00000000000E+00 -0.45593999997E+02  0.45594000000E+02  0.51100000000E-03 0.  1.
    9900012    2    1    2    0    0  0.14301497496E+02  0.11577422670E+02 -0.39307218159E+02  0.47787228743E+02  0.19999807129E+02 0.  0.
         12    1    1    2    0    0 -0.14301497496E+02 -0.11577422670E+02  0.39307218159E+02  0.43400771257E+02  0.00000000000E+00 0. -1.
         11    1    3    3    0    0  0.18551589413E+01  0.23559374726E+01 -0.86483775704E+01  0.91534961044E+01  0.51100000000E-03 0.  1.
        -11    1    3    3    0    0  0.10943934117E+01  0.11799435569E+02 -0.14744271393E+02  0.18916075593E+02  0.51100000000E-03 0. -1.
        -12    1    3    3    0    0  0.11351945143E+02 -0.25779503718E+01 -0.15914569196E+02  0.19717657045E+02  0.00000000000E+00 0.  1.
</event>
<event>
 7    1  0.4876728E-009  0.4778727E+02  0.7816164E-02  0.1312668E+00
        -11   -1    0    0    0    0  0.00000000000E+00  0.00000000000E+00  0.45593999997E+02  0.45594000000E+02  0.51100000000E-03 0.  1.
         11   -1    0    0    0    0 -0.00000000000E+00 -0.00000000000E+00 -0.45593999997E+02  0.45594000000E+02  0.51100000000E-03 0. -1.
    9900012    2    1    2    0    0  0.39096798159E+02 -0.14627584670E+02  0.11878462801E+02  0.47787265696E+02  0.19999975617E+02 0.  0.
         12    1    1    2    0    0 -0.39096798159E+02  0.14627584670E+02 -0.11878462801E+02  0.43400734304E+02  0.00000000000E+00 0. -1.
         11    1    3    3    0    0  0.12850372837E+02 -0.11434336676E+02  0.83914898729E+01  0.19138788881E+02  0.51100000000E-03 0. -1.
        -11    1    3    3    0    0  0.23022070218E+02 -0.55206607897E+01  0.50865084547E+00  0.23680205629E+02  0.51100000000E-03 0.  1.
         12    1    3    3    0    0  0.32243551036E+01  0.23274127957E+01  0.29783220826E+01  0.49682711866E+01  0.00000000000E+00 0. -1.
</event>
<event>
 7    1  0.4876728E-009  0.4778727E+02  0.7816164E-02  0.1312668E+00
        -11   -1    0    0    0    0  0.00000000000E+00  0.00000000000E+00  0.45593999997E+02  0.45594000000E+02  0.51100000000E-03 0.  1.
         11   -1    0    0    0    0 -0.00000000000E+00 -0.00000000000E+00 -0.45593999997E+02  0.45594000000E+02  0.51100000000E-03 0. -1.
    9900012    2    1    2    0    0 -0.18973142993E+02  0.25918222443E+02  0.29187136733E+02  0.47787270048E+02  0.19999995458E+02 0.  0.
         12    1    1    2    0    0  0.18973142993E+02 -0.25918222443E+02 -0.29187136733E+02  0.43400729952E+02  0.00000000000E+00 0. -1.
         11    1    3    3    0    0 -0.24216401507E+01  0.62701998757E+00  0.53421202168E+00  0.25579049688E+01  0.51100000000E-03 0. -1.
        -11    1    3    3    0    0 -0.15767715639E+02  0.18402860073E+02  0.11693615615E+02  0.26907745386E+02  0.51100000000E-03 0.  1.
        -12    1    3    3    0    0 -0.78378720411E+00  0.68883423823E+01  0.16959309097E+02  0.18321619694E+02  0.00000000000E+00 0.  1.
</event>
<event>
 7    1  0.4876728E-009  0.4778727E+02  0.7816164E-02  0.1312668E+00
        -11   -1    0    0    0    0  0.00000000000E+00  0.00000000000E+00  0.45593999997E+02  0.45594000000E+02  0.51100000000E-03 0. -1.
         11   -1    0    0    0    0 -0.00000000000E+00 -0.00000000000E+00 -0.45593999997E+02  0.45594000000E+02  0.51100000000E-03 0.  1.
    9900012    2    1    2    0    0 -0.26087945994E+02  0.33807960162E+02  0.77501114404E+01  0.47787270469E+02  0.19999997374E+02 0.  0.
         12    1    1    2    0    0  0.26087945994E+02 -0.33807960162E+02 -0.77501114404E+01  0.43400729531E+02  0.00000000000E+00 0. -1.
         11    1    3    3    0    0 -0.57751739910E+00 -0.57776101139E+00  0.29084198265E+01  0.30209667792E+01  0.51100000000E-03 0. -1.
        -11    1    3    3    0    0 -0.13522225053E+02  0.26125946377E+02  0.64586386747E+01  0.30118593232E+02  0.51100000000E-03 0.  1.
        -12    1    3    3    0    0 -0.11988203542E+02  0.82597747968E+01 -0.16169470608E+01  0.14647710458E+02  0.00000000000E+00 0.  1.
</event>
<event>
 7    1  0.4876728E-009  0.4778727E+02  0.7816164E-02  0.1312668E+00
        -11   -1    0    0    0    0  0.00000000000E+00  0.00000000000E+00  0.45593999997E+02  0.45594000000E+02  0.51100000000E-03 0.  1.
         11   -1    0    0    0    0 -0.00000000000E+00 -0.00000000000E+00 -0.45593999997E+02  0.45594000000E+02  0.51100000000E-03 0. -1.
    9900012    2    1    2    0    0  0.39209218043E+02  0.11820931196E+02  0.14371021339E+02  0.47787269036E+02  0.19999990842E+02 0.  0.
         12    1    1    2    0    0 -0.39209218043E+02 -0.11820931196E+02 -0.14371021339E+02  0.43400730964E+02  0.00000000000E+00 0. -1.
         11    1    3    3    0    0  0.13428614678E+02 -0.29514177488E+01  0.60578699934E+01  0.15024524885E+02  0.51100000000E-03 0. -1.
        -11    1    3    3    0    0  0.12228371236E+02  0.13253868983E+02  0.53124083194E+01  0.18799462453E+02  0.51100000000E-03 0.  1.
        -12    1    3    3    0    0  0.13552232128E+02  0.15184799624E+01  0.30007430261E+01  0.13963281698E+02  0.00000000000E+00 0.  1.
</event>
<event>
 7    1  0.4876728E-009  0.4778727E+02  0.7816164E-02  0.1312668E+00
        -11   -1    0    0    0    0  0.00000000000E+00  0.00000000000E+00  0.45593999997E+02  0.45594000000E+02  0.51100000000E-03 0.  1.
         11   -1    0    0    0    0 -0.00000000000E+00 -0.00000000000E+00 -0.45593999997E+02  0.45594000000E+02  0.51100000000E-03 0. -1.
    9900012    2    1    2    0    0  0.37754846630E+02 -0.13181488578E+02  0.16865445409E+02  0.47787270351E+02  0.19999996840E+02 0.  0.
         12    1    1    2    0    0 -0.37754846630E+02  0.13181488578E+02 -0.16865445409E+02  0.43400729649E+02  0.00000000000E+00 0. -1.
         11    1    3    3    0    0 -0.19086413352E+01 -0.61656384890E+00  0.15369015008E+01  0.25268813210E+01  0.51100000000E-03 0. -1.
        -11    1    3    3    0    0  0.23881488683E+02 -0.29962141141E+01  0.74752226785E+01  0.25202812444E+02  0.51100000000E-03 0.  1.
        -12    1    3    3    0    0  0.15781999282E+02 -0.95687106153E+01  0.78533212301E+01  0.20057576587E+02  0.00000000000E+00 0.  1.
</event>
<event>
 7    1  0.4876728E-009  0.4778727E+02  0.7816164E-02  0.1312668E+00
        -11   -1    0    0    0    0  0.00000000000E+00  0.00000000000E+00  0.45593999997E+02  0.45594000000E+02  0.51100000000E-03 0.  1.
         11   -1    0    0    0    0 -0.00000000000E+00 -0.00000000000E+00 -0.45593999997E+02  0.45594000000E+02  0.51100000000E-03 0. -1.
    9900012    2    1    2    0    0 -0.24133476008E+02 -0.41605893526E+01  0.35831385719E+02  0.47787269931E+02  0.19999994923E+02 0.  0.
         12    1    1    2    0    0  0.24133476008E+02  0.41605893526E+01 -0.35831385719E+02  0.43400730069E+02  0.00000000000E+00 0. -1.
         11    1    3    3    0    0 -0.32613189521E+01 -0.32666208584E+01 -0.15375151846E+01  0.48652817333E+01  0.51100000000E-03 0. -1.
        -11    1    3    3    0    0 -0.13482346226E+01  0.23269714129E+00  0.41982287249E+01  0.44155417838E+01  0.51100000000E-03 0.  1.
         12    1    3    3    0    0 -0.19523922433E+02 -0.11266656355E+01  0.33170672179E+02  0.38506446414E+02  0.00000000000E+00 0. -1.
</event>
<event>
 7    1  0.4876728E-009  0.4778728E+02  0.7816164E-02  0.1312668E+00
        -11   -1    0    0    0    0  0.00000000000E+00  0.00000000000E+00  0.45593999997E+02  0.45594000000E+02  0.51100000000E-03 0.  1.
         11   -1    0    0    0    0 -0.00000000000E+00 -0.00000000000E+00 -0.45593999997E+02  0.45594000000E+02  0.51100000000E-03 0. -1.
    9900012    2    1    2    0    0 -0.27680145420E+02 -0.31591749624E+02  0.10926711612E+02  0.47787284321E+02  0.20000060534E+02 0.  0.
         12    1    1    2    0    0  0.27680145420E+02  0.31591749624E+02 -0.10926711612E+02  0.43400715679E+02  0.00000000000E+00 0. -1.
         11    1    3    3    0    0 -0.58916556838E+01 -0.18120958691E+02  0.24614178353E+01  0.19212998949E+02  0.51100000000E-03 0. -1.
        -11    1    3    3    0    0 -0.10795548317E+02 -0.85267933520E+01  0.91161912066E+01  0.16503181836E+02  0.51100000000E-03 0.  1.
         12    1    3    3    0    0 -0.10992941419E+02 -0.49439975811E+01 -0.65089743011E+00  0.12071103537E+02  0.00000000000E+00 0. -1.
</event>
<event>
 7    1  0.4876728E-009  0.4778727E+02  0.7816164E-02  0.1312668E+00
        -11   -1    0    0    0    0  0.00000000000E+00  0.00000000000E+00  0.45593999997E+02  0.45594000000E+02  0.51100000000E-03 0.  1.
         11   -1    0    0    0    0 -0.00000000000E+00 -0.00000000000E+00 -0.45593999997E+02  0.45594000000E+02  0.51100000000E-03 0. -1.
    9900012    2    1    2    0    0 -0.32966397550E+02 -0.13088397558E+02 -0.25010670522E+02  0.47787272379E+02  0.20000006084E+02 0.  0.
         12    1    1    2    0    0  0.32966397550E+02  0.13088397558E+02  0.25010670522E+02  0.43400727621E+02  0.00000000000E+00 0. -1.
         11    1    3    3    0    0 -0.91397063733E+01 -0.84192933838E+01 -0.13204253271E+02  0.18132044517E+02  0.51100000000E-03 0. -1.
        -11    1    3    3    0    0 -0.21918097448E+02 -0.24390720409E+01 -0.13883296003E+02  0.26059508367E+02  0.51100000000E-03 0.  1.
        -12    1    3    3    0    0 -0.19085937291E+01 -0.22300321332E+01  0.20768787512E+01  0.35957194947E+01  0.00000000000E+00 0.  1.
</event>
<event>
 7    1  0.4876728E-009  0.4778727E+02  0.7816164E-02  0.1312668E+00
        -11   -1    0    0    0    0  0.00000000000E+00  0.00000000000E+00  0.45593999997E+02  0.45594000000E+02  0.51100000000E-03 0.  1.
         11   -1    0    0    0    0 -0.00000000000E+00 -0.00000000000E+00 -0.45593999997E+02  0.45594000000E+02  0.51100000000E-03 0. -1.
    9900012    2    1    2    0    0  0.30207835067E+02  0.95487538587E+01  0.29663634658E+02  0.47787271655E+02  0.20000002786E+02 0.  0.
         12    1    1    2    0    0 -0.30207835067E+02 -0.95487538587E+01 -0.29663634658E+02  0.43400728345E+02  0.00000000000E+00 0. -1.
         11    1    3    3    0    0  0.20680130481E+02  0.10409434313E+00  0.15903517852E+02  0.26088321384E+02  0.51100000000E-03 0. -1.
        -11    1    3    3    0    0  0.81935396930E+01  0.11415814655E+01  0.79819642584E+01  0.11495610233E+02  0.51100000000E-03 0.  1.
         12    1    3    3    0    0  0.13341648936E+01  0.83030780501E+01  0.57781525479E+01  0.10203340038E+02  0.00000000000E+00 0. -1.
</event>
<event>
 7    1  0.4876728E-009  0.4778727E+02  0.7816164E-02  0.1312668E+00
        -11   -1    0    0    0    0  0.00000000000E+00  0.00000000000E+00  0.45593999997E+02  0.45594000000E+02  0.51100000000E-03 0.  1.
         11   -1    0    0    0    0 -0.00000000000E+00 -0.00000000000E+00 -0.45593999997E+02  0.45594000000E+02  0.51100000000E-03 0. -1.
    9900012    2    1    2    0    0 -0.26175028877E+02 -0.32646081285E+02 -0.11520613067E+02  0.47787270911E+02  0.19999999393E+02 0.  0.
         12    1    1    2    0    0  0.26175028877E+02  0.32646081285E+02  0.11520613067E+02  0.43400729089E+02  0.00000000000E+00 0. -1.
         11    1    3    3    0    0  0.15482849733E+01 -0.37477197331E+01 -0.14669421091E+01  0.43121350824E+01  0.51100000000E-03 0. -1.
        -11    1    3    3    0    0 -0.24197200304E+02 -0.19130026771E+02 -0.31535806265E+01  0.31006571849E+02  0.51100000000E-03 0.  1.
        -12    1    3    3    0    0 -0.35261135469E+01 -0.97683347805E+01 -0.69000903315E+01  0.12468563980E+02  0.00000000000E+00 0.  1.
</event>
<event>
 7    1  0.4876728E-009  0.4778728E+02  0.7816164E-02  0.1312668E+00
        -11   -1    0    0    0    0  0.00000000000E+00  0.00000000000E+00  0.45593999997E+02  0.45594000000E+02  0.51100000000E-03 0.  1.
         11   -1    0    0    0    0 -0.00000000000E+00 -0.00000000000E+00 -0.45593999997E+02  0.45594000000E+02  0.51100000000E-03 0. -1.
    9900012    2    1    2    0    0 -0.33358975910E+02  0.16932789890E+02  0.22001858668E+02  0.47787280743E+02  0.20000044217E+02 0.  0.
         12    1    1    2    0    0  0.33358975910E+02 -0.16932789890E+02 -0.22001858668E+02  0.43400719257E+02  0.00000000000E+00 0. -1.
         11    1    3    3    0    0  0.70932308790E+00 -0.23827438348E+01  0.29701977914E-01  0.24862602225E+01  0.51100000000E-03 0. -1.
        -11    1    3    3    0    0 -0.24429078884E+02  0.14325804995E+02  0.12747560692E+02  0.31056543396E+02  0.51100000000E-03 0.  1.
        -12    1    3    3    0    0 -0.96392201140E+01  0.49897287301E+01  0.92245959979E+01  0.14244477124E+02  0.00000000000E+00 0.  1.
</event>
<event>
 7    1  0.4876728E-009  0.4778727E+02  0.7816164E-02  0.1312668E+00
        -11   -1    0    0    0    0  0.00000000000E+00  0.00000000000E+00  0.45593999997E+02  0.45594000000E+02  0.51100000000E-03 0. -1.
         11   -1    0    0    0    0 -0.00000000000E+00 -0.00000000000E+00 -0.45593999997E+02  0.45594000000E+02  0.51100000000E-03 0.  1.
    9900012    2    1    2    0    0 -0.11001433977E+02 -0.37394404787E+02 -0.19085348608E+02  0.47787267398E+02  0.19999983375E+02 0.  0.
         12    1    1    2    0    0  0.11001433977E+02  0.37394404787E+02  0.19085348608E+02  0.43400732602E+02  0.00000000000E+00 0. -1.
         11    1    3    3    0    0  0.15370808989E+01 -0.11085013321E+02  0.16082593150E+01  0.11306044238E+02  0.51100000000E-03 0. -1.
        -11    1    3    3    0    0 -0.42284921012E+01 -0.86364347777E+01 -0.28543598429E+01  0.10030728861E+02  0.51100000000E-03 0.  1.
         12    1    3    3    0    0 -0.83100227748E+01 -0.17672956688E+02 -0.17839248080E+02  0.26450494299E+02  0.00000000000E+00 0. -1.
</event>
<event>
 7    1  0.4876728E-009  0.4778727E+02  0.7816164E-02  0.1312668E+00
        -11   -1    0    0    0    0  0.00000000000E+00  0.00000000000E+00  0.45593999997E+02  0.45594000000E+02  0.51100000000E-03 0. -1.
         11   -1    0    0    0    0 -0.00000000000E+00 -0.00000000000E+00 -0.45593999997E+02  0.45594000000E+02  0.51100000000E-03 0.  1.
    9900012    2    1    2    0    0 -0.30208981987E+02 -0.20959887508E+02 -0.23059141345E+02  0.47787268709E+02  0.19999989352E+02 0.  0.
         12    1    1    2    0    0  0.30208981987E+02  0.20959887508E+02  0.23059141345E+02  0.43400731291E+02  0.00000000000E+00 0. -1.
         11    1    3    3    0    0 -0.63841681179E+01 -0.78122576892E+01  0.15547098155E+01  0.10208138696E+02  0.51100000000E-03 0. -1.
        -11    1    3    3    0    0 -0.11814819647E+02 -0.54920085796E+01 -0.17033190100E+02  0.21444852221E+02  0.51100000000E-03 0.  1.
         12    1    3    3    0    0 -0.12009994222E+02 -0.76556212391E+01 -0.75806610610E+01  0.16134277793E+02  0.00000000000E+00 0. -1.
</event>
<event>
 7    1  0.4876728E-009  0.4778727E+02  0.7816164E-02  0.1312668E+00
        -11   -1    0    0    0    0  0.00000000000E+00  0.00000000000E+00  0.45593999997E+02  0.45594000000E+02  0.51100000000E-03 0.  1.
         11   -1    0    0    0    0 -0.00000000000E+00 -0.00000000000E+00 -0.45593999997E+02  0.45594000000E+02  0.51100000000E-03 0. -1.
    9900012    2    1    2    0    0 -0.23259785115E+02 -0.21013060867E+02  0.30017611747E+02  0.47787270218E+02  0.19999996231E+02 0.  0.
         12    1    1    2    0    0  0.23259785115E+02  0.21013060867E+02 -0.30017611747E+02  0.43400729782E+02  0.00000000000E+00 0. -1.
         11    1    3    3    0    0 -0.61243747795E+01 -0.11743723974E+02  0.20858857413E+02  0.24708600771E+02  0.51100000000E-03 0. -1.
        -11    1    3    3    0    0 -0.13804715575E+01 -0.33043129736E+01  0.41962967911E+01  0.55166197049E+01  0.51100000000E-03 0.  1.
         12    1    3    3    0    0 -0.15754938778E+02 -0.59650239194E+01  0.49624575433E+01  0.17562049742E+02  0.00000000000E+00 0. -1.
</event>
<event>
 7    1  0.4876728E-009  0.4778727E+02  0.7816164E-02  0.1312668E+00
        -11   -1    0    0    0    0  0.00000000000E+00  0.00000000000E+00  0.45593999997E+02  0.45594000000E+02  0.51100000000E-03 0.  1.
         11   -1    0    0    0    0 -0.00000000000E+00 -0.00000000000E+00 -0.45593999997E+02  0.45594000000E+02  0.51100000000E-03 0. -1.
    9900012    2    1    2    0    0 -0.39292721368E+02 -0.18382832384E+02 -0.13330094663E+01  0.47787269669E+02  0.19999993730E+02 0.  0.
         12    1    1    2    0    0  0.39292721368E+02  0.18382832384E+02  0.13330094663E+01  0.43400730331E+02  0.00000000000E+00 0. -1.
         11    1    3    3    0    0 -0.10426922740E+01 -0.66804617588E+00  0.23417080873E+01  0.26489790295E+01  0.51100000000E-03 0. -1.
        -11    1    3    3    0    0 -0.10907620731E+02 -0.97206993772E+01 -0.74531231672E+01  0.16401744773E+02  0.51100000000E-03 0.  1.
        -12    1    3    3    0    0 -0.27342408363E+02 -0.79940868312E+01  0.37784056136E+01  0.28736545866E+02  0.00000000000E+00 0.  1.
</event>
<event>
 7    1  0.4876728E-009  0.4778727E+02  0.7816164E-02  0.1312668E+00
        -11   -1    0    0    0    0  0.00000000000E+00  0.00000000000E+00  0.45593999997E+02  0.45594000000E+02  0.51100000000E-03 0. -1.
         11   -1    0    0    0    0 -0.00000000000E+00 -0.00000000000E+00 -0.45593999997E+02  0.45594000000E+02  0.51100000000E-03 0.  1.
    9900012    2    1    2    0    0  0.28237768163E+02 -0.32684865377E+02  0.42369096257E+01  0.47787269836E+02  0.19999994490E+02 0.  0.
         12    1    1    2    0    0 -0.28237768163E+02  0.32684865377E+02 -0.42369096257E+01  0.43400730164E+02  0.00000000000E+00 0. -1.
         11    1    3    3    0    0  0.25375595909E+01  0.74180868487E+00 -0.13984839581E+01  0.29908604857E+01  0.51100000000E-03 0. -1.
        -11    1    3    3    0    0  0.23086184927E+02 -0.34566695842E+02  0.49285936063E+01  0.41858325708E+02  0.51100000000E-03 0.  1.
        -12    1    3    3    0    0  0.26140236456E+01  0.11400217799E+01  0.70679997749E+00  0.29380836419E+01  0.00000000000E+00 0.  1.
</event>
<event>
 7    1  0.4876728E-009  0.4778728E+02  0.7816164E-02  0.1312668E+00
        -11   -1    0    0    0    0  0.00000000000E+00  0.00000000000E+00  0.45593999997E+02  0.45594000000E+02  0.51100000000E-03 0.  1.
         11   -1    0    0    0    0 -0.00000000000E+00 -0.00000000000E+00 -0.45593999997E+02  0.45594000000E+02  0.51100000000E-03 0. -1.
    9900012    2    1    2    0    0 -0.29458221702E+01  0.40353749625E+02  0.15700950690E+02  0.47787276163E+02  0.20000023336E+02 0.  0.
         12    1    1    2    0    0  0.29458221702E+01 -0.40353749625E+02 -0.15700950690E+02  0.43400723837E+02  0.00000000000E+00 0. -1.
         11    1    3    3    0    0  0.30020815140E+01  0.55578132678E+01 -0.26304429064E+00  0.63222602205E+01  0.51100000000E-03 0. -1.
        -11    1    3    3    0    0  0.37035581099E+01  0.15887801710E+02  0.10962363713E+02  0.19654821400E+02  0.51100000000E-03 0.  1.
        -12    1    3    3    0    0 -0.96514617940E+01  0.18908134648E+02  0.50016312670E+01  0.21810194542E+02  0.00000000000E+00 0.  1.
</event>
<event>
 7    1  0.6704145E-009  0.4778728E+02  0.7816164E-02  0.1312668E+00
        -11   -1    0    0    0    0  0.00000000000E+00  0.00000000000E+00  0.45593999997E+02  0.45594000000E+02  0.51100000000E-03 0. -1.
         11   -1    0    0    0    0 -0.00000000000E+00 -0.00000000000E+00 -0.45593999997E+02  0.45594000000E+02  0.51100000000E-03 0.  1.
    9900012    2    1    2    0    0  0.12074424330E+02 -0.24272061614E+01 -0.41616580784E+02  0.47787275942E+02  0.20000022330E+02 0.  0.
         12    1    1    2    0    0 -0.12074424330E+02  0.24272061614E+01  0.41616580784E+02  0.43400724058E+02  0.00000000000E+00 0. -1.
         11    1    3    3    0    0 -0.32853892657E+01 -0.41657262144E+01 -0.89917692410E+01  0.10440257270E+02  0.51100000000E-03 0. -1.
        -11    1    3    3    0    0  0.10391597919E+02 -0.34836204498E+01 -0.20272176427E+02  0.23045217641E+02  0.51100000000E-03 0.  1.
         12    1    3    3    0    0  0.49682156762E+01  0.52221405029E+01 -0.12352635115E+02  0.14301801031E+02  0.00000000000E+00 0. -1.
</event>
<event>
 7    1  0.4876728E-009  0.4778727E+02  0.7816164E-02  0.1312668E+00
        -11   -1    0    0    0    0  0.00000000000E+00  0.00000000000E+00  0.45593999997E+02  0.45594000000E+02  0.51100000000E-03 0.  1.
         11   -1    0    0    0    0 -0.00000000000E+00 -0.00000000000E+00 -0.45593999997E+02  0.45594000000E+02  0.51100000000E-03 0. -1.
    9900012    2    1    2    0    0  0.41725050696E+02 -0.11433006239E+00  0.11942789713E+02  0.47787272437E+02  0.20000006347E+02 0.  0.
         12    1    1    2    0    0 -0.41725050696E+02  0.11433006239E+00 -0.11942789713E+02  0.43400727563E+02  0.00000000000E+00 0. -1.
         11    1    3    3    0    0  0.10992591727E+02 -0.13365791868E+01 -0.41631540396E+01  0.11830273396E+02  0.51100000000E-03 0. -1.
        -11    1    3    3    0    0  0.96063207389E+01 -0.35539078884E+01  0.31389596718E+01  0.10712830042E+02  0.51100000000E-03 0.  1.
         12    1    3    3    0    0  0.21126138229E+02  0.47761570128E+01  0.12966984081E+02  0.25244168999E+02  0.00000000000E+00 0. -1.
</event>
<event>
 7    1  0.4876728E-009  0.4778727E+02  0.7816164E-02  0.1312668E+00
        -11   -1    0    0    0    0  0.00000000000E+00  0.00000000000E+00  0.45593999997E+02  0.45594000000E+02  0.51100000000E-03 0.  1.
         11   -1    0    0    0    0 -0.00000000000E+00 -0.00000000000E+00 -0.45593999997E+02  0.45594000000E+02  0.51100000000E-03 0. -1.
    9900012    2    1    2    0    0 -0.30565341556E+02 -0.25568891030E+02  0.17193460271E+02  0.47787269948E+02  0.19999995000E+02 0.  0.
         12    1    1    2    0    0  0.30565341556E+02  0.25568891030E+02 -0.17193460271E+02  0.43400730052E+02  0.00000000000E+00 0. -1.
         11    1    3    3    0    0  0.23318376862E+01 -0.94372018618E+00  0.65318458481E+00  0.25989854073E+01  0.51100000000E-03 0. -1.
        -11    1    3    3    0    0 -0.22208650682E+02 -0.21509545529E+02  0.12334931557E+02  0.33287163453E+02  0.51100000000E-03 0.  1.
         12    1    3    3    0    0 -0.10688528560E+02 -0.31156253155E+01  0.42053441293E+01  0.11901121088E+02  0.00000000000E+00 0. -1.
</event>
<event>
 7    1  0.4876728E-009  0.4778727E+02  0.7816164E-02  0.1312668E+00
        -11   -1    0    0    0    0  0.00000000000E+00  0.00000000000E+00  0.45593999997E+02  0.45594000000E+02  0.51100000000E-03 0.  1.
         11   -1    0    0    0    0 -0.00000000000E+00 -0.00000000000E+00 -0.45593999997E+02  0.45594000000E+02  0.51100000000E-03 0. -1.
    9900012    2    1    2    0    0  0.14695329966E+02 -0.10252424497E+02  0.39529209452E+02  0.47787270389E+02  0.19999997013E+02 0.  0.
         12    1    1    2    0    0 -0.14695329966E+02  0.10252424497E+02 -0.39529209452E+02  0.43400729611E+02  0.00000000000E+00 0. -1.
         11    1    3    3    0    0  0.14479144237E+01  0.35144823838E+01  0.19997390958E+02  0.20355433869E+02  0.51100000000E-03 0. -1.
        -11    1    3    3    0    0  0.60281996045E+01 -0.73525726109E+01  0.83180615909E+01  0.12632880248E+02  0.51100000000E-03 0.  1.
         12    1    3    3    0    0  0.72192159379E+01 -0.64143342695E+01  0.11213756903E+02  0.14798956272E+02  0.00000000000E+00 0. -1.
</event>
<event>
 7    1  0.4876728E-009  0.4778727E+02  0.7816164E-02  0.1312668E+00
        -11   -1    0    0    0    0  0.00000000000E+00  0.00000000000E+00  0.45593999997E+02  0.45594000000E+02  0.51100000000E-03 0.  1.
         11   -1    0    0    0    0 -0.00000000000E+00 -0.00000000000E+00 -0.45593999997E+02  0.45594000000E+02  0.51100000000E-03 0. -1.
    9900012    2    1    2    0    0  0.16106439637E+01 -0.36000572494E+02  0.24186521424E+02  0.47787271752E+02  0.20000003228E+02 0.  0.
         12    1    1    2    0    0 -0.16106439637E+01  0.36000572494E+02 -0.24186521424E+02  0.43400728248E+02  0.00000000000E+00 0. -1.
         11    1    3    3    0    0  0.23077146336E+01 -0.78683140352E+01  0.45710251805E+00  0.82124816931E+01  0.51100000000E-03 0. -1.
        -11    1    3    3    0    0 -0.41597160166E+01 -0.12882844510E+01  0.51544825925E+01  0.67477111100E+01  0.51100000000E-03 0.  1.
        -12    1    3    3    0    0  0.34626453467E+01 -0.26843974008E+02  0.18574936313E+02  0.32827078949E+02  0.00000000000E+00 0.  1.
</event>
<event>
 7    1  0.4876728E-009  0.4778727E+02  0.7816164E-02  0.1312668E+00
        -11   -1    0    0    0    0  0.00000000000E+00  0.00000000000E+00  0.45593999997E+02  0.45594000000E+02  0.51100000000E-03 0.  1.
         11   -1    0    0    0    0 -0.00000000000E+00 -0.00000000000E+00 -0.45593999997E+02  0.45594000000E+02  0.51100000000E-03 0. -1.
    9900012    2    1    2    0    0  0.11494026905E+02 -0.11450057987E+02  0.40254278541E+02  0.47787269324E+02  0.19999992155E+02 0.  0.
         12    1    1    2    0    0 -0.11494026905E+02  0.11450057987E+02 -0.40254278541E+02  0.43400730676E+02  0.00000000000E+00 0. -1.
         11    1    3    3    0    0 -0.51131406390E+01 -0.35742018991E+01  0.80036101356E+01  0.10147753538E+02  0.51100000000E-03 0. -1.
        -11    1    3    3    0    0  0.10797968700E+02 -0.78525225215E+01  0.25066521641E+02  0.28400506077E+02  0.51100000000E-03 0.  1.
         12    1    3    3    0    0  0.58091988439E+01 -0.23333566113E-01  0.71841467638E+01  0.92390097081E+01  0.00000000000E+00 0. -1.
</event>
<event>
 7    1  0.4876728E-009  0.4778727E+02  0.7816164E-02  0.1312668E+00
        -11   -1    0    0    0    0  0.00000000000E+00  0.00000000000E+00  0.45593999997E+02  0.45594000000E+02  0.51100000000E-03 0.  1.
         11   -1    0    0    0    0 -0.00000000000E+00 -0.00000000000E+00 -0.45593999997E+02  0.45594000000E+02  0.51100000000E-03 0. -1.
    9900012    2    1    2    0    0 -0.89377272086E+01 -0.20329727724E+02  0.37288636174E+02  0.47787272072E+02  0.20000004684E+02 0.  0.
         12    1    1    2    0    0  0.89377272086E+01  0.20329727724E+02 -0.37288636174E+02  0.43400727928E+02  0.00000000000E+00 0. -1.
         11    1    3    3    0    0 -0.40649159699E+01  0.97636626240E+00  0.18259756569E+01  0.45619097187E+01  0.51100000000E-03 0. -1.
        -11    1    3    3    0    0 -0.43247144930E+01 -0.20168567735E+02  0.23800518053E+02  0.31495062149E+02  0.51100000000E-03 0.  1.
         12    1    3    3    0    0 -0.54809674567E+00 -0.11375262512E+01  0.11662142464E+02  0.11730300204E+02  0.00000000000E+00 0. -1.
</event>
<event>
 7    1  0.4876728E-009  0.4778727E+02  0.7816164E-02  0.1312668E+00
        -11   -1    0    0    0    0  0.00000000000E+00  0.00000000000E+00  0.45593999997E+02  0.45594000000E+02  0.51100000000E-03 0.  1.
         11   -1    0    0    0    0 -0.00000000000E+00 -0.00000000000E+00 -0.45593999997E+02  0.45594000000E+02  0.51100000000E-03 0. -1.
    9900012    2    1    2    0    0  0.11726755369E+02 -0.10035722396E+02  0.40563415302E+02  0.47787272167E+02  0.20000005117E+02 0.  0.
         12    1    1    2    0    0 -0.11726755369E+02  0.10035722396E+02 -0.40563415302E+02  0.43400727833E+02  0.00000000000E+00 0. -1.
         11    1    3    3    0    0 -0.29086557322E+01 -0.75532136888E+01  0.10111997892E+02  0.12952367229E+02  0.51100000000E-03 0. -1.
        -11    1    3    3    0    0  0.13096244690E+02 -0.21490238265E+01  0.18431943740E+02  0.22712694219E+02  0.51100000000E-03 0.  1.
         12    1    3    3    0    0  0.15391664108E+01 -0.33348488028E+00  0.12019473670E+02  0.12122210719E+02  0.00000000000E+00 0. -1.
</event>
<event>
 7    1  0.4876728E-009  0.4778727E+02  0.7816164E-02  0.1312668E+00
        -11   -1    0    0    0    0  0.00000000000E+00  0.00000000000E+00  0.45593999997E+02  0.45594000000E+02  0.51100000000E-03 0. -1.
         11   -1    0    0    0    0 -0.00000000000E+00 -0.00000000000E+00 -0.45593999997E+02  0.45594000000E+02  0.51100000000E-03 0.  1.
    9900012    2    1    2    0    0 -0.13114857467E+02 -0.40927875932E+02 -0.60442290024E+01  0.47787271677E+02  0.20000002886E+02 0.  0.
         12    1    1    2    0    0  0.13114857467E+02  0.40927875932E+02  0.60442290024E+01  0.43400728323E+02  0.00000000000E+00 0. -1.
         11    1    3    3    0    0 -0.25251667217E+01 -0.22401532521E+02  0.25206944664E+01  0.22683893562E+02  0.51100000000E-03 0. -1.
        -11    1    3    3    0    0 -0.12407001347E+02 -0.15781707104E+02 -0.60681432699E+01  0.20971845997E+02  0.51100000000E-03 0.  1.
        -12    1    3    3    0    0  0.18173106017E+01 -0.27446363076E+01 -0.24967801990E+01  0.41315321185E+01  0.00000000000E+00 0.  1.
</event>
<event>
 7    1  0.4876728E-009  0.4778727E+02  0.7816164E-02  0.1312668E+00
        -11   -1    0    0    0    0  0.00000000000E+00  0.00000000000E+00  0.45593999997E+02  0.45594000000E+02  0.51100000000E-03 0.  1.
         11   -1    0    0    0    0 -0.00000000000E+00 -0.00000000000E+00 -0.45593999997E+02  0.45594000000E+02  0.51100000000E-03 0. -1.
    9900012    2    1    2    0    0  0.14867306551E+02 -0.20906734855E+02  0.35007069990E+02  0.47787270563E+02  0.19999997804E+02 0.  0.
         12    1    1    2    0    0 -0.14867306551E+02  0.20906734855E+02 -0.35007069990E+02  0.43400729437E+02  0.00000000000E+00 0. -1.
         11    1    3    3    0    0  0.17212620445E+02 -0.22358745040E+02  0.30074567746E+02  0.41239148969E+02  0.51100000000E-03 0. -1.
        -11    1    3    3    0    0  0.29701683327E-01  0.13192714328E+01  0.35716743370E+01  0.38076524440E+01  0.51100000000E-03 0.  1.
         12    1    3    3    0    0 -0.23750155769E+01  0.13273875211E+00  0.13608279072E+01  0.27404691496E+01  0.00000000000E+00 0. -1.
</event>
<event>
 7    1  0.4876728E-009  0.4778724E+02  0.7816164E-02  0.1312668E+00
        -11   -1    0    0    0    0  0.00000000000E+00  0.00000000000E+00  0.45593999997E+02  0.45594000000E+02  0.51100000000E-03 0.  1.
         11   -1    0    0    0    0 -0.00000000000E+00 -0.00000000000E+00 -0.45593999997E+02  0.45594000000E+02  0.51100000000E-03 0. -1.
    9900012    2    1    2    0    0 -0.31946799657E+02  0.27011070015E+02  0.11551175662E+02  0.47787244582E+02  0.19999879347E+02 0.  0.
         12    1    1    2    0    0  0.31946799657E+02 -0.27011070015E+02 -0.11551175662E+02  0.43400755418E+02  0.00000000000E+00 0. -1.
         11    1    3    3    0    0 -0.12300466355E+02  0.20263750359E+02  0.38127610061E+01  0.24009543892E+02  0.51100000000E-03 0.  1.
        -11    1    3    3    0    0 -0.10894874472E+02 -0.57994630471E+00  0.51944382261E+01  0.12083741814E+02  0.51100000000E-03 0. -1.
        -12    1    3    3    0    0 -0.87514588293E+01  0.73272659608E+01  0.25439764296E+01  0.11693958875E+02  0.00000000000E+00 0.  1.
</event>
<event>
 7    1  0.4876728E-009  0.4778727E+02  0.7816164E-02  0.1312668E+00
        -11   -1    0    0    0    0  0.00000000000E+00  0.00000000000E+00  0.45593999997E+02  0.45594000000E+02  0.51100000000E-03 0. -1.
         11   -1    0    0    0    0 -0.00000000000E+00 -0.00000000000E+00 -0.45593999997E+02  0.45594000000E+02  0.51100000000E-03 0.  1.
    9900012    2    1    2    0    0  0.16310536549E+02 -0.39050326891E+02  0.96261047814E+01  0.47787268139E+02  0.19999986753E+02 0.  0.
         12    1    1    2    0    0 -0.16310536549E+02  0.39050326891E+02 -0.96261047814E+01  0.43400731861E+02  0.00000000000E+00 0. -1.
         11    1    3    3    0    0  0.33980450456E+01 -0.18475454777E+02  0.83942931689E+01  0.20575550962E+02  0.51100000000E-03 0. -1.
        -11    1    3    3    0    0  0.15157864643E+02 -0.19481522568E+02  0.10100417243E+01  0.24704468556E+02  0.51100000000E-03 0.  1.
        -12    1    3    3    0    0 -0.22453731390E+01 -0.10933495463E+01  0.22176988824E+00  0.25072486209E+01  0.00000000000E+00 0.  1.
</event>
<event>
 7    1  0.4876728E-009  0.4778733E+02  0.7816164E-02  0.1312667E+00
        -11   -1    0    0    0    0  0.00000000000E+00  0.00000000000E+00  0.45593999997E+02  0.45594000000E+02  0.51100000000E-03 0.  1.
         11   -1    0    0    0    0 -0.00000000000E+00 -0.00000000000E+00 -0.45593999997E+02  0.45594000000E+02  0.51100000000E-03 0. -1.
    9900012    2    1    2    0    0  0.36492218863E+02  0.23049291151E+02 -0.45460045566E+01  0.47787331601E+02  0.20000276099E+02 0.  0.
         12    1    1    2    0    0 -0.36492218863E+02 -0.23049291151E+02  0.45460045566E+01  0.43400668399E+02  0.00000000000E+00 0. -1.
         11    1    3    3    0    0  0.93699475915E+01 -0.52110400900E-01  0.31838363783E+01  0.98962340164E+01  0.51100000000E-03 0. -1.
        -11    1    3    3    0    0  0.16321007474E+02  0.15525717696E+02 -0.97475001491E+01  0.24544591142E+02  0.51100000000E-03 0.  1.
         12    1    3    3    0    0  0.10801263797E+02  0.75756838561E+01  0.20176592141E+01  0.13346506442E+02  0.00000000000E+00 0. -1.
</event>
<event>
 7    1  0.4876728E-009  0.4778727E+02  0.7816164E-02  0.1312668E+00
        -11   -1    0    0    0    0  0.00000000000E+00  0.00000000000E+00  0.45593999997E+02  0.45594000000E+02  0.51100000000E-03 0. -1.
         11   -1    0    0    0    0 -0.00000000000E+00 -0.00000000000E+00 -0.45593999997E+02  0.45594000000E+02  0.51100000000E-03 0.  1.
    9900012    2    1    2    0    0 -0.23874170796E+02  0.35928145374E+02  0.47765717590E+01  0.47787270756E+02  0.19999998683E+02 0.  0.
         12    1    1    2    0    0  0.23874170796E+02 -0.35928145374E+02 -0.47765717590E+01  0.43400729244E+02  0.00000000000E+00 0. -1.
         11    1    3    3    0    0 -0.10643246935E+02  0.19294502559E+02  0.50040641247E+01  0.22596397773E+02  0.51100000000E-03 0. -1.
        -11    1    3    3    0    0  0.24081772471E+01  0.37429252606E+01 -0.19327295551E+01  0.48522418483E+01  0.51100000000E-03 0.  1.
        -12    1    3    3    0    0 -0.15639101108E+02  0.12890717554E+02  0.17052371894E+01  0.20338631134E+02  0.00000000000E+00 0.  1.
</event>
<event>
 7    1  0.4876728E-009  0.4778727E+02  0.7816164E-02  0.1312668E+00
        -11   -1    0    0    0    0  0.00000000000E+00  0.00000000000E+00  0.45593999997E+02  0.45594000000E+02  0.51100000000E-03 0.  1.
         11   -1    0    0    0    0 -0.00000000000E+00 -0.00000000000E+00 -0.45593999997E+02  0.45594000000E+02  0.51100000000E-03 0. -1.
    9900012    2    1    2    0    0  0.40294799568E+02 -0.12583239405E+02  0.10080401984E+02  0.47787270856E+02  0.19999999139E+02 0.  0.
         12    1    1    2    0    0 -0.40294799568E+02  0.12583239405E+02 -0.10080401984E+02  0.43400729144E+02  0.00000000000E+00 0. -1.
         11    1    3    3    0    0  0.26122010882E+02 -0.10781106175E+01 -0.69972911304E+00  0.26153611531E+02  0.51100000000E-03 0. -1.
        -11    1    3    3    0    0  0.12329054712E+02 -0.77524669673E+01  0.86865375761E+01  0.16957661085E+02  0.51100000000E-03 0.  1.
         12    1    3    3    0    0  0.18437339737E+01 -0.37526618198E+01  0.20935935212E+01  0.46759982391E+01  0.00000000000E+00 0. -1.
</event>
<event>
 7    1  0.4876728E-009  0.4778727E+02  0.7816164E-02  0.1312668E+00
        -11   -1    0    0    0    0  0.00000000000E+00  0.00000000000E+00  0.45593999997E+02  0.45594000000E+02  0.51100000000E-03 0.  1.
         11   -1    0    0    0    0 -0.00000000000E+00 -0.00000000000E+00 -0.45593999997E+02  0.45594000000E+02  0.51100000000E-03 0. -1.
    9900012    2    1    2    0    0 -0.14229006209E+02  0.37730328530E+02  0.16049323715E+02  0.47787273043E+02  0.20000009112E+02 0.  0.
         12    1    1    2    0    0  0.14229006209E+02 -0.37730328530E+02 -0.16049323715E+02  0.43400726957E+02  0.00000000000E+00 0. -1.
         11    1    3    3    0    0 -0.51575414138E+01  0.46225489810E+01 -0.37543928075E+01  0.78780491323E+01  0.51100000000E-03 0. -1.
        -11    1    3    3    0    0 -0.70380333470E+01  0.17300694755E+02  0.97996113622E+01  0.21092186599E+02  0.51100000000E-03 0.  1.
        -12    1    3    3    0    0 -0.20334314485E+01  0.15807084794E+02  0.10004105160E+02  0.18817037312E+02  0.00000000000E+00 0.  1.
</event>
<event>
 7    1  0.4876728E-009  0.4778729E+02  0.7816164E-02  0.1312668E+00
        -11   -1    0    0    0    0  0.00000000000E+00  0.00000000000E+00  0.45593999997E+02  0.45594000000E+02  0.51100000000E-03 0.  1.
         11   -1    0    0    0    0 -0.00000000000E+00 -0.00000000000E+00 -0.45593999997E+02  0.45594000000E+02  0.51100000000E-03 0. -1.
    9900012    2    1    2    0    0  0.41715700621E+02 -0.11797917514E+02  0.20569905636E+01  0.47787288645E+02  0.20000080246E+02 0.  0.
         12    1    1    2    0    0 -0.41715700621E+02  0.11797917514E+02 -0.20569905636E+01  0.43400711355E+02  0.00000000000E+00 0. -1.
         11    1    3    3    0    0  0.11517563743E+01 -0.36958648635E+01  0.37667163423E+01  0.54013065178E+01  0.51100000000E-03 0. -1.
        -11    1    3    3    0    0  0.25875814859E+02 -0.53303401352E+01  0.32932171170E+01  0.26623591039E+02  0.51100000000E-03 0.  1.
         12    1    3    3    0    0  0.14688129388E+02 -0.27717125154E+01 -0.50029428957E+01  0.15762391088E+02  0.00000000000E+00 0. -1.
</event>
<event>
 7    1  0.4876728E-009  0.4778727E+02  0.7816164E-02  0.1312668E+00
        -11   -1    0    0    0    0  0.00000000000E+00  0.00000000000E+00  0.45593999997E+02  0.45594000000E+02  0.51100000000E-03 0.  1.
         11   -1    0    0    0    0 -0.00000000000E+00 -0.00000000000E+00 -0.45593999997E+02  0.45594000000E+02  0.51100000000E-03 0. -1.
    9900012    2    1    2    0    0  0.70391867183E+01  0.16622045847E+02  0.39468737152E+02  0.47787265327E+02  0.19999973931E+02 0.  0.
         12    1    1    2    0    0 -0.70391867183E+01 -0.16622045847E+02 -0.39468737152E+02  0.43400734673E+02  0.00000000000E+00 0. -1.
         11    1    3    3    0    0  0.97152470547E+00 -0.27184787251E+01  0.39442809952E+01  0.48878768051E+01  0.51100000000E-03 0. -1.
        -11    1    3    3    0    0 -0.63029331970E+00  0.14238047267E+02  0.14881835033E+02  0.20605539882E+02  0.51100000000E-03 0.  1.
        -12    1    3    3    0    0  0.66979553326E+01  0.51024773058E+01  0.20642621124E+02  0.22293848640E+02  0.00000000000E+00 0.  1.
</event>
<event>
 7    1  0.4876728E-009  0.4778727E+02  0.7816164E-02  0.1312668E+00
        -11   -1    0    0    0    0  0.00000000000E+00  0.00000000000E+00  0.45593999997E+02  0.45594000000E+02  0.51100000000E-03 0.  1.
         11   -1    0    0    0    0 -0.00000000000E+00 -0.00000000000E+00 -0.45593999997E+02  0.45594000000E+02  0.51100000000E-03 0. -1.
    9900012    2    1    2    0    0  0.40458686162E+02 -0.13908670291E+02  0.72984193878E+01  0.47787270504E+02  0.19999997536E+02 0.  0.
         12    1    1    2    0    0 -0.40458686162E+02  0.13908670291E+02 -0.72984193878E+01  0.43400729496E+02  0.00000000000E+00 0. -1.
         11    1    3    3    0    0  0.25195209851E-01  0.21073961153E+01  0.23757516229E+01  0.31758383492E+01  0.51100000000E-03 0. -1.
        -11    1    3    3    0    0  0.34098126228E+02 -0.10412157568E+02  0.57491099233E+01  0.36112982467E+02  0.51100000000E-03 0.  1.
         12    1    3    3    0    0  0.63353647239E+01 -0.56039088386E+01 -0.82644215832E+00  0.84984496879E+01  0.00000000000E+00 0. -1.
</event>
<event>
 7    1  0.4876728E-009  0.4778727E+02  0.7816164E-02  0.1312668E+00
        -11   -1    0    0    0    0  0.00000000000E+00  0.00000000000E+00  0.45593999997E+02  0.45594000000E+02  0.51100000000E-03 0.  1.
         11   -1    0    0    0    0 -0.00000000000E+00 -0.00000000000E+00 -0.45593999997E+02  0.45594000000E+02  0.51100000000E-03 0. -1.
    9900012    2    1    2    0    0 -0.56565705843E+01  0.42015181794E+02  0.92925100869E+01  0.47787273788E+02  0.20000012510E+02 0.  0.
         12    1    1    2    0    0  0.56565705843E+01 -0.42015181794E+02 -0.92925100869E+01  0.43400726212E+02  0.00000000000E+00 0. -1.
         11    1    3    3    0    0 -0.19997398809E+01  0.89491122704E+01  0.64686979343E+01  0.11221836893E+02  0.51100000000E-03 0. -1.
        -11    1    3    3    0    0 -0.48349744891E+01  0.30183696711E+02 -0.22079365645E+01  0.30648124079E+02  0.51100000000E-03 0.  1.
        -12    1    3    3    0    0  0.11781437857E+01  0.28823728133E+01  0.50317487171E+01  0.59173128164E+01  0.00000000000E+00 0.  1.
</event>
<event>
 7    1  0.4876728E-009  0.4778727E+02  0.7816164E-02  0.1312668E+00
        -11   -1    0    0    0    0  0.00000000000E+00  0.00000000000E+00  0.45593999997E+02  0.45594000000E+02  0.51100000000E-03 0.  1.
         11   -1    0    0    0    0 -0.00000000000E+00 -0.00000000000E+00 -0.45593999997E+02  0.45594000000E+02  0.51100000000E-03 0. -1.
    9900012    2    1    2    0    0 -0.41225277163E+02 -0.58464719524E+01  0.12244144113E+02  0.47787265254E+02  0.19999973598E+02 0.  0.
         12    1    1    2    0    0  0.41225277163E+02  0.58464719524E+01 -0.12244144113E+02  0.43400734746E+02  0.00000000000E+00 0. -1.
         11    1    3    3    0    0 -0.28456575480E+02 -0.83849883220E+00  0.23866261687E+01  0.28568789843E+02  0.51100000000E-03 0. -1.
        -11    1    3    3    0    0 -0.14195142321E+02 -0.46477064727E+01  0.95087010598E+01  0.17706457497E+02  0.51100000000E-03 0.  1.
         12    1    3    3    0    0  0.14264406388E+01 -0.36026664748E+00  0.34881688420E+00  0.15120179139E+01  0.00000000000E+00 0. -1.
</event>
<event>
 7    1  0.4876728E-009  0.4778726E+02  0.7816164E-02  0.1312668E+00
        -11   -1    0    0    0    0  0.00000000000E+00  0.00000000000E+00  0.45593999997E+02  0.45594000000E+02  0.51100000000E-03 0.  1.
         11   -1    0    0    0    0 -0.00000000000E+00 -0.00000000000E+00 -0.45593999997E+02  0.45594000000E+02  0.51100000000E-03 0. -1.
    9900012    2    1    2    0    0 -0.32888669336E+02 -0.15982118287E+02  0.23378018615E+02  0.47787257725E+02  0.19999939271E+02 0.  0.
         12    1    1    2    0    0  0.32888669336E+02  0.15982118287E+02 -0.23378018615E+02  0.43400742275E+02  0.00000000000E+00 0. -1.
         11    1    3    3    0    0 -0.57878475926E+01 -0.93934506596E+01  0.11530830378E+02  0.15959202502E+02  0.51100000000E-03 0. -1.
        -11    1    3    3    0    0 -0.87176608073E+01 -0.20480167756E+01 -0.90220009356E+00  0.90003304347E+01  0.51100000000E-03 0.  1.
         12    1    3    3    0    0 -0.18383160936E+02 -0.45406508513E+01  0.12749388331E+02  0.22827724788E+02  0.00000000000E+00 0. -1.
</event>
<event>
 7    1  0.4876728E-009  0.4778727E+02  0.7816164E-02  0.1312668E+00
        -11   -1    0    0    0    0  0.00000000000E+00  0.00000000000E+00  0.45593999997E+02  0.45594000000E+02  0.51100000000E-03 0. -1.
         11   -1    0    0    0    0 -0.00000000000E+00 -0.00000000000E+00 -0.45593999997E+02  0.45594000000E+02  0.51100000000E-03 0.  1.
    9900012    2    1    2    0    0 -0.36787262314E+02 -0.11810853348E+02 -0.19769274723E+02  0.47787272489E+02  0.20000006588E+02 0.  0.
         12    1    1    2    0    0  0.36787262314E+02  0.11810853348E+02  0.19769274723E+02  0.43400727511E+02  0.00000000000E+00 0. -1.
         11    1    3    3    0    0 -0.80806786395E+01  0.34494040283E+01 -0.88855613605E+01  0.12495957601E+02  0.51100000000E-03 0. -1.
        -11    1    3    3    0    0 -0.26042552397E+02 -0.10508553745E+02 -0.84643763385E+01  0.29330699007E+02  0.51100000000E-03 0.  1.
         12    1    3    3    0    0 -0.26640312775E+01 -0.47517036312E+01 -0.24193370235E+01  0.59606158809E+01  0.00000000000E+00 0. -1.
</event>
<event>
 7    1  0.4876728E-009  0.4778728E+02  0.7816164E-02  0.1312668E+00
        -11   -1    0    0    0    0  0.00000000000E+00  0.00000000000E+00  0.45593999997E+02  0.45594000000E+02  0.51100000000E-03 0.  1.
         11   -1    0    0    0    0 -0.00000000000E+00 -0.00000000000E+00 -0.45593999997E+02  0.45594000000E+02  0.51100000000E-03 0. -1.
    9900012    2    1    2    0    0 -0.30212895058E+02 -0.31155111592E+02 -0.40345177167E+00  0.47787276741E+02  0.20000025972E+02 0.  0.
         12    1    1    2    0    0  0.30212895058E+02  0.31155111592E+02  0.40345177167E+00  0.43400723259E+02  0.00000000000E+00 0. -1.
         11    1    3    3    0    0 -0.18706139849E+02 -0.19731620761E+02 -0.98343207768E+01  0.28913152566E+02  0.51100000000E-03 0. -1.
        -11    1    3    3    0    0 -0.56696808357E+01 -0.70952473709E+01  0.52624928775E+01  0.10496744618E+02  0.51100000000E-03 0.  1.
         12    1    3    3    0    0 -0.58370743736E+01 -0.43282434596E+01  0.41683761276E+01  0.83773795562E+01  0.00000000000E+00 0. -1.
</event>
<event>
 7    1  0.4876728E-009  0.4778727E+02  0.7816164E-02  0.1312668E+00
        -11   -1    0    0    0    0  0.00000000000E+00  0.00000000000E+00  0.45593999997E+02  0.45594000000E+02  0.51100000000E-03 0. -1.
         11   -1    0    0    0    0 -0.00000000000E+00 -0.00000000000E+00 -0.45593999997E+02  0.45594000000E+02  0.51100000000E-03 0.  1.
    9900012    2    1    2    0    0 -0.57087540168E+01 -0.40364039824E+02 -0.14892198217E+02  0.47787272459E+02  0.20000006450E+02 0.  0.
         12    1    1    2    0    0  0.57087540168E+01  0.40364039824E+02  0.14892198217E+02  0.43400727541E+02  0.00000000000E+00 0. -1.
         11    1    3    3    0    0 -0.66171531328E+00 -0.27131989004E+02 -0.26542735784E+01  0.27269540937E+02  0.51100000000E-03 0. -1.
        -11    1    3    3    0    0  0.43853668374E+00 -0.75577483248E+01 -0.95360247453E+01  0.12175698845E+02  0.51100000000E-03 0.  1.
         12    1    3    3    0    0 -0.54855753872E+01 -0.56743024955E+01 -0.27018998936E+01  0.83420326764E+01  0.00000000000E+00 0. -1.
</event>
<event>
 7    1  0.4876728E-009  0.4778727E+02  0.7816164E-02  0.1312668E+00
        -11   -1    0    0    0    0  0.00000000000E+00  0.00000000000E+00  0.45593999997E+02  0.45594000000E+02  0.51100000000E-03 0. -1.
         11   -1    0    0    0    0 -0.00000000000E+00 -0.00000000000E+00 -0.45593999997E+02  0.45594000000E+02  0.51100000000E-03 0.  1.
    9900012    2    1    2    0    0  0.34428378773E+02 -0.35469381309E+01 -0.26186432398E+02  0.47787271011E+02  0.19999999847E+02 0.  0.
         12    1    1    2    0    0 -0.34428378773E+02  0.35469381309E+01  0.26186432398E+02  0.43400728989E+02  0.00000000000E+00 0. -1.
         11    1    3    3    0    0 -0.15660520387E+01 -0.10170824937E+00 -0.25991334188E+01  0.30361749531E+01  0.51100000000E-03 0. -1.
        -11    1    3    3    0    0  0.31484274774E+02 -0.20675245506E+01 -0.24500539235E+02  0.39947598662E+02  0.51100000000E-03 0.  1.
        -12    1    3    3    0    0  0.45101560382E+01 -0.13777053309E+01  0.91324025563E+00  0.48034973959E+01  0.00000000000E+00 0.  1.
</event>
<event>
 7    1  0.4876728E-009  0.4778727E+02  0.7816164E-02  0.1312668E+00
        -11   -1    0    0    0    0  0.00000000000E+00  0.00000000000E+00  0.45593999997E+02  0.45594000000E+02  0.51100000000E-03 0.  1.
         11   -1    0    0    0    0 -0.00000000000E+00 -0.00000000000E+00 -0.45593999997E+02  0.45594000000E+02  0.51100000000E-03 0. -1.
    9900012    2    1    2    0    0  0.17954270763E+01  0.33821691847E+02  0.27138404907E+02  0.47787269377E+02  0.19999992397E+02 0.  0.
         12    1    1    2    0    0 -0.17954270763E+01 -0.33821691847E+02 -0.27138404907E+02  0.43400730623E+02  0.00000000000E+00 0. -1.
         11    1    3    3    0    0  0.69384925869E+00  0.40100245749E+01 -0.84078801396E+00  0.41555563564E+01  0.51100000000E-03 0. -1.
        -11    1    3    3    0    0  0.22111373300E+01  0.22656047764E+02  0.11227422730E+02  0.25381896107E+02  0.51100000000E-03 0.  1.
        -12    1    3    3    0    0 -0.11095595124E+01  0.71556195075E+01  0.16751770191E+02  0.18249816913E+02  0.00000000000E+00 0.  1.
</event>
<event>
 7    1  0.4876728E-009  0.4778728E+02  0.7816164E-02  0.1312668E+00
        -11   -1    0    0    0    0  0.00000000000E+00  0.00000000000E+00  0.45593999997E+02  0.45594000000E+02  0.51100000000E-03 0. -1.
         11   -1    0    0    0    0 -0.00000000000E+00 -0.00000000000E+00 -0.45593999997E+02  0.45594000000E+02  0.51100000000E-03 0.  1.
    9900012    2    1    2    0    0 -0.25884088952E+02 -0.32967670482E+02 -0.11259197810E+02  0.47787275430E+02  0.20000019996E+02 0.  0.
         12    1    1    2    0    0  0.25884088952E+02  0.32967670482E+02  0.11259197810E+02  0.43400724570E+02  0.00000000000E+00 0. -1.
         11    1    3    3    0    0 -0.18670182651E+02 -0.10683778032E+02 -0.48059314282E+01  0.22041229784E+02  0.51100000000E-03 0. -1.
        -11    1    3    3    0    0 -0.19281280158E+01 -0.10206393560E+02  0.12740825143E+01  0.10464771075E+02  0.51100000000E-03 0.  1.
         12    1    3    3    0    0 -0.52857782847E+01 -0.12077498891E+02 -0.77273488960E+01  0.15281274570E+02  0.00000000000E+00 0. -1.
</event>
<event>
 7    1  0.4876728E-009  0.4778728E+02  0.7816164E-02  0.1312668E+00
        -11   -1    0    0    0    0  0.00000000000E+00  0.00000000000E+00  0.45593999997E+02  0.45594000000E+02  0.51100000000E-03 0.  1.
         11   -1    0    0    0    0 -0.00000000000E+00 -0.00000000000E+00 -0.45593999997E+02  0.45594000000E+02  0.51100000000E-03 0. -1.
    9900012    2    1    2    0    0 -0.32472942325E+02 -0.28025285866E+02  0.66116294346E+01  0.47787282553E+02  0.20000052473E+02 0.  0.
         12    1    1    2    0    0  0.32472942325E+02  0.28025285866E+02 -0.66116294346E+01  0.43400717447E+02  0.00000000000E+00 0. -1.
         11    1    3    3    0    0 -0.71703107783E+01 -0.12327658793E+02  0.86168673417E+01  0.16662380713E+02  0.51100000000E-03 0. -1.
        -11    1    3    3    0    0 -0.15585007155E+02 -0.13592130480E+02  0.10986770020E+01  0.20708586394E+02  0.51100000000E-03 0.  1.
         12    1    3    3    0    0 -0.97176243916E+01 -0.21054965924E+01 -0.31039149091E+01  0.10416315446E+02  0.00000000000E+00 0. -1.
</event>
<event>
 7    1  0.4876728E-009  0.4778727E+02  0.7816164E-02  0.1312668E+00
        -11   -1    0    0    0    0  0.00000000000E+00  0.00000000000E+00  0.45593999997E+02  0.45594000000E+02  0.51100000000E-03 0.  1.
         11   -1    0    0    0    0 -0.00000000000E+00 -0.00000000000E+00 -0.45593999997E+02  0.45594000000E+02  0.51100000000E-03 0. -1.
    9900012    2    1    2    0    0  0.10597509523E+01 -0.22093569899E+02  0.37341328053E+02  0.47787266323E+02  0.19999978472E+02 0.  0.
         12    1    1    2    0    0 -0.10597509523E+01  0.22093569899E+02 -0.37341328053E+02  0.43400733677E+02  0.00000000000E+00 0. -1.
         11    1    3    3    0    0 -0.35778590029E+00 -0.19802417219E+01  0.19413375471E+01  0.27960972373E+01  0.51100000000E-03 0. -1.
        -11    1    3    3    0    0 -0.30380238129E+01  0.20498727489E+01  0.11603107099E+02  0.12168141254E+02  0.51100000000E-03 0.  1.
        -12    1    3    3    0    0  0.44555606655E+01 -0.22163200926E+02  0.23796883407E+02  0.32823027831E+02  0.00000000000E+00 0.  1.
</event>
<event>
 7    1  0.4876728E-009  0.4778727E+02  0.7816164E-02  0.1312668E+00
        -11   -1    0    0    0    0  0.00000000000E+00  0.00000000000E+00  0.45593999997E+02  0.45594000000E+02  0.51100000000E-03 0. -1.
         11   -1    0    0    0    0 -0.00000000000E+00 -0.00000000000E+00 -0.45593999997E+02  0.45594000000E+02  0.51100000000E-03 0.  1.
    9900012    2    1    2    0    0 -0.14121929752E+02 -0.24192658095E+02 -0.33149805136E+02  0.47787272055E+02  0.20000004605E+02 0.  0.
         12    1    1    2    0    0  0.14121929752E+02  0.24192658095E+02  0.33149805136E+02  0.43400727945E+02  0.00000000000E+00 0. -1.
         11    1    3    3    0    0  0.19182849145E+01  0.38194898777E+00 -0.59148074384E+01  0.62298193663E+01  0.51100000000E-03 0. -1.
        -11    1    3    3    0    0 -0.14979116501E+02 -0.23415764504E+02 -0.20231902683E+02  0.34380253706E+02  0.51100000000E-03 0.  1.
        -12    1    3    3    0    0 -0.10610981656E+01 -0.11588425784E+01 -0.70030950151E+01  0.71771989821E+01  0.00000000000E+00 0.  1.
</event>
<event>
 7    1  0.4876728E-009  0.4778727E+02  0.7816164E-02  0.1312668E+00
        -11   -1    0    0    0    0  0.00000000000E+00  0.00000000000E+00  0.45593999997E+02  0.45594000000E+02  0.51100000000E-03 0.  1.
         11   -1    0    0    0    0 -0.00000000000E+00 -0.00000000000E+00 -0.45593999997E+02  0.45594000000E+02  0.51100000000E-03 0. -1.
    9900012    2    1    2    0    0 -0.34032828615E+02 -0.68702217854E+01  0.26042080401E+02  0.47787270484E+02  0.19999997444E+02 0.  0.
         12    1    1    2    0    0  0.34032828615E+02  0.68702217854E+01 -0.26042080401E+02  0.43400729516E+02  0.00000000000E+00 0. -1.
         11    1    3    3    0    0  0.16114908732E+00 -0.17884035926E+01  0.13260784487E+01  0.22322277553E+01  0.51100000000E-03 0. -1.
        -11    1    3    3    0    0 -0.80240976239E+01  0.44880220383E+01  0.11476181047E+02  0.14704802487E+02  0.51100000000E-03 0.  1.
        -12    1    3    3    0    0 -0.26169880079E+02 -0.95698402312E+01  0.13239820905E+02  0.30850240242E+02  0.00000000000E+00 0.  1.
</event>
<event>
 7    1  0.4876728E-009  0.4778727E+02  0.7816164E-02  0.1312668E+00
        -11   -1    0    0    0    0  0.00000000000E+00  0.00000000000E+00  0.45593999997E+02  0.45594000000E+02  0.51100000000E-03 0.  1.
         11   -1    0    0    0    0 -0.00000000000E+00 -0.00000000000E+00 -0.45593999997E+02  0.45594000000E+02  0.51100000000E-03 0. -1.
    9900012    2    1    2    0    0  0.33689452892E+02  0.26176663665E+02  0.79640783614E+01  0.47787268428E+02  0.19999988073E+02 0.  0.
         12    1    1    2    0    0 -0.33689452892E+02 -0.26176663665E+02 -0.79640783614E+01  0.43400731572E+02  0.00000000000E+00 0. -1.
         11    1    3    3    0    0  0.89103617874E+01  0.87395763583E+01 -0.21646486183E+01  0.12667298292E+02  0.51100000000E-03 0. -1.
        -11    1    3    3    0    0  0.14825302817E+02  0.85238384455E+01  0.12966046863E+02  0.21460750149E+02  0.51100000000E-03 0.  1.
        -12    1    3    3    0    0  0.99537882875E+01  0.89132488616E+01 -0.28373198837E+01  0.13659219987E+02  0.00000000000E+00 0.  1.
</event>
<event>
 7    1  0.4876728E-009  0.4778726E+02  0.7816164E-02  0.1312668E+00
        -11   -1    0    0    0    0  0.00000000000E+00  0.00000000000E+00  0.45593999997E+02  0.45594000000E+02  0.51100000000E-03 0.  1.
         11   -1    0    0    0    0 -0.00000000000E+00 -0.00000000000E+00 -0.45593999997E+02  0.45594000000E+02  0.51100000000E-03 0. -1.
    9900012    2    1    2    0    0 -0.15031827707E+02  0.36454505843E+01  0.40550939649E+02  0.47787264285E+02  0.19999969181E+02 0.  0.
         12    1    1    2    0    0  0.15031827707E+02 -0.36454505843E+01 -0.40550939649E+02  0.43400735715E+02  0.00000000000E+00 0. -1.
         11    1    3    3    0    0 -0.14098582828E+02 -0.29568148126E+01  0.19546248015E+02  0.24281033819E+02  0.51100000000E-03 0. -1.
        -11    1    3    3    0    0 -0.79259888000E+00  0.61771018267E+01  0.65263979633E+01  0.90210127258E+01  0.51100000000E-03 0.  1.
         12    1    3    3    0    0 -0.14064599891E+00  0.42516357017E+00  0.14478293671E+02  0.14485217740E+02  0.00000000000E+00 0. -1.
</event>
<event>
 7    1  0.4876728E-009  0.4778727E+02  0.7816164E-02  0.1312668E+00
        -11   -1    0    0    0    0  0.00000000000E+00  0.00000000000E+00  0.45593999997E+02  0.45594000000E+02  0.51100000000E-03 0. -1.
         11   -1    0    0    0    0 -0.00000000000E+00 -0.00000000000E+00 -0.45593999997E+02  0.45594000000E+02  0.51100000000E-03 0.  1.
    9900012    2    1    2    0    0 -0.33190021712E+02  0.22511614474E+02 -0.16591349453E+02  0.47787271848E+02  0.20000003664E+02 0.  0.
         12    1    1    2    0    0  0.33190021712E+02 -0.22511614474E+02  0.16591349453E+02  0.43400728152E+02  0.00000000000E+00 0. -1.
         11    1    3    3    0    0 -0.20101913338E+02  0.17766189031E+02 -0.16570313167E+02  0.31532517680E+02  0.51100000000E-03 0. -1.
        -11    1    3    3    0    0 -0.44089272609E+01  0.55660334022E+01 -0.18703905231E+01  0.73428692209E+01  0.51100000000E-03 0.  1.
         12    1    3    3    0    0 -0.86791811131E+01 -0.82060795937E+00  0.18493542372E+01  0.89118849472E+01  0.00000000000E+00 0. -1.
</event>
<event>
 7    1  0.4876728E-009  0.4778727E+02  0.7816164E-02  0.1312668E+00
        -11   -1    0    0    0    0  0.00000000000E+00  0.00000000000E+00  0.45593999997E+02  0.45594000000E+02  0.51100000000E-03 0.  1.
         11   -1    0    0    0    0 -0.00000000000E+00 -0.00000000000E+00 -0.45593999997E+02  0.45594000000E+02  0.51100000000E-03 0. -1.
    9900012    2    1    2    0    0 -0.36790370418E+02 -0.37017948848E+00  0.23020755494E+02  0.47787267612E+02  0.19999984349E+02 0.  0.
         12    1    1    2    0    0  0.36790370418E+02  0.37017948848E+00 -0.23020755494E+02  0.43400732388E+02  0.00000000000E+00 0. -1.
         11    1    3    3    0    0 -0.16250512837E+02  0.36390937914E+00  0.21205448339E+01  0.16392324672E+02  0.51100000000E-03 0.  1.
        -11    1    3    3    0    0 -0.18690600827E+02 -0.30740840241E+01  0.21161924270E+02  0.28400978697E+02  0.51100000000E-03 0. -1.
         12    1    3    3    0    0 -0.18492567538E+01  0.23399951565E+01 -0.26171361010E+00  0.29939642429E+01  0.00000000000E+00 0. -1.
</event>
<event>
 7    1  0.4941939E-009  0.4778727E+02  0.7816164E-02  0.1312668E+00
        -11   -1    0    0    0    0  0.00000000000E+00  0.00000000000E+00  0.45593999997E+02  0.45594000000E+02  0.51100000000E-03 0. -1.
         11   -1    0    0    0    0 -0.00000000000E+00 -0.00000000000E+00 -0.45593999997E+02  0.45594000000E+02  0.51100000000E-03 0.  1.
    9900012    2    1    2    0    0 -0.36270992707E+01  0.43203901618E+02 -0.19723834091E+01  0.47787271199E+02  0.20000000707E+02 0.  0.
         12    1    1    2    0    0  0.36270992707E+01 -0.43203901618E+02  0.19723834091E+01  0.43400728801E+02  0.00000000000E+00 0. -1.
         11    1    3    3    0    0 -0.71467230371E+01  0.15805602815E+02  0.53018928104E+01  0.18138434281E+02  0.51100000000E-03 0. -1.
        -11    1    3    3    0    0  0.22617959817E+01  0.21926657761E+02 -0.23265261128E+01  0.22165440795E+02  0.51100000000E-03 0.  1.
         12    1    3    3    0    0  0.12578277847E+01  0.54716410414E+01 -0.49477501068E+01  0.74833961235E+01  0.00000000000E+00 0. -1.
</event>
<event>
 7    1  0.4876728E-009  0.4778727E+02  0.7816164E-02  0.1312668E+00
        -11   -1    0    0    0    0  0.00000000000E+00  0.00000000000E+00  0.45593999997E+02  0.45594000000E+02  0.51100000000E-03 0.  1.
         11   -1    0    0    0    0 -0.00000000000E+00 -0.00000000000E+00 -0.45593999997E+02  0.45594000000E+02  0.51100000000E-03 0. -1.
    9900012    2    1    2    0    0  0.62346248862E+01 -0.13701695282E+02  0.40706465951E+02  0.47787269923E+02  0.19999994885E+02 0.  0.
         12    1    1    2    0    0 -0.62346248862E+01  0.13701695282E+02 -0.40706465951E+02  0.43400730077E+02  0.00000000000E+00 0. -1.
         11    1    3    3    0    0  0.28003057408E+01  0.88463072251E+00  0.24201349452E+02  0.24378876088E+02  0.51100000000E-03 0. -1.
        -11    1    3    3    0    0  0.47779883879E+01 -0.61432308781E+01  0.57877467632E+01  0.96987871155E+01  0.51100000000E-03 0.  1.
         12    1    3    3    0    0 -0.13436692425E+01 -0.84430951262E+01  0.10717369735E+02  0.13709606719E+02  0.00000000000E+00 0. -1.
</event>
<event>
 7    1  0.4876728E-009  0.4778726E+02  0.7816164E-02  0.1312668E+00
        -11   -1    0    0    0    0  0.00000000000E+00  0.00000000000E+00  0.45593999997E+02  0.45594000000E+02  0.51100000000E-03 0.  1.
         11   -1    0    0    0    0 -0.00000000000E+00 -0.00000000000E+00 -0.45593999997E+02  0.45594000000E+02  0.51100000000E-03 0. -1.
    9900012    2    1    2    0    0 -0.71691565679E+01 -0.40899399036E+02  0.12628016209E+02  0.47787257601E+02  0.19999938705E+02 0.  0.
         12    1    1    2    0    0  0.71691565679E+01  0.40899399036E+02 -0.12628016209E+02  0.43400742399E+02  0.00000000000E+00 0. -1.
         11    1    3    3    0    0 -0.46882343419E+01 -0.35815427595E+01 -0.10741197749E+01  0.59967260513E+01  0.51100000000E-03 0. -1.
        -11    1    3    3    0    0 -0.55022858436E+01 -0.34365603509E+02  0.10100626049E+02  0.36239377766E+02  0.51100000000E-03 0.  1.
         12    1    3    3    0    0  0.30213636176E+01 -0.29522527681E+01  0.36015099347E+01  0.55511537833E+01  0.00000000000E+00 0. -1.
</event>
<event>
 7    1  0.4876728E-009  0.4778727E+02  0.7816164E-02  0.1312668E+00
        -11   -1    0    0    0    0  0.00000000000E+00  0.00000000000E+00  0.45593999997E+02  0.45594000000E+02  0.51100000000E-03 0.  1.
         11   -1    0    0    0    0 -0.00000000000E+00 -0.00000000000E+00 -0.45593999997E+02  0.45594000000E+02  0.51100000000E-03 0. -1.
    9900012    2    1    2    0    0 -0.19074120961E+02  0.28911257681E+02  0.26152260301E+02  0.47787266942E+02  0.19999981294E+02 0.  0.
         12    1    1    2    0    0  0.19074120961E+02 -0.28911257681E+02 -0.26152260301E+02  0.43400733058E+02  0.00000000000E+00 0. -1.
         11    1    3    3    0    0  0.21654034885E+01  0.12686205410E+02  0.75310076284E+01  0.14911232549E+02  0.51100000000E-03 0. -1.
        -11    1    3    3    0    0 -0.21195136971E+02  0.16434400510E+02  0.18639577271E+02  0.32661249095E+02  0.51100000000E-03 0.  1.
        -12    1    3    3    0    0 -0.44387478191E-01 -0.20934823834E+00 -0.18324598823E-01  0.21478529754E+00  0.00000000000E+00 0.  1.
</event>
<event>
 7    1  0.4876728E-009  0.4778727E+02  0.7816164E-02  0.1312668E+00
        -11   -1    0    0    0    0  0.00000000000E+00  0.00000000000E+00  0.45593999997E+02  0.45594000000E+02  0.51100000000E-03 0. -1.
         11   -1    0    0    0    0 -0.00000000000E+00 -0.00000000000E+00 -0.45593999997E+02  0.45594000000E+02  0.51100000000E-03 0.  1.
    9900012    2    1    2    0    0 -0.41673236472E+02 -0.96586320144E+01 -0.73263541348E+01  0.47787271028E+02  0.19999999924E+02 0.  0.
         12    1    1    2    0    0  0.41673236472E+02  0.96586320144E+01  0.73263541348E+01  0.43400728972E+02  0.00000000000E+00 0. -1.
         11    1    3    3    0    0 -0.14107522222E+02 -0.22044136715E+00 -0.84541670010E+01  0.16448213203E+02  0.51100000000E-03 0. -1.
        -11    1    3    3    0    0 -0.10981693691E+02 -0.76743429758E+01  0.48550567650E+01  0.14250077645E+02  0.51100000000E-03 0.  1.
         12    1    3    3    0    0 -0.16584020559E+02 -0.17638476715E+01 -0.37272438987E+01  0.17088980180E+02  0.00000000000E+00 0. -1.
</event>
<event>
 7    1  0.4876728E-009  0.4778727E+02  0.7816164E-02  0.1312668E+00
        -11   -1    0    0    0    0  0.00000000000E+00  0.00000000000E+00  0.45593999997E+02  0.45594000000E+02  0.51100000000E-03 0. -1.
         11   -1    0    0    0    0 -0.00000000000E+00 -0.00000000000E+00 -0.45593999997E+02  0.45594000000E+02  0.51100000000E-03 0.  1.
    9900012    2    1    2    0    0  0.37764798718E+02  0.16314095062E+02 -0.13830896879E+02  0.47787269265E+02  0.19999991885E+02 0.  0.
         12    1    1    2    0    0 -0.37764798718E+02 -0.16314095062E+02  0.13830896879E+02  0.43400730735E+02  0.00000000000E+00 0. -1.
         11    1    3    3    0    0  0.41081340524E+01  0.10433715751E+02 -0.30705091488E+01  0.11626143663E+02  0.51100000000E-03 0. -1.
        -11    1    3    3    0    0  0.17756526908E+02  0.83076798220E+00 -0.44470652378E+01  0.18323777251E+02  0.51100000000E-03 0.  1.
         12    1    3    3    0    0  0.15900137757E+02  0.50496113286E+01 -0.63133224929E+01  0.17837348350E+02  0.00000000000E+00 0. -1.
</event>
<event>
 7    1  0.4876728E-009  0.4778728E+02  0.7816164E-02  0.1312668E+00
        -11   -1    0    0    0    0  0.00000000000E+00  0.00000000000E+00  0.45593999997E+02  0.45594000000E+02  0.51100000000E-03 0.  1.
         11   -1    0    0    0    0 -0.00000000000E+00 -0.00000000000E+00 -0.45593999997E+02  0.45594000000E+02  0.51100000000E-03 0. -1.
    9900012    2    1    2    0    0  0.15963074920E+02  0.39766533198E+02 -0.68866512603E+01  0.47787275478E+02  0.20000020215E+02 0.  0.
         12    1    1    2    0    0 -0.15963074920E+02 -0.39766533198E+02  0.68866512603E+01  0.43400724522E+02  0.00000000000E+00 0. -1.
         11    1    3    3    0    0  0.81782272247E+01  0.10533534700E+02  0.34120879156E+01  0.13765213330E+02  0.51100000000E-03 0. -1.
        -11    1    3    3    0    0  0.67346560347E+01  0.27457123539E+02 -0.12582294809E+02  0.30944520805E+02  0.51100000000E-03 0.  1.
         12    1    3    3    0    0  0.10501916602E+01  0.17758749589E+01  0.22835556326E+01  0.30775413433E+01  0.00000000000E+00 0. -1.
</event>
<event>
 7    1  0.5780580E-009  0.4778729E+02  0.7816164E-02  0.1312668E+00
        -11   -1    0    0    0    0  0.00000000000E+00  0.00000000000E+00  0.45593999997E+02  0.45594000000E+02  0.51100000000E-03 0. -1.
         11   -1    0    0    0    0 -0.00000000000E+00 -0.00000000000E+00 -0.45593999997E+02  0.45594000000E+02  0.51100000000E-03 0.  1.
    9900012    2    1    2    0    0  0.69256535140E+01 -0.42289667267E+02 -0.68732368030E+01  0.47787285510E+02  0.20000065953E+02 0.  0.
         12    1    1    2    0    0 -0.69256535140E+01  0.42289667267E+02  0.68732368030E+01  0.43400714490E+02  0.00000000000E+00 0. -1.
         11    1    3    3    0    0  0.98156614570E+00  0.22536909011E+00  0.22302081694E+01  0.24470578385E+01  0.51100000000E-03 0. -1.
        -11    1    3    3    0    0  0.11528966442E+01 -0.30418300208E+02 -0.19743413516E+01  0.30504101073E+02  0.51100000000E-03 0.  1.
         12    1    3    3    0    0  0.47911907241E+01 -0.12096736148E+02 -0.71291036208E+01  0.14836126598E+02  0.00000000000E+00 0. -1.
</event>
<event>
 7    1  0.4876728E-009  0.4778727E+02  0.7816164E-02  0.1312668E+00
        -11   -1    0    0    0    0  0.00000000000E+00  0.00000000000E+00  0.45593999997E+02  0.45594000000E+02  0.51100000000E-03 0.  1.
         11   -1    0    0    0    0 -0.00000000000E+00 -0.00000000000E+00 -0.45593999997E+02  0.45594000000E+02  0.51100000000E-03 0. -1.
    9900012    2    1    2    0    0 -0.27353045262E+02 -0.32348838216E+02  0.94333025381E+01  0.47787267105E+02  0.19999982038E+02 0.  0.
         12    1    1    2    0    0  0.27353045262E+02  0.32348838216E+02 -0.94333025381E+01  0.43400732895E+02  0.00000000000E+00 0. -1.
         11    1    3    3    0    0 -0.12210278834E+01 -0.17356539328E+01  0.42064333311E+01  0.47114207302E+01  0.51100000000E-03 0. -1.
        -11    1    3    3    0    0 -0.23418995594E+02 -0.20132175651E+02 -0.37668025749E+00  0.30885202595E+02  0.51100000000E-03 0.  1.
        -12    1    3    3    0    0 -0.27130217846E+01 -0.10481008632E+02  0.56035494645E+01  0.12190643779E+02  0.00000000000E+00 0.  1.
</event>
<event>
 7    1  0.4876728E-009  0.4778727E+02  0.7816164E-02  0.1312668E+00
        -11   -1    0    0    0    0  0.00000000000E+00  0.00000000000E+00  0.45593999997E+02  0.45594000000E+02  0.51100000000E-03 0.  1.
         11   -1    0    0    0    0 -0.00000000000E+00 -0.00000000000E+00 -0.45593999997E+02  0.45594000000E+02  0.51100000000E-03 0. -1.
    9900012    2    1    2    0    0  0.83338512500E+01 -0.19858185621E+02  0.37680534425E+02  0.47787270889E+02  0.19999999292E+02 0.  0.
         12    1    1    2    0    0 -0.83338512500E+01  0.19858185621E+02 -0.37680534425E+02  0.43400729111E+02  0.00000000000E+00 0. -1.
         11    1    3    3    0    0  0.89880682818E+01 -0.23525307477E+01  0.17521673938E+02  0.19832519513E+02  0.51100000000E-03 0. -1.
        -11    1    3    3    0    0 -0.32653069392E-02 -0.11091874588E+02  0.18024408069E+02  0.21163860211E+02  0.51100000000E-03 0.  1.
         12    1    3    3    0    0 -0.65095172481E+00 -0.64137802853E+01  0.21344524173E+01  0.67908911652E+01  0.00000000000E+00 0. -1.
</event>
<event>
 7    1  0.4876728E-009  0.4778727E+02  0.7816164E-02  0.1312668E+00
        -11   -1    0    0    0    0  0.00000000000E+00  0.00000000000E+00  0.45593999997E+02  0.45594000000E+02  0.51100000000E-03 0.  1.
         11   -1    0    0    0    0 -0.00000000000E+00 -0.00000000000E+00 -0.45593999997E+02  0.45594000000E+02  0.51100000000E-03 0. -1.
    9900012    2    1    2    0    0 -0.18112720866E+02 -0.96134045384E+01  0.38250947574E+02  0.47787271961E+02  0.20000004179E+02 0.  0.
         12    1    1    2    0    0  0.18112720866E+02  0.96134045384E+01 -0.38250947574E+02  0.43400728039E+02  0.00000000000E+00 0. -1.
         11    1    3    3    0    0 -0.69936758413E+01 -0.76988302251E+01  0.53352884165E+01  0.11689687393E+02  0.51100000000E-03 0. -1.
        -11    1    3    3    0    0 -0.11104376991E+02  0.66298445627E+00  0.19618293343E+02  0.22552697637E+02  0.51100000000E-03 0.  1.
         12    1    3    3    0    0 -0.14668033963E-01 -0.25775587696E+01  0.13297365814E+02  0.13544886930E+02  0.00000000000E+00 0. -1.
</event>
<event>
 7    1  0.4876728E-009  0.4778727E+02  0.7816164E-02  0.1312668E+00
        -11   -1    0    0    0    0  0.00000000000E+00  0.00000000000E+00  0.45593999997E+02  0.45594000000E+02  0.51100000000E-03 0.  1.
         11   -1    0    0    0    0 -0.00000000000E+00 -0.00000000000E+00 -0.45593999997E+02  0.45594000000E+02  0.51100000000E-03 0. -1.
    9900012    2    1    2    0    0  0.92363292106E+01 -0.33322279457E+02  0.26228597353E+02  0.47787269538E+02  0.19999993133E+02 0.  0.
         12    1    1    2    0    0 -0.92363292106E+01  0.33322279457E+02 -0.26228597353E+02  0.43400730462E+02  0.00000000000E+00 0. -1.
         11    1    3    3    0    0  0.70119054199E+01 -0.35548937318E+01  0.76204881227E+01  0.10948786533E+02  0.51100000000E-03 0. -1.
        -11    1    3    3    0    0  0.23818330104E+01 -0.24137189538E+02  0.19518784156E+02  0.31132940473E+02  0.51100000000E-03 0.  1.
        -12    1    3    3    0    0 -0.15740921970E+00 -0.56301961869E+01 -0.91067492601E+00  0.57055425322E+01  0.00000000000E+00 0.  1.
</event>
<event>
 7    1  0.4876728E-009  0.4778728E+02  0.7816164E-02  0.1312668E+00
        -11   -1    0    0    0    0  0.00000000000E+00  0.00000000000E+00  0.45593999997E+02  0.45594000000E+02  0.51100000000E-03 0. -1.
         11   -1    0    0    0    0 -0.00000000000E+00 -0.00000000000E+00 -0.45593999997E+02  0.45594000000E+02  0.51100000000E-03 0.  1.
    9900012    2    1    2    0    0 -0.38401106509E+02  0.34660235721E+01 -0.19923967785E+02  0.47787276586E+02  0.20000025268E+02 0.  0.
         12    1    1    2    0    0  0.38401106509E+02 -0.34660235721E+01  0.19923967785E+02  0.43400723414E+02  0.00000000000E+00 0. -1.
         11    1    3    3    0    0  0.15924672269E+01 -0.35847268343E-01  0.11623719150E+01  0.19718888471E+01  0.51100000000E-03 0. -1.
        -11    1    3    3    0    0 -0.24595109601E+02  0.39806317886E+01 -0.15916517726E+02  0.29565188694E+02  0.51100000000E-03 0.  1.
        -12    1    3    3    0    0 -0.15398464136E+02 -0.47876094818E+00 -0.51698219734E+01  0.16250199046E+02  0.00000000000E+00 0.  1.
</event>
<event>
 7    1  0.4876728E-009  0.4778727E+02  0.7816164E-02  0.1312668E+00
        -11   -1    0    0    0    0  0.00000000000E+00  0.00000000000E+00  0.45593999997E+02  0.45594000000E+02  0.51100000000E-03 0.  1.
         11   -1    0    0    0    0 -0.00000000000E+00 -0.00000000000E+00 -0.45593999997E+02  0.45594000000E+02  0.51100000000E-03 0. -1.
    9900012    2    1    2    0    0  0.24687550061E+02 -0.26000955778E+02  0.24456050545E+02  0.47787271462E+02  0.20000001904E+02 0.  0.
         12    1    1    2    0    0 -0.24687550061E+02  0.26000955778E+02 -0.24456050545E+02  0.43400728538E+02  0.00000000000E+00 0. -1.
         11    1    3    3    0    0 -0.12171727025E+01  0.12068422869E+01 -0.12302642594E+00  0.17184625268E+01  0.51100000000E-03 0. -1.
        -11    1    3    3    0    0 -0.73954485047E+00 -0.25532247652E+01  0.14948049419E+01  0.30496434813E+01  0.51100000000E-03 0.  1.
         12    1    3    3    0    0  0.26644267614E+02 -0.24654573300E+02  0.23084272029E+02  0.43019165454E+02  0.00000000000E+00 0. -1.
</event>
<event>
 7    1  0.4876728E-009  0.4778727E+02  0.7816164E-02  0.1312668E+00
        -11   -1    0    0    0    0  0.00000000000E+00  0.00000000000E+00  0.45593999997E+02  0.45594000000E+02  0.51100000000E-03 0.  1.
         11   -1    0    0    0    0 -0.00000000000E+00 -0.00000000000E+00 -0.45593999997E+02  0.45594000000E+02  0.51100000000E-03 0. -1.
    9900012    2    1    2    0    0 -0.13857420403E+02  0.77656507703E+01  0.40389235282E+02  0.47787265458E+02  0.19999974530E+02 0.  0.
         12    1    1    2    0    0  0.13857420403E+02 -0.77656507703E+01 -0.40389235282E+02  0.43400734542E+02  0.00000000000E+00 0. -1.
         11    1    3    3    0    0 -0.78533735110E+01  0.26356793557E+01  0.30149150837E+02  0.31266492890E+02  0.51100000000E-03 0. -1.
        -11    1    3    3    0    0 -0.66685190263E+01  0.10911906381E+01  0.10425155456E+02  0.12423514380E+02  0.51100000000E-03 0.  1.
         12    1    3    3    0    0  0.66447213396E+00  0.40387807766E+01 -0.18507101162E+00  0.40972581878E+01  0.00000000000E+00 0. -1.
</event>
<event>
 7    1  0.4876728E-009  0.4778727E+02  0.7816164E-02  0.1312668E+00
        -11   -1    0    0    0    0  0.00000000000E+00  0.00000000000E+00  0.45593999997E+02  0.45594000000E+02  0.51100000000E-03 0. -1.
         11   -1    0    0    0    0 -0.00000000000E+00 -0.00000000000E+00 -0.45593999997E+02  0.45594000000E+02  0.51100000000E-03 0.  1.
    9900012    2    1    2    0    0  0.22687515446E+02  0.18578264183E+02 -0.31996067408E+02  0.47787267440E+02  0.19999983567E+02 0.  0.
         12    1    1    2    0    0 -0.22687515446E+02 -0.18578264183E+02  0.31996067408E+02  0.43400732560E+02  0.00000000000E+00 0. -1.
         11    1    3    3    0    0  0.13304459014E+02  0.52353882094E+01 -0.84950277692E+01  0.16630797227E+02  0.51100000000E-03 0. -1.
        -11    1    3    3    0    0  0.26153008514E+01  0.22089566648E+01 -0.15484442055E+02  0.15858349035E+02  0.51100000000E-03 0.  1.
        -12    1    3    3    0    0  0.67677555811E+01  0.11133919308E+02 -0.80165975834E+01  0.15298121178E+02  0.00000000000E+00 0.  1.
</event>
<event>
 7    1  0.4876728E-009  0.4778727E+02  0.7816164E-02  0.1312668E+00
        -11   -1    0    0    0    0  0.00000000000E+00  0.00000000000E+00  0.45593999997E+02  0.45594000000E+02  0.51100000000E-03 0.  1.
         11   -1    0    0    0    0 -0.00000000000E+00 -0.00000000000E+00 -0.45593999997E+02  0.45594000000E+02  0.51100000000E-03 0. -1.
    9900012    2    1    2    0    0 -0.39355852725E+02  0.18275601569E+02 -0.86187618392E+00  0.47787267438E+02  0.19999983555E+02 0.  0.
         12    1    1    2    0    0  0.39355852725E+02 -0.18275601569E+02  0.86187618392E+00  0.43400732562E+02  0.00000000000E+00 0. -1.
         11    1    3    3    0    0 -0.12683333663E+02  0.73369131459E+00 -0.51135372377E+01  0.13695018040E+02  0.51100000000E-03 0. -1.
        -11    1    3    3    0    0 -0.26606718004E+02  0.18790727522E+02  0.40172630986E+01  0.32819922103E+02  0.51100000000E-03 0.  1.
        -12    1    3    3    0    0 -0.65801056760E-01 -0.12488172669E+01  0.23439795520E+00  0.12723272954E+01  0.00000000000E+00 0.  1.
</event>
<event>
 7    1  0.4876728E-009  0.4778727E+02  0.7816164E-02  0.1312668E+00
        -11   -1    0    0    0    0  0.00000000000E+00  0.00000000000E+00  0.45593999997E+02  0.45594000000E+02  0.51100000000E-03 0. -1.
         11   -1    0    0    0    0 -0.00000000000E+00 -0.00000000000E+00 -0.45593999997E+02  0.45594000000E+02  0.51100000000E-03 0.  1.
    9900012    2    1    2    0    0 -0.28714057408E+02 -0.32233853425E+02 -0.44838580392E+01  0.47787269794E+02  0.19999994300E+02 0.  0.
         12    1    1    2    0    0  0.28714057408E+02  0.32233853425E+02  0.44838580392E+01  0.43400730206E+02  0.00000000000E+00 0. -1.
         11    1    3    3    0    0 -0.63939974938E+00  0.97090757807E+00 -0.34415252126E+01  0.36325734149E+01  0.51100000000E-03 0. -1.
        -11    1    3    3    0    0 -0.27123284178E+02 -0.31856880213E+02  0.57644568216E+00  0.41843346560E+02  0.51100000000E-03 0.  1.
        -12    1    3    3    0    0 -0.95137348116E+00 -0.13478807904E+01 -0.16187785087E+01  0.23113498191E+01  0.00000000000E+00 0.  1.
</event>
<event>
 7    1  0.4876728E-009  0.4778727E+02  0.7816164E-02  0.1312668E+00
        -11   -1    0    0    0    0  0.00000000000E+00  0.00000000000E+00  0.45593999997E+02  0.45594000000E+02  0.51100000000E-03 0.  1.
         11   -1    0    0    0    0 -0.00000000000E+00 -0.00000000000E+00 -0.45593999997E+02  0.45594000000E+02  0.51100000000E-03 0. -1.
    9900012    2    1    2    0    0  0.18264321526E+02  0.32724077958E+02  0.21890015256E+02  0.47787268590E+02  0.19999988811E+02 0.  0.
         12    1    1    2    0    0 -0.18264321526E+02 -0.32724077958E+02 -0.21890015256E+02  0.43400731410E+02  0.00000000000E+00 0. -1.
         11    1    3    3    0    0  0.10781850852E+02  0.44724878436E+01  0.54703707634E+01  0.12890943016E+02  0.51100000000E-03 0.  1.
        -11    1    3    3    0    0  0.87071792274E+01  0.16837783750E+02  0.12749381746E+02  0.22844532538E+02  0.51100000000E-03 0. -1.
         12    1    3    3    0    0 -0.12247085537E+01  0.11413806364E+02  0.36702627470E+01  0.12051793036E+02  0.00000000000E+00 0. -1.
</event>
<event>
 7    1  0.4876728E-009  0.4778727E+02  0.7816164E-02  0.1312668E+00
        -11   -1    0    0    0    0  0.00000000000E+00  0.00000000000E+00  0.45593999997E+02  0.45594000000E+02  0.51100000000E-03 0.  1.
         11   -1    0    0    0    0 -0.00000000000E+00 -0.00000000000E+00 -0.45593999997E+02  0.45594000000E+02  0.51100000000E-03 0. -1.
    9900012    2    1    2    0    0  0.25587180185E+02  0.13664408905E+01  0.35029302091E+02  0.47787274712E+02  0.20000016724E+02 0.  0.
         12    1    1    2    0    0 -0.25587180185E+02 -0.13664408905E+01 -0.35029302091E+02  0.43400725288E+02  0.00000000000E+00 0. -1.
         11    1    3    3    0    0 -0.83630506164E+00 -0.75278670076E+00  0.47465010651E+00  0.12212235494E+01  0.51100000000E-03 0. -1.
        -11    1    3    3    0    0  0.95557509079E+00 -0.40729025412E+01  0.16465324383E+01  0.44958567811E+01  0.51100000000E-03 0.  1.
        -12    1    3    3    0    0  0.25467910156E+02  0.61921301324E+01  0.32908119546E+02  0.42070194382E+02  0.00000000000E+00 0.  1.
</event>
<event>
 7    1  0.4876728E-009  0.4778727E+02  0.7816164E-02  0.1312668E+00
        -11   -1    0    0    0    0  0.00000000000E+00  0.00000000000E+00  0.45593999997E+02  0.45594000000E+02  0.51100000000E-03 0. -1.
         11   -1    0    0    0    0 -0.00000000000E+00 -0.00000000000E+00 -0.45593999997E+02  0.45594000000E+02  0.51100000000E-03 0.  1.
    9900012    2    1    2    0    0  0.17035299020E+02  0.51723287691E+01 -0.39581167533E+02  0.47787271655E+02  0.20000002782E+02 0.  0.
         12    1    1    2    0    0 -0.17035299020E+02 -0.51723287691E+01  0.39581167533E+02  0.43400728345E+02  0.00000000000E+00 0. -1.
         11    1    3    3    0    0  0.76267190458E+01 -0.75704070359E+01 -0.17114182737E+02  0.20208244781E+02  0.51100000000E-03 0. -1.
        -11    1    3    3    0    0  0.72782854560E+01  0.81183994980E+01 -0.15252298116E+02  0.18748718561E+02  0.51100000000E-03 0.  1.
         12    1    3    3    0    0  0.21302945186E+01  0.46243363070E+01 -0.72146866800E+01  0.88303083133E+01  0.00000000000E+00 0. -1.
</event>
<event>
 7    1  0.4876728E-009  0.4778727E+02  0.7816164E-02  0.1312668E+00
        -11   -1    0    0    0    0  0.00000000000E+00  0.00000000000E+00  0.45593999997E+02  0.45594000000E+02  0.51100000000E-03 0.  1.
         11   -1    0    0    0    0 -0.00000000000E+00 -0.00000000000E+00 -0.45593999997E+02  0.45594000000E+02  0.51100000000E-03 0. -1.
    9900012    2    1    2    0    0  0.13981620452E+02  0.10065193318E+02  0.39835026804E+02  0.47787272040E+02  0.20000004539E+02 0.  0.
         12    1    1    2    0    0 -0.13981620452E+02 -0.10065193318E+02 -0.39835026804E+02  0.43400727960E+02  0.00000000000E+00 0. -1.
         11    1    3    3    0    0  0.58577441393E+01  0.14916145938E+02  0.20790890629E+02  0.26250061132E+02  0.51100000000E-03 0. -1.
        -11    1    3    3    0    0  0.43623047749E+01 -0.14911480055E+01  0.12149450173E+02  0.12994705272E+02  0.51100000000E-03 0.  1.
         12    1    3    3    0    0  0.37615715378E+01 -0.33598046142E+01  0.68946860016E+01  0.85425056359E+01  0.00000000000E+00 0. -1.
</event>
<event>
 7    1  0.4876728E-009  0.4778727E+02  0.7816164E-02  0.1312668E+00
        -11   -1    0    0    0    0  0.00000000000E+00  0.00000000000E+00  0.45593999997E+02  0.45594000000E+02  0.51100000000E-03 0.  1.
         11   -1    0    0    0    0 -0.00000000000E+00 -0.00000000000E+00 -0.45593999997E+02  0.45594000000E+02  0.51100000000E-03 0. -1.
    9900012    2    1    2    0    0 -0.79785192787E+01  0.22053785695E+02  0.36518448027E+02  0.47787270978E+02  0.19999999696E+02 0.  0.
         12    1    1    2    0    0  0.79785192787E+01 -0.22053785695E+02 -0.36518448027E+02  0.43400729022E+02  0.00000000000E+00 0. -1.
         11    1    3    3    0    0  0.34014759192E+00  0.29189761278E+01 -0.11501227391E+01  0.31557732167E+01  0.51100000000E-03 0. -1.
        -11    1    3    3    0    0 -0.10840232232E+02  0.11118308912E+02  0.24932656254E+02  0.29372857812E+02  0.51100000000E-03 0.  1.
         12    1    3    3    0    0  0.25215653618E+01  0.80165006550E+01  0.12735914512E+02  0.15258639949E+02  0.00000000000E+00 0. -1.
</event>
<event>
 7    1  0.4876728E-009  0.4778727E+02  0.7816164E-02  0.1312668E+00
        -11   -1    0    0    0    0  0.00000000000E+00  0.00000000000E+00  0.45593999997E+02  0.45594000000E+02  0.51100000000E-03 0.  1.
         11   -1    0    0    0    0 -0.00000000000E+00 -0.00000000000E+00 -0.45593999997E+02  0.45594000000E+02  0.51100000000E-03 0. -1.
    9900012    2    1    2    0    0 -0.63065982473E+01  0.42939642672E+02 -0.19232963211E+00  0.47787273221E+02  0.20000009925E+02 0.  0.
         12    1    1    2    0    0  0.63065982473E+01 -0.42939642672E+02  0.19232963211E+00  0.43400726779E+02  0.00000000000E+00 0. -1.
         11    1    3    3    0    0  0.14937900129E+01  0.23943225345E+01 -0.66392940209E+00  0.28991363393E+01  0.51100000000E-03 0. -1.
        -11    1    3    3    0    0 -0.41261682982E+01  0.23788854664E+02 -0.84149512751E+01  0.25568462532E+02  0.51100000000E-03 0.  1.
        -12    1    3    3    0    0 -0.36742199620E+01  0.16756465473E+02  0.88865510451E+01  0.19319674349E+02  0.00000000000E+00 0.  1.
</event>
<event>
 7    1  0.4876728E-009  0.4778727E+02  0.7816164E-02  0.1312668E+00
        -11   -1    0    0    0    0  0.00000000000E+00  0.00000000000E+00  0.45593999997E+02  0.45594000000E+02  0.51100000000E-03 0.  1.
         11   -1    0    0    0    0 -0.00000000000E+00 -0.00000000000E+00 -0.45593999997E+02  0.45594000000E+02  0.51100000000E-03 0. -1.
    9900012    2    1    2    0    0  0.34005197265E+01  0.67003731175E+01  0.42745348489E+02  0.47787270147E+02  0.19999995909E+02 0.  0.
         12    1    1    2    0    0 -0.34005197265E+01 -0.67003731175E+01 -0.42745348489E+02  0.43400729853E+02  0.00000000000E+00 0. -1.
         11    1    3    3    0    0 -0.87615687549E+00 -0.26260838815E+00 -0.11565585321E+01  0.14745310900E+01  0.51100000000E-03 0.  1.
        -11    1    3    3    0    0  0.12554681105E+01  0.37575063019E+00  0.34087396007E+02  0.34112577673E+02  0.51100000000E-03 0. -1.
         12    1    3    3    0    0  0.30212084915E+01  0.65872308754E+01  0.98145110140E+01  0.12200161384E+02  0.00000000000E+00 0. -1.
</event>
<event>
 7    1  0.4876728E-009  0.4778726E+02  0.7816164E-02  0.1312668E+00
        -11   -1    0    0    0    0  0.00000000000E+00  0.00000000000E+00  0.45593999997E+02  0.45594000000E+02  0.51100000000E-03 0.  1.
         11   -1    0    0    0    0 -0.00000000000E+00 -0.00000000000E+00 -0.45593999997E+02  0.45594000000E+02  0.51100000000E-03 0. -1.
    9900012    2    1    2    0    0 -0.22315959516E+02 -0.22300155727E+02  0.29804779186E+02  0.47787264327E+02  0.19999969375E+02 0.  0.
         12    1    1    2    0    0  0.22315959516E+02  0.22300155727E+02 -0.29804779186E+02  0.43400735673E+02  0.00000000000E+00 0. -1.
         11    1    3    3    0    0  0.43663502282E+00 -0.99533588382E+01  0.96481541436E+01  0.13868917800E+02  0.51100000000E-03 0. -1.
        -11    1    3    3    0    0 -0.16719535036E+01 -0.24767814348E+01  0.59240493070E+01  0.66350761297E+01  0.51100000000E-03 0.  1.
         12    1    3    3    0    0 -0.21080641035E+02 -0.98700154543E+01  0.14232575736E+02  0.27283270398E+02  0.00000000000E+00 0. -1.
</event>
<event>
 7    1  0.4876728E-009  0.4778727E+02  0.7816164E-02  0.1312668E+00
        -11   -1    0    0    0    0  0.00000000000E+00  0.00000000000E+00  0.45593999997E+02  0.45594000000E+02  0.51100000000E-03 0. -1.
         11   -1    0    0    0    0 -0.00000000000E+00 -0.00000000000E+00 -0.45593999997E+02  0.45594000000E+02  0.51100000000E-03 0.  1.
    9900012    2    1    2    0    0  0.28833627968E+02 -0.20983778186E+02 -0.24737149280E+02  0.47787267250E+02  0.19999982698E+02 0.  0.
         12    1    1    2    0    0 -0.28833627968E+02  0.20983778186E+02  0.24737149280E+02  0.43400732750E+02  0.00000000000E+00 0. -1.
         11    1    3    3    0    0  0.55598431734E+00  0.10717518025E+01 -0.69061245154E+01  0.70108720264E+01  0.51100000000E-03 0. -1.
        -11    1    3    3    0    0  0.23284335728E+02 -0.18137904501E+02 -0.17725633916E+02  0.34428795622E+02  0.51100000000E-03 0.  1.
         12    1    3    3    0    0  0.49933079223E+01 -0.39176254873E+01 -0.10539084901E+00  0.63475996012E+01  0.00000000000E+00 0. -1.
</event>
<event>
 7    1  0.4876728E-009  0.4778728E+02  0.7816164E-02  0.1312668E+00
        -11   -1    0    0    0    0  0.00000000000E+00  0.00000000000E+00  0.45593999997E+02  0.45594000000E+02  0.51100000000E-03 0.  1.
         11   -1    0    0    0    0 -0.00000000000E+00 -0.00000000000E+00 -0.45593999997E+02  0.45594000000E+02  0.51100000000E-03 0. -1.
    9900012    2    1    2    0    0  0.15004886858E+01  0.17257178038E+02  0.39793978359E+02  0.47787281415E+02  0.20000047282E+02 0.  0.
         12    1    1    2    0    0 -0.15004886858E+01 -0.17257178038E+02 -0.39793978359E+02  0.43400718585E+02  0.00000000000E+00 0. -1.
         11    1    3    3    0    0 -0.13859767963E+01  0.64901007468E+01  0.39684292761E+01  0.77324491957E+01  0.51100000000E-03 0. -1.
        -11    1    3    3    0    0 -0.45956647445E+01  0.47930415893E+01  0.23656253724E+02  0.24570545835E+02  0.51100000000E-03 0.  1.
        -12    1    3    3    0    0  0.74821302266E+01  0.59740357016E+01  0.12169295359E+02  0.15484286384E+02  0.00000000000E+00 0.  1.
</event>
<event>
 7    1  0.4876728E-009  0.4778726E+02  0.7816164E-02  0.1312668E+00
        -11   -1    0    0    0    0  0.00000000000E+00  0.00000000000E+00  0.45593999997E+02  0.45594000000E+02  0.51100000000E-03 0. -1.
         11   -1    0    0    0    0 -0.00000000000E+00 -0.00000000000E+00 -0.45593999997E+02  0.45594000000E+02  0.51100000000E-03 0.  1.
    9900012    2    1    2    0    0  0.20566008424E+02 -0.37680131080E+02 -0.63930290693E+01  0.47787264967E+02  0.19999972292E+02 0.  0.
         12    1    1    2    0    0 -0.20566008424E+02  0.37680131080E+02  0.63930290693E+01  0.43400735033E+02  0.00000000000E+00 0. -1.
         11    1    3    3    0    0 -0.12646345544E+01  0.10383397464E+01 -0.15192809665E+01  0.22328602512E+01  0.51100000000E-03 0. -1.
        -11    1    3    3    0    0  0.10119662036E+02 -0.23809238567E+02 -0.60176025362E+01  0.26561230043E+02  0.51100000000E-03 0.  1.
        -12    1    3    3    0    0  0.11710980942E+02 -0.14909232260E+02  0.11438544334E+01  0.18993174673E+02  0.00000000000E+00 0.  1.
</event>
<event>
 7    1  0.4876728E-009  0.4778727E+02  0.7816164E-02  0.1312668E+00
        -11   -1    0    0    0    0  0.00000000000E+00  0.00000000000E+00  0.45593999997E+02  0.45594000000E+02  0.51100000000E-03 0.  1.
         11   -1    0    0    0    0 -0.00000000000E+00 -0.00000000000E+00 -0.45593999997E+02  0.45594000000E+02  0.51100000000E-03 0. -1.
    9900012    2    1    2    0    0 -0.89084630869E+01  0.25169404970E+02  0.34216421725E+02  0.47787272163E+02  0.20000005099E+02 0.  0.
         12    1    1    2    0    0  0.89084630869E+01 -0.25169404970E+02 -0.34216421725E+02  0.43400727837E+02  0.00000000000E+00 0. -1.
         11    1    3    3    0    0  0.41977704839E+01  0.59920017612E+01  0.49200646459E+01  0.88165978996E+01  0.51100000000E-03 0. -1.
        -11    1    3    3    0    0 -0.11516511454E+02  0.11797526955E+02  0.25878118511E+02  0.30683687788E+02  0.51100000000E-03 0.  1.
        -12    1    3    3    0    0 -0.15897221168E+01  0.73798762540E+01  0.34182385677E+01  0.82869864751E+01  0.00000000000E+00 0.  1.
</event>
<event>
 7    1  0.4876728E-009  0.4778727E+02  0.7816164E-02  0.1312668E+00
        -11   -1    0    0    0    0  0.00000000000E+00  0.00000000000E+00  0.45593999997E+02  0.45594000000E+02  0.51100000000E-03 0. -1.
         11   -1    0    0    0    0 -0.00000000000E+00 -0.00000000000E+00 -0.45593999997E+02  0.45594000000E+02  0.51100000000E-03 0.  1.
    9900012    2    1    2    0    0  0.34961434434E+02 -0.12937779081E+02 -0.22224656047E+02  0.47787270033E+02  0.19999995390E+02 0.  0.
         12    1    1    2    0    0 -0.34961434434E+02  0.12937779081E+02  0.22224656047E+02  0.43400729967E+02  0.00000000000E+00 0. -1.
         11    1    3    3    0    0  0.19362330257E+02 -0.77060503227E+01 -0.55285610738E+01  0.21560334700E+02  0.51100000000E-03 0.  1.
        -11    1    3    3    0    0  0.61413244862E+01 -0.41149896144E+01 -0.14761253143E+02  0.16508894590E+02  0.51100000000E-03 0. -1.
         12    1    3    3    0    0  0.94577796906E+01 -0.11167391442E+01 -0.19348418306E+01  0.97180407440E+01  0.00000000000E+00 0. -1.
</event>
<event>
 7    1  0.4876728E-009  0.4778727E+02  0.7816164E-02  0.1312668E+00
        -11   -1    0    0    0    0  0.00000000000E+00  0.00000000000E+00  0.45593999997E+02  0.45594000000E+02  0.51100000000E-03 0.  1.
         11   -1    0    0    0    0 -0.00000000000E+00 -0.00000000000E+00 -0.45593999997E+02  0.45594000000E+02  0.51100000000E-03 0. -1.
    9900012    2    1    2    0    0 -0.39325843651E+02  0.18356306064E+02  0.38431810194E+00  0.47787266693E+02  0.19999980159E+02 0.  0.
         12    1    1    2    0    0  0.39325843651E+02 -0.18356306064E+02 -0.38431810194E+00  0.43400733307E+02  0.00000000000E+00 0. -1.
         11    1    3    3    0    0 -0.12328447742E+02  0.10394507504E+02  0.21588440687E+01  0.16269511915E+02  0.51100000000E-03 0. -1.
        -11    1    3    3    0    0 -0.16013314859E+02 -0.24316195472E+01 -0.24479351704E+01  0.16380824560E+02  0.51100000000E-03 0.  1.
        -12    1    3    3    0    0 -0.10984081050E+02  0.10393418107E+02  0.67340920364E+00  0.15136930218E+02  0.00000000000E+00 0.  1.
</event>
<event>
 7    1  0.4876728E-009  0.4778728E+02  0.7816164E-02  0.1312668E+00
        -11   -1    0    0    0    0  0.00000000000E+00  0.00000000000E+00  0.45593999997E+02  0.45594000000E+02  0.51100000000E-03 0. -1.
         11   -1    0    0    0    0 -0.00000000000E+00 -0.00000000000E+00 -0.45593999997E+02  0.45594000000E+02  0.51100000000E-03 0.  1.
    9900012    2    1    2    0    0 -0.31142632471E+02  0.30225800764E+02  0.39986681180E+00  0.47787280162E+02  0.20000041569E+02 0.  0.
         12    1    1    2    0    0  0.31142632471E+02 -0.30225800764E+02 -0.39986681180E+00  0.43400719838E+02  0.00000000000E+00 0. -1.
         11    1    3    3    0    0 -0.11505252426E+02  0.12189158542E+02  0.26121184155E+01  0.16963772641E+02  0.51100000000E-03 0. -1.
        -11    1    3    3    0    0 -0.16611295216E+02  0.19793666680E+02  0.12902615550E+01  0.25872555817E+02  0.51100000000E-03 0.  1.
        -12    1    3    3    0    0 -0.30260848294E+01 -0.17570244580E+01 -0.35025131588E+01  0.49509517033E+01  0.00000000000E+00 0.  1.
</event>
<event>
 7    1  0.4876728E-009  0.4778727E+02  0.7816164E-02  0.1312668E+00
        -11   -1    0    0    0    0  0.00000000000E+00  0.00000000000E+00  0.45593999997E+02  0.45594000000E+02  0.51100000000E-03 0.  1.
         11   -1    0    0    0    0 -0.00000000000E+00 -0.00000000000E+00 -0.45593999997E+02  0.45594000000E+02  0.51100000000E-03 0. -1.
    9900012    2    1    2    0    0 -0.92119137766E+01 -0.40806054861E+02  0.11559844834E+02  0.47787268655E+02  0.19999989103E+02 0.  0.
         12    1    1    2    0    0  0.92119137766E+01  0.40806054861E+02 -0.11559844834E+02  0.43400731345E+02  0.00000000000E+00 0. -1.
         11    1    3    3    0    0 -0.65661391113E+01 -0.12409180101E+02 -0.21739832420E+01  0.14206622998E+02  0.51100000000E-03 0. -1.
        -11    1    3    3    0    0  0.25366217493E+01 -0.23009198327E+02  0.10892874840E+02  0.25583439568E+02  0.51100000000E-03 0.  1.
        -12    1    3    3    0    0 -0.51823964146E+01 -0.53876764324E+01  0.28409532362E+01  0.79972060889E+01  0.00000000000E+00 0.  1.
</event>
<event>
 7    1  0.4876728E-009  0.4778725E+02  0.7816164E-02  0.1312668E+00
        -11   -1    0    0    0    0  0.00000000000E+00  0.00000000000E+00  0.45593999997E+02  0.45594000000E+02  0.51100000000E-03 0.  1.
         11   -1    0    0    0    0 -0.00000000000E+00 -0.00000000000E+00 -0.45593999997E+02  0.45594000000E+02  0.51100000000E-03 0. -1.
    9900012    2    1    2    0    0  0.29607808749E+02 -0.30841706454E+02  0.74693702046E+01  0.47787254763E+02  0.19999925764E+02 0.  0.
         12    1    1    2    0    0 -0.29607808749E+02  0.30841706454E+02 -0.74693702046E+01  0.43400745237E+02  0.00000000000E+00 0. -1.
         11    1    3    3    0    0  0.27017476460E+02 -0.15607038129E+02  0.48549153610E+01  0.31576793328E+02  0.51100000000E-03 0. -1.
        -11    1    3    3    0    0  0.32310483627E+01 -0.13832536404E+02  0.32009594285E+01  0.14561074082E+02  0.51100000000E-03 0.  1.
         12    1    3    3    0    0 -0.64071607419E+00 -0.14021319210E+01 -0.58650458490E+00  0.16493873529E+01  0.00000000000E+00 0. -1.
</event>
<event>
 7    1  0.4876728E-009  0.4778727E+02  0.7816164E-02  0.1312668E+00
        -11   -1    0    0    0    0  0.00000000000E+00  0.00000000000E+00  0.45593999997E+02  0.45594000000E+02  0.51100000000E-03 0. -1.
         11   -1    0    0    0    0 -0.00000000000E+00 -0.00000000000E+00 -0.45593999997E+02  0.45594000000E+02  0.51100000000E-03 0.  1.
    9900012    2    1    2    0    0  0.41888303481E+02 -0.60115429654E+00 -0.11341598488E+02  0.47787271766E+02  0.20000003288E+02 0.  0.
         12    1    1    2    0    0 -0.41888303481E+02  0.60115429654E+00  0.11341598488E+02  0.43400728234E+02  0.00000000000E+00 0. -1.
         11    1    3    3    0    0  0.22345921968E+01 -0.28213796741E+01 -0.51984927462E+01  0.63228089205E+01  0.51100000000E-03 0. -1.
        -11    1    3    3    0    0  0.36719789900E+02  0.38958009435E+01 -0.33440936763E+01  0.37076990143E+02  0.51100000000E-03 0.  1.
        -12    1    3    3    0    0  0.29339213841E+01 -0.16755755659E+01 -0.27990120656E+01  0.43874727018E+01  0.00000000000E+00 0.  1.
</event>
<event>
 7    1  0.4876728E-009  0.4778729E+02  0.7816164E-02  0.1312668E+00
        -11   -1    0    0    0    0  0.00000000000E+00  0.00000000000E+00  0.45593999997E+02  0.45594000000E+02  0.51100000000E-03 0. -1.
         11   -1    0    0    0    0 -0.00000000000E+00 -0.00000000000E+00 -0.45593999997E+02  0.45594000000E+02  0.51100000000E-03 0.  1.
    9900012    2    1    2    0    0  0.18639085321E+02  0.38270148630E+02 -0.84617837355E+01  0.47787290770E+02  0.20000089935E+02 0.  0.
         12    1    1    2    0    0 -0.18639085321E+02 -0.38270148630E+02  0.84617837355E+01  0.43400709230E+02  0.00000000000E+00 0. -1.
         11    1    3    3    0    0  0.26884172845E+00 -0.68965966712E+00 -0.72133258086E+00  0.10335508138E+01  0.51100000000E-03 0. -1.
        -11    1    3    3    0    0  0.63938727282E+01  0.52422265072E+01  0.38791802479E+01  0.91329396622E+01  0.51100000000E-03 0.  1.
        -12    1    3    3    0    0  0.11976370864E+02  0.33717581789E+02 -0.11619631403E+02  0.37620800294E+02  0.00000000000E+00 0.  1.
</event>
<event>
 7    1  0.4876728E-009  0.4778726E+02  0.7816164E-02  0.1312668E+00
        -11   -1    0    0    0    0  0.00000000000E+00  0.00000000000E+00  0.45593999997E+02  0.45594000000E+02  0.51100000000E-03 0.  1.
         11   -1    0    0    0    0 -0.00000000000E+00 -0.00000000000E+00 -0.45593999997E+02  0.45594000000E+02  0.51100000000E-03 0. -1.
    9900012    2    1    2    0    0  0.19261255259E+02  0.31381435065E+01  0.38765712855E+02  0.47787258164E+02  0.19999941272E+02 0.  0.
         12    1    1    2    0    0 -0.19261255259E+02 -0.31381435065E+01 -0.38765712855E+02  0.43400741836E+02  0.00000000000E+00 0. -1.
         11    1    3    3    0    0  0.10722292328E+02 -0.75600114754E+01  0.24017819405E+02  0.27367443715E+02  0.51100000000E-03 0. -1.
        -11    1    3    3    0    0  0.31132256827E+01  0.65463802559E+01  0.83812695903E+01  0.11081197986E+02  0.51100000000E-03 0.  1.
        -12    1    3    3    0    0  0.54257372482E+01  0.41517747260E+01  0.63666238596E+01  0.93386164624E+01  0.00000000000E+00 0.  1.
</event>
<event>
 7    1  0.4876728E-009  0.4778727E+02  0.7816164E-02  0.1312668E+00
        -11   -1    0    0    0    0  0.00000000000E+00  0.00000000000E+00  0.45593999997E+02  0.45594000000E+02  0.51100000000E-03 0.  1.
         11   -1    0    0    0    0 -0.00000000000E+00 -0.00000000000E+00 -0.45593999997E+02  0.45594000000E+02  0.51100000000E-03 0. -1.
    9900012    2    1    2    0    0 -0.39505717909E+02 -0.13131884527E+02  0.12266837860E+02  0.47787269017E+02  0.19999990757E+02 0.  0.
         12    1    1    2    0    0  0.39505717909E+02  0.13131884527E+02 -0.12266837860E+02  0.43400730983E+02  0.00000000000E+00 0. -1.
         11    1    3    3    0    0 -0.18997035632E+02 -0.92332716951E+01  0.12733041732E+02  0.24663151076E+02  0.51100000000E-03 0. -1.
        -11    1    3    3    0    0 -0.13756899528E+02 -0.64067731631E+01  0.24151082179E+01  0.15366579807E+02  0.51100000000E-03 0.  1.
         12    1    3    3    0    0 -0.67517827493E+01  0.25081603310E+01 -0.28813120905E+01  0.77575381341E+01  0.00000000000E+00 0. -1.
</event>
<event>
 7    1  0.4876728E-009  0.4778727E+02  0.7816164E-02  0.1312668E+00
        -11   -1    0    0    0    0  0.00000000000E+00  0.00000000000E+00  0.45593999997E+02  0.45594000000E+02  0.51100000000E-03 0.  1.
         11   -1    0    0    0    0 -0.00000000000E+00 -0.00000000000E+00 -0.45593999997E+02  0.45594000000E+02  0.51100000000E-03 0. -1.
    9900012    2    1    2    0    0  0.33294485032E+02  0.17454952681E+02  0.21689290568E+02  0.47787269223E+02  0.19999991694E+02 0.  0.
         12    1    1    2    0    0 -0.33294485032E+02 -0.17454952681E+02 -0.21689290568E+02  0.43400730777E+02  0.00000000000E+00 0. -1.
         11    1    3    3    0    0 -0.16173518235E+01  0.16244206342E+01  0.31411077206E+01  0.38885893704E+01  0.51100000000E-03 0. -1.
        -11    1    3    3    0    0  0.28247658954E+02  0.13408426231E+02  0.10078220879E+02  0.32852498637E+02  0.51100000000E-03 0.  1.
        -12    1    3    3    0    0  0.66641779018E+01  0.24221058159E+01  0.84699619683E+01  0.11046181215E+02  0.00000000000E+00 0.  1.
</event>
<event>
 7    1  0.4876728E-009  0.4778729E+02  0.7816164E-02  0.1312668E+00
        -11   -1    0    0    0    0  0.00000000000E+00  0.00000000000E+00  0.45593999997E+02  0.45594000000E+02  0.51100000000E-03 0.  1.
         11   -1    0    0    0    0 -0.00000000000E+00 -0.00000000000E+00 -0.45593999997E+02  0.45594000000E+02  0.51100000000E-03 0. -1.
    9900012    2    1    2    0    0 -0.30047500519E+02 -0.22127644897E+02  0.22161603795E+02  0.47787289880E+02  0.20000085879E+02 0.  0.
         12    1    1    2    0    0  0.30047500519E+02  0.22127644897E+02 -0.22161603795E+02  0.43400710120E+02  0.00000000000E+00 0. -1.
         11    1    3    3    0    0 -0.13314952870E+02 -0.38376220458E+01  0.81596516590E+00  0.13880962225E+02  0.51100000000E-03 0.  1.
        -11    1    3    3    0    0 -0.82138168451E+01 -0.14010246159E+02  0.16723414032E+02  0.23311507068E+02  0.51100000000E-03 0. -1.
        -12    1    3    3    0    0 -0.85187308045E+01 -0.42797766925E+01  0.46222245965E+01  0.10594820587E+02  0.00000000000E+00 0.  1.
</event>
<event>
 7    1  0.4876728E-009  0.4778727E+02  0.7816164E-02  0.1312668E+00
        -11   -1    0    0    0    0  0.00000000000E+00  0.00000000000E+00  0.45593999997E+02  0.45594000000E+02  0.51100000000E-03 0.  1.
         11   -1    0    0    0    0 -0.00000000000E+00 -0.00000000000E+00 -0.45593999997E+02  0.45594000000E+02  0.51100000000E-03 0. -1.
    9900012    2    1    2    0    0 -0.31195234539E+02 -0.29919494063E+02  0.39120797520E+01  0.47787272461E+02  0.20000006457E+02 0.  0.
         12    1    1    2    0    0  0.31195234539E+02  0.29919494063E+02 -0.39120797520E+01  0.43400727539E+02  0.00000000000E+00 0. -1.
         11    1    3    3    0    0 -0.14883937155E+02 -0.82851600480E+01  0.87634392108E+01  0.19156547949E+02  0.51100000000E-03 0. -1.
        -11    1    3    3    0    0 -0.80067761265E+01 -0.16791438888E+02 -0.32818351485E+01  0.18889979515E+02  0.51100000000E-03 0.  1.
         12    1    3    3    0    0 -0.83045212582E+01 -0.48428951272E+01 -0.15695243102E+01  0.97407449973E+01  0.00000000000E+00 0. -1.
</event>
<event>
 7    1  0.4876728E-009  0.4778728E+02  0.7816164E-02  0.1312668E+00
        -11   -1    0    0    0    0  0.00000000000E+00  0.00000000000E+00  0.45593999997E+02  0.45594000000E+02  0.51100000000E-03 0.  1.
         11   -1    0    0    0    0 -0.00000000000E+00 -0.00000000000E+00 -0.45593999997E+02  0.45594000000E+02  0.51100000000E-03 0. -1.
    9900012    2    1    2    0    0  0.12847797901E+02  0.41191283213E+02  0.46728086848E+01  0.47787275759E+02  0.20000021496E+02 0.  0.
         12    1    1    2    0    0 -0.12847797901E+02 -0.41191283213E+02 -0.46728086848E+01  0.43400724241E+02  0.00000000000E+00 0. -1.
         11    1    3    3    0    0  0.33825844569E+01  0.57739991635E+01 -0.43473688377E+01  0.79800100264E+01  0.51100000000E-03 0. -1.
        -11    1    3    3    0    0  0.10144488234E+02  0.36014048542E+02  0.97274128048E+01  0.38659344201E+02  0.51100000000E-03 0.  1.
        -12    1    3    3    0    0 -0.67927478929E+00 -0.59676449270E+00 -0.70723528229E+00  0.11479215320E+01  0.00000000000E+00 0.  1.
</event>
<event>
 7    1  0.4876728E-009  0.4778727E+02  0.7816164E-02  0.1312668E+00
        -11   -1    0    0    0    0  0.00000000000E+00  0.00000000000E+00  0.45593999997E+02  0.45594000000E+02  0.51100000000E-03 0.  1.
         11   -1    0    0    0    0 -0.00000000000E+00 -0.00000000000E+00 -0.45593999997E+02  0.45594000000E+02  0.51100000000E-03 0. -1.
    9900012    2    1    2    0    0  0.11592066033E+02  0.33253780535E+02  0.25365994132E+02  0.47787267597E+02  0.19999984283E+02 0.  0.
         12    1    1    2    0    0 -0.11592066033E+02 -0.33253780535E+02 -0.25365994132E+02  0.43400732403E+02  0.00000000000E+00 0. -1.
         11    1    3    3    0    0  0.66429625328E+01  0.76918268481E+01  0.14430406744E+02  0.17650206529E+02  0.51100000000E-03 0.  1.
        -11    1    3    3    0    0  0.60542759949E+00 -0.97997965812E+00  0.76718122303E+00  0.13840050573E+01  0.51100000000E-03 0. -1.
         12    1    3    3    0    0  0.43436759010E+01  0.26541933345E+02  0.10168406165E+02  0.28753056011E+02  0.00000000000E+00 0. -1.
</event>
<event>
 7    1  0.4876728E-009  0.4778727E+02  0.7816164E-02  0.1312668E+00
        -11   -1    0    0    0    0  0.00000000000E+00  0.00000000000E+00  0.45593999997E+02  0.45594000000E+02  0.51100000000E-03 0.  1.
         11   -1    0    0    0    0 -0.00000000000E+00 -0.00000000000E+00 -0.45593999997E+02  0.45594000000E+02  0.51100000000E-03 0. -1.
    9900012    2    1    2    0    0  0.40128903624E+02  0.14083135196E+02 -0.86579122339E+01  0.47787273655E+02  0.20000011904E+02 0.  0.
         12    1    1    2    0    0 -0.40128903624E+02 -0.14083135196E+02  0.86579122339E+01  0.43400726345E+02  0.00000000000E+00 0. -1.
         11    1    3    3    0    0  0.23905150376E+02  0.10945201960E+02  0.23734389064E+01  0.26398614982E+02  0.51100000000E-03 0. -1.
        -11    1    3    3    0    0  0.69100450483E+01  0.29582535819E+01 -0.81149999516E+00  0.75603253454E+01  0.51100000000E-03 0.  1.
         12    1    3    3    0    0  0.93137081991E+01  0.17967965394E+00 -0.10219851145E+02  0.13828333328E+02  0.00000000000E+00 0. -1.
</event>
<event>
 7    1  0.4876728E-009  0.4778727E+02  0.7816164E-02  0.1312668E+00
        -11   -1    0    0    0    0  0.00000000000E+00  0.00000000000E+00  0.45593999997E+02  0.45594000000E+02  0.51100000000E-03 0.  1.
         11   -1    0    0    0    0 -0.00000000000E+00 -0.00000000000E+00 -0.45593999997E+02  0.45594000000E+02  0.51100000000E-03 0. -1.
    9900012    2    1    2    0    0 -0.86294127624E+01  0.90481484266E+00  0.42524553099E+02  0.47787273384E+02  0.20000010666E+02 0.  0.
         12    1    1    2    0    0  0.86294127624E+01 -0.90481484266E+00 -0.42524553099E+02  0.43400726616E+02  0.00000000000E+00 0. -1.
         11    1    3    3    0    0  0.27922824139E+00 -0.31115430338E+00 -0.82256000905E+00  0.92270831844E+00  0.51100000000E-03 0. -1.
        -11    1    3    3    0    0  0.37080474824E+01 -0.10173633272E+01  0.18643224823E+02  0.19035610743E+02  0.51100000000E-03 0.  1.
        -12    1    3    3    0    0 -0.12616688486E+02  0.22333324733E+01  0.24703888285E+02  0.27828954323E+02  0.00000000000E+00 0.  1.
</event>
<event>
 7    1  0.4876728E-009  0.4778726E+02  0.7816164E-02  0.1312668E+00
        -11   -1    0    0    0    0  0.00000000000E+00  0.00000000000E+00  0.45593999997E+02  0.45594000000E+02  0.51100000000E-03 0.  1.
         11   -1    0    0    0    0 -0.00000000000E+00 -0.00000000000E+00 -0.45593999997E+02  0.45594000000E+02  0.51100000000E-03 0. -1.
    9900012    2    1    2    0    0  0.19653663939E+02 -0.99509179712E+00  0.38682905001E+02  0.47787264370E+02  0.19999969570E+02 0.  0.
         12    1    1    2    0    0 -0.19653663939E+02  0.99509179712E+00 -0.38682905001E+02  0.43400735630E+02  0.00000000000E+00 0. -1.
         11    1    3    3    0    0  0.49233317150E+00  0.26869117475E+01 -0.83255167139E+00  0.28557011814E+01  0.51100000000E-03 0. -1.
        -11    1    3    3    0    0 -0.16210230247E+00  0.22662084036E+00  0.62984102426E+01  0.63045702476E+01  0.51100000000E-03 0.  1.
         12    1    3    3    0    0  0.19323433070E+02 -0.39086243850E+01  0.33217046430E+02  0.38626992941E+02  0.00000000000E+00 0. -1.
</event>
<event>
 7    1  0.4876728E-009  0.4778727E+02  0.7816164E-02  0.1312668E+00
        -11   -1    0    0    0    0  0.00000000000E+00  0.00000000000E+00  0.45593999997E+02  0.45594000000E+02  0.51100000000E-03 0.  1.
         11   -1    0    0    0    0 -0.00000000000E+00 -0.00000000000E+00 -0.45593999997E+02  0.45594000000E+02  0.51100000000E-03 0. -1.
    9900012    2    1    2    0    0  0.20768544489E+02 -0.17040543728E+02  0.34086809997E+02  0.47787272051E+02  0.20000004588E+02 0.  0.
         12    1    1    2    0    0 -0.20768544489E+02  0.17040543728E+02 -0.34086809997E+02  0.43400727949E+02  0.00000000000E+00 0. -1.
         11    1    3    3    0    0  0.24999815536E+00 -0.33936194410E+01  0.37038789482E+01  0.50296989485E+01  0.51100000000E-03 0. -1.
        -11    1    3    3    0    0  0.40400115880E+01 -0.64524158478E+01  0.21286643250E+02  0.22607002124E+02  0.51100000000E-03 0.  1.
        -12    1    3    3    0    0  0.16478534746E+02 -0.71945084393E+01  0.90962877990E+01  0.20150570979E+02  0.00000000000E+00 0.  1.
</event>
<event>
 7    1  0.4876728E-009  0.4778727E+02  0.7816164E-02  0.1312668E+00
        -11   -1    0    0    0    0  0.00000000000E+00  0.00000000000E+00  0.45593999997E+02  0.45594000000E+02  0.51100000000E-03 0. -1.
         11   -1    0    0    0    0 -0.00000000000E+00 -0.00000000000E+00 -0.45593999997E+02  0.45594000000E+02  0.51100000000E-03 0.  1.
    9900012    2    1    2    0    0  0.17370098182E+01  0.32633325547E+01 -0.43242997465E+02  0.47787269911E+02  0.19999994834E+02 0.  0.
         12    1    1    2    0    0 -0.17370098182E+01 -0.32633325547E+01  0.43242997465E+02  0.43400730089E+02  0.00000000000E+00 0. -1.
         11    1    3    3    0    0 -0.33043592552E+01  0.14237193803E+01 -0.38515199761E+01  0.52706710530E+01  0.51100000000E-03 0. -1.
        -11    1    3    3    0    0  0.20226965976E+01  0.80149847980E+00  0.70972771857E+00  0.22885399351E+01  0.51100000000E-03 0.  1.
        -12    1    3    3    0    0  0.30186724758E+01  0.10381146946E+01 -0.40101205208E+02  0.40228058923E+02  0.00000000000E+00 0.  1.
</event>
<event>
 7    1  0.4876728E-009  0.4778726E+02  0.7816164E-02  0.1312668E+00
        -11   -1    0    0    0    0  0.00000000000E+00  0.00000000000E+00  0.45593999997E+02  0.45594000000E+02  0.51100000000E-03 0.  1.
         11   -1    0    0    0    0 -0.00000000000E+00 -0.00000000000E+00 -0.45593999997E+02  0.45594000000E+02  0.51100000000E-03 0. -1.
    9900012    2    1    2    0    0  0.14212950386E+02 -0.39634519149E+02  0.10522401711E+02  0.47787262626E+02  0.19999961615E+02 0.  0.
         12    1    1    2    0    0 -0.14212950386E+02  0.39634519149E+02 -0.10522401711E+02  0.43400737374E+02  0.00000000000E+00 0. -1.
         11    1    3    3    0    0  0.16557759109E+01  0.98622239290E+00  0.56796998229E-01  0.19280701843E+01  0.51100000000E-03 0. -1.
        -11    1    3    3    0    0  0.13992054569E+02 -0.33469703666E+02  0.12358432474E+02  0.38324006941E+02  0.51100000000E-03 0.  1.
        -12    1    3    3    0    0 -0.14348800938E+01 -0.71510378763E+01 -0.18928277610E+01  0.75351855004E+01  0.00000000000E+00 0.  1.
</event>
<event>
 7    1  0.4876728E-009  0.4778727E+02  0.7816164E-02  0.1312668E+00
        -11   -1    0    0    0    0  0.00000000000E+00  0.00000000000E+00  0.45593999997E+02  0.45594000000E+02  0.51100000000E-03 0.  1.
         11   -1    0    0    0    0 -0.00000000000E+00 -0.00000000000E+00 -0.45593999997E+02  0.45594000000E+02  0.51100000000E-03 0. -1.
    9900012    2    1    2    0    0  0.18967627815E+01 -0.35481068550E+02  0.24922262844E+02  0.47787272820E+02  0.20000008095E+02 0.  0.
         12    1    1    2    0    0 -0.18967627815E+01  0.35481068550E+02 -0.24922262844E+02  0.43400727180E+02  0.00000000000E+00 0. -1.
         11    1    3    3    0    0  0.20493768090E+01 -0.15857650222E+02  0.11257287417E+00  0.15989924603E+02  0.51100000000E-03 0. -1.
        -11    1    3    3    0    0  0.81417026275E+00 -0.97609522345E+01  0.14490674778E+02  0.17490532225E+02  0.51100000000E-03 0.  1.
         12    1    3    3    0    0 -0.96678429029E+00 -0.98624660927E+01  0.10319015192E+02  0.14306815992E+02  0.00000000000E+00 0. -1.
</event>
<event>
 7    1  0.4876728E-009  0.4778727E+02  0.7816164E-02  0.1312668E+00
        -11   -1    0    0    0    0  0.00000000000E+00  0.00000000000E+00  0.45593999997E+02  0.45594000000E+02  0.51100000000E-03 0.  1.
         11   -1    0    0    0    0 -0.00000000000E+00 -0.00000000000E+00 -0.45593999997E+02  0.45594000000E+02  0.51100000000E-03 0. -1.
    9900012    2    1    2    0    0  0.38975027356E+02 -0.15526989448E+02 -0.11112282987E+02  0.47787274293E+02  0.20000014811E+02 0.  0.
         12    1    1    2    0    0 -0.38975027356E+02  0.15526989448E+02  0.11112282987E+02  0.43400725707E+02  0.00000000000E+00 0. -1.
         11    1    3    3    0    0  0.10271297874E+02 -0.36930536360E+01 -0.51272954877E+01  0.12059326865E+02  0.51100000000E-03 0. -1.
        -11    1    3    3    0    0  0.19120536181E+02 -0.15628411020E+02 -0.60310675138E+01  0.25420777141E+02  0.51100000000E-03 0.  1.
        -12    1    3    3    0    0  0.95831933011E+01  0.37944752071E+01  0.46080014814E-01  0.10307170286E+02  0.00000000000E+00 0.  1.
</event>
<event>
 7    1  0.4876728E-009  0.4778727E+02  0.7816164E-02  0.1312668E+00
        -11   -1    0    0    0    0  0.00000000000E+00  0.00000000000E+00  0.45593999997E+02  0.45594000000E+02  0.51100000000E-03 0. -1.
         11   -1    0    0    0    0 -0.00000000000E+00 -0.00000000000E+00 -0.45593999997E+02  0.45594000000E+02  0.51100000000E-03 0.  1.
    9900012    2    1    2    0    0 -0.45612737190E+01 -0.97634987379E+01 -0.42041552999E+02  0.47787270697E+02  0.19999998414E+02 0.  0.
         12    1    1    2    0    0  0.45612737190E+01  0.97634987379E+01  0.42041552999E+02  0.43400729303E+02  0.00000000000E+00 0. -1.
         11    1    3    3    0    0  0.52962240253E+01 -0.25181413423E+01 -0.85664410876E+01  0.10381470894E+02  0.51100000000E-03 0. -1.
        -11    1    3    3    0    0 -0.67596908602E+01 -0.55172582984E+01 -0.32606510599E+02  0.33753786356E+02  0.51100000000E-03 0.  1.
        -12    1    3    3    0    0 -0.30978068840E+01 -0.17280990972E+01 -0.86860131233E+00  0.36520134474E+01  0.00000000000E+00 0.  1.
</event>
<event>
 7    1  0.4876728E-009  0.4778727E+02  0.7816164E-02  0.1312668E+00
        -11   -1    0    0    0    0  0.00000000000E+00  0.00000000000E+00  0.45593999997E+02  0.45594000000E+02  0.51100000000E-03 0.  1.
         11   -1    0    0    0    0 -0.00000000000E+00 -0.00000000000E+00 -0.45593999997E+02  0.45594000000E+02  0.51100000000E-03 0. -1.
    9900012    2    1    2    0    0 -0.15537005881E+01 -0.38910946380E+02  0.19161096026E+02  0.47787270345E+02  0.19999996812E+02 0.  0.
         12    1    1    2    0    0  0.15537005881E+01  0.38910946380E+02 -0.19161096026E+02  0.43400729655E+02  0.00000000000E+00 0. -1.
         11    1    3    3    0    0 -0.69016677159E+01 -0.15252751646E+02  0.13653641428E+02  0.21603272311E+02  0.51100000000E-03 0. -1.
        -11    1    3    3    0    0  0.73173043836E+01 -0.15239569840E+02  0.43918885932E+01  0.17466428313E+02  0.51100000000E-03 0.  1.
        -12    1    3    3    0    0 -0.19693372558E+01 -0.84186248936E+01  0.11155660043E+01  0.87175697208E+01  0.00000000000E+00 0.  1.
</event>
<event>
 7    1  0.4876728E-009  0.4778727E+02  0.7816164E-02  0.1312668E+00
        -11   -1    0    0    0    0  0.00000000000E+00  0.00000000000E+00  0.45593999997E+02  0.45594000000E+02  0.51100000000E-03 0.  1.
         11   -1    0    0    0    0 -0.00000000000E+00 -0.00000000000E+00 -0.45593999997E+02  0.45594000000E+02  0.51100000000E-03 0. -1.
    9900012    2    1    2    0    0 -0.28471814024E+01  0.70308662085E+01  0.42732699083E+02  0.47787273134E+02  0.20000009529E+02 0.  0.
         12    1    1    2    0    0  0.28471814024E+01 -0.70308662085E+01 -0.42732699083E+02  0.43400726866E+02  0.00000000000E+00 0. -1.
         11    1    3    3    0    0 -0.36796068946E+01  0.82366377364E+01  0.19726116284E+02  0.21691043590E+02  0.51100000000E-03 0. -1.
        -11    1    3    3    0    0  0.55633248087E+01 -0.29335589782E+01  0.17680790996E+02  0.18766105662E+02  0.51100000000E-03 0.  1.
        -12    1    3    3    0    0 -0.47308993164E+01  0.17277874503E+01  0.53257918026E+01  0.73301238830E+01  0.00000000000E+00 0.  1.
</event>
<event>
 7    1  0.4876728E-009  0.4778728E+02  0.7816164E-02  0.1312668E+00
        -11   -1    0    0    0    0  0.00000000000E+00  0.00000000000E+00  0.45593999997E+02  0.45594000000E+02  0.51100000000E-03 0. -1.
         11   -1    0    0    0    0 -0.00000000000E+00 -0.00000000000E+00 -0.45593999997E+02  0.45594000000E+02  0.51100000000E-03 0.  1.
    9900012    2    1    2    0    0  0.43158205730E+02  0.30600531965E+01 -0.34100224800E+01  0.47787275344E+02  0.20000019603E+02 0.  0.
         12    1    1    2    0    0 -0.43158205730E+02 -0.30600531965E+01  0.34100224800E+01  0.43400724656E+02  0.00000000000E+00 0. -1.
         11    1    3    3    0    0 -0.48739932964E+00  0.13790931036E+01 -0.21712091899E+01  0.26179391709E+01  0.51100000000E-03 0. -1.
        -11    1    3    3    0    0  0.29534465235E+02  0.99111115508E+00 -0.62020297644E+01  0.30194902078E+02  0.51100000000E-03 0.  1.
        -12    1    3    3    0    0  0.14111139824E+02  0.68984893784E+00  0.49632164743E+01  0.14974434095E+02  0.00000000000E+00 0.  1.
</event>
<event>
 7    1  0.4876728E-009  0.4778727E+02  0.7816164E-02  0.1312668E+00
        -11   -1    0    0    0    0  0.00000000000E+00  0.00000000000E+00  0.45593999997E+02  0.45594000000E+02  0.51100000000E-03 0.  1.
         11   -1    0    0    0    0 -0.00000000000E+00 -0.00000000000E+00 -0.45593999997E+02  0.45594000000E+02  0.51100000000E-03 0. -1.
    9900012    2    1    2    0    0 -0.11515048290E+01 -0.22921206649E+02  0.36836341650E+02  0.47787265631E+02  0.19999975316E+02 0.  0.
         12    1    1    2    0    0  0.11515048290E+01  0.22921206649E+02 -0.36836341650E+02  0.43400734369E+02  0.00000000000E+00 0. -1.
         11    1    3    3    0    0 -0.81748550245E+01 -0.10318222680E+02  0.20520751184E+02  0.24380221562E+02  0.51100000000E-03 0. -1.
        -11    1    3    3    0    0  0.42196594298E+00 -0.85586732799E+01  0.11303678692E+02  0.14184572458E+02  0.51100000000E-03 0.  1.
         12    1    3    3    0    0  0.66013842525E+01 -0.40443106887E+01  0.50119117738E+01  0.92224716115E+01  0.00000000000E+00 0. -1.
</event>
<event>
 7    1  0.4876728E-009  0.4778727E+02  0.7816164E-02  0.1312668E+00
        -11   -1    0    0    0    0  0.00000000000E+00  0.00000000000E+00  0.45593999997E+02  0.45594000000E+02  0.51100000000E-03 0.  1.
         11   -1    0    0    0    0 -0.00000000000E+00 -0.00000000000E+00 -0.45593999997E+02  0.45594000000E+02  0.51100000000E-03 0. -1.
    9900012    2    1    2    0    0  0.40416867601E+02 -0.15252517548E+01 -0.15740825039E+02  0.47787272442E+02  0.20000006374E+02 0.  0.
         12    1    1    2    0    0 -0.40416867601E+02  0.15252517548E+01  0.15740825039E+02  0.43400727558E+02  0.00000000000E+00 0. -1.
         11    1    3    3    0    0  0.86467900837E+01  0.75461329392E+01 -0.29326166552E+01  0.11845308852E+02  0.51100000000E-03 0. -1.
        -11    1    3    3    0    0  0.27669550953E+02 -0.57186369688E+01 -0.11344245686E+02  0.30446654482E+02  0.51100000000E-03 0.  1.
         12    1    3    3    0    0  0.41005265645E+01 -0.33527477252E+01 -0.14639626981E+01  0.54953091083E+01  0.00000000000E+00 0. -1.
</event>
<event>
 7    1  0.4876728E-009  0.4778727E+02  0.7816164E-02  0.1312668E+00
        -11   -1    0    0    0    0  0.00000000000E+00  0.00000000000E+00  0.45593999997E+02  0.45594000000E+02  0.51100000000E-03 0.  1.
         11   -1    0    0    0    0 -0.00000000000E+00 -0.00000000000E+00 -0.45593999997E+02  0.45594000000E+02  0.51100000000E-03 0. -1.
    9900012    2    1    2    0    0 -0.11285687318E+02 -0.41126078484E+02  0.80561907405E+01  0.47787270985E+02  0.19999999731E+02 0.  0.
         12    1    1    2    0    0  0.11285687318E+02  0.41126078484E+02 -0.80561907405E+01  0.43400729015E+02  0.00000000000E+00 0. -1.
         11    1    3    3    0    0 -0.17831771548E+01 -0.24383992899E+02 -0.11110154031E+01  0.24474337294E+02  0.51100000000E-03 0. -1.
        -11    1    3    3    0    0 -0.70960982083E+01 -0.13937333273E+02  0.27098459525E+01  0.15872842653E+02  0.51100000000E-03 0.  1.
         12    1    3    3    0    0 -0.24064119546E+01 -0.28047523125E+01  0.64573601911E+01  0.74400910389E+01  0.00000000000E+00 0. -1.
</event>
<event>
 7    1  0.4876728E-009  0.4778727E+02  0.7816164E-02  0.1312668E+00
        -11   -1    0    0    0    0  0.00000000000E+00  0.00000000000E+00  0.45593999997E+02  0.45594000000E+02  0.51100000000E-03 0.  1.
         11   -1    0    0    0    0 -0.00000000000E+00 -0.00000000000E+00 -0.45593999997E+02  0.45594000000E+02  0.51100000000E-03 0. -1.
    9900012    2    1    2    0    0 -0.17020678959E+02  0.39908119215E+02  0.11231637852E+01  0.47787274333E+02  0.20000014995E+02 0.  0.
         12    1    1    2    0    0  0.17020678959E+02 -0.39908119215E+02 -0.11231637852E+01  0.43400725667E+02  0.00000000000E+00 0. -1.
         11    1    3    3    0    0 -0.70207571058E+01  0.22093921692E+01 -0.32390902994E+00  0.73673171112E+01  0.51100000000E-03 0. -1.
        -11    1    3    3    0    0  0.13682285791E+01  0.12681670631E+02 -0.12120937014E+01  0.12812727689E+02  0.51100000000E-03 0.  1.
        -12    1    3    3    0    0 -0.11368150432E+02  0.25017056415E+02  0.26591665165E+01  0.27607229533E+02  0.00000000000E+00 0.  1.
</event>
<event>
 7    1  0.4876728E-009  0.4778727E+02  0.7816164E-02  0.1312668E+00
        -11   -1    0    0    0    0  0.00000000000E+00  0.00000000000E+00  0.45593999997E+02  0.45594000000E+02  0.51100000000E-03 0.  1.
         11   -1    0    0    0    0 -0.00000000000E+00 -0.00000000000E+00 -0.45593999997E+02  0.45594000000E+02  0.51100000000E-03 0. -1.
    9900012    2    1    2    0    0  0.74061182807E+01 -0.39663823499E+02  0.15986051455E+02  0.47787270471E+02  0.19999997386E+02 0.  0.
         12    1    1    2    0    0 -0.74061182807E+01  0.39663823499E+02 -0.15986051455E+02  0.43400729529E+02  0.00000000000E+00 0. -1.
         11    1    3    3    0    0  0.90914424695E+01 -0.70499706995E+01  0.61442725189E+00  0.11521021402E+02  0.51100000000E-03 0. -1.
        -11    1    3    3    0    0 -0.23999283514E+01 -0.16340711225E+02  0.68156747616E+01  0.17867062493E+02  0.51100000000E-03 0.  1.
         12    1    3    3    0    0  0.71460416261E+00 -0.16273141574E+02  0.85559494413E+01  0.18399186576E+02  0.00000000000E+00 0. -1.
</event>
<event>
 7    1  0.4876728E-009  0.4778727E+02  0.7816164E-02  0.1312668E+00
        -11   -1    0    0    0    0  0.00000000000E+00  0.00000000000E+00  0.45593999997E+02  0.45594000000E+02  0.51100000000E-03 0.  1.
         11   -1    0    0    0    0 -0.00000000000E+00 -0.00000000000E+00 -0.45593999997E+02  0.45594000000E+02  0.51100000000E-03 0. -1.
    9900012    2    1    2    0    0 -0.53241456803E+01  0.11040894544E+02  0.41633824142E+02  0.47787271985E+02  0.20000004289E+02 0.  0.
         12    1    1    2    0    0  0.53241456803E+01 -0.11040894544E+02 -0.41633824142E+02  0.43400728015E+02  0.00000000000E+00 0. -1.
         11    1    3    3    0    0 -0.10547875203E+02  0.93138610066E+01  0.17736868299E+02  0.22640719412E+02  0.51100000000E-03 0. -1.
        -11    1    3    3    0    0 -0.31584054193E+00  0.20716951533E+01  0.43763774705E+01  0.48522526811E+01  0.51100000000E-03 0.  1.
         12    1    3    3    0    0  0.55395700650E+01 -0.34466161577E+00  0.19520578372E+02  0.20294299892E+02  0.00000000000E+00 0. -1.
</event>
<event>
 7    1  0.4876728E-009  0.4778727E+02  0.7816164E-02  0.1312668E+00
        -11   -1    0    0    0    0  0.00000000000E+00  0.00000000000E+00  0.45593999997E+02  0.45594000000E+02  0.51100000000E-03 0. -1.
         11   -1    0    0    0    0 -0.00000000000E+00 -0.00000000000E+00 -0.45593999997E+02  0.45594000000E+02  0.51100000000E-03 0.  1.
    9900012    2    1    2    0    0 -0.36018862920E+02 -0.22624844142E+02 -0.86244526985E+01  0.47787271402E+02  0.20000001632E+02 0.  0.
         12    1    1    2    0    0  0.36018862920E+02  0.22624844142E+02  0.86244526985E+01  0.43400728598E+02  0.00000000000E+00 0. -1.
         11    1    3    3    0    0  0.43302449992E+00  0.50263580909E+00  0.14841074392E+00  0.67983746892E+00  0.51100000000E-03 0. -1.
        -11    1    3    3    0    0 -0.59705166284E+01  0.24254864651E+01 -0.37456881911E+00  0.64552579703E+01  0.51100000000E-03 0.  1.
        -12    1    3    3    0    0 -0.30481370791E+02 -0.25552966416E+02 -0.83982946233E+01  0.40652175963E+02  0.00000000000E+00 0.  1.
</event>
<event>
 7    1  0.4876728E-009  0.4778727E+02  0.7816164E-02  0.1312668E+00
        -11   -1    0    0    0    0  0.00000000000E+00  0.00000000000E+00  0.45593999997E+02  0.45594000000E+02  0.51100000000E-03 0. -1.
         11   -1    0    0    0    0 -0.00000000000E+00 -0.00000000000E+00 -0.45593999997E+02  0.45594000000E+02  0.51100000000E-03 0.  1.
    9900012    2    1    2    0    0 -0.14760079497E+02  0.37083443943E+02 -0.17046455098E+02  0.47787269674E+02  0.19999993754E+02 0.  0.
         12    1    1    2    0    0  0.14760079497E+02 -0.37083443943E+02  0.17046455098E+02  0.43400730326E+02  0.00000000000E+00 0. -1.
         11    1    3    3    0    0 -0.51815292568E+01  0.69210164860E+00 -0.54600885360E+01  0.75590883850E+01  0.51100000000E-03 0. -1.
        -11    1    3    3    0    0  0.21982885791E+00  0.12389220520E+02 -0.18179827868E+01  0.12523824156E+02  0.51100000000E-03 0.  1.
         12    1    3    3    0    0 -0.97983790978E+01  0.24002121774E+02 -0.97683837751E+01  0.27704357134E+02  0.00000000000E+00 0. -1.
</event>
<event>
 7    1  0.4876728E-009  0.4778725E+02  0.7816164E-02  0.1312668E+00
        -11   -1    0    0    0    0  0.00000000000E+00  0.00000000000E+00  0.45593999997E+02  0.45594000000E+02  0.51100000000E-03 0. -1.
         11   -1    0    0    0    0 -0.00000000000E+00 -0.00000000000E+00 -0.45593999997E+02  0.45594000000E+02  0.51100000000E-03 0.  1.
    9900012    2    1    2    0    0  0.10953277705E+02  0.54718101970E+01 -0.41637841339E+02  0.47787253109E+02  0.19999918226E+02 0.  0.
         12    1    1    2    0    0 -0.10953277705E+02 -0.54718101970E+01  0.41637841339E+02  0.43400746891E+02  0.00000000000E+00 0. -1.
         11    1    3    3    0    0  0.12016232293E+02  0.61612833651E+01 -0.31920207321E+02  0.34659066446E+02  0.51100000000E-03 0. -1.
        -11    1    3    3    0    0  0.10093054198E+01  0.26507137722E+01 -0.85791259275E+01  0.90358388030E+01  0.51100000000E-03 0.  1.
         12    1    3    3    0    0 -0.20722600078E+01 -0.33401869403E+01 -0.11385080903E+01  0.40923478601E+01  0.00000000000E+00 0. -1.
</event>
<event>
 7    1  0.4876728E-009  0.4778727E+02  0.7816164E-02  0.1312668E+00
        -11   -1    0    0    0    0  0.00000000000E+00  0.00000000000E+00  0.45593999997E+02  0.45594000000E+02  0.51100000000E-03 0.  1.
         11   -1    0    0    0    0 -0.00000000000E+00 -0.00000000000E+00 -0.45593999997E+02  0.45594000000E+02  0.51100000000E-03 0. -1.
    9900012    2    1    2    0    0 -0.15372699920E+02 -0.40524669876E+02  0.22482250336E+01  0.47787270891E+02  0.19999999301E+02 0.  0.
         12    1    1    2    0    0  0.15372699920E+02  0.40524669876E+02 -0.22482250336E+01  0.43400729109E+02  0.00000000000E+00 0. -1.
         11    1    3    3    0    0 -0.10928611140E+01  0.17329835637E+01 -0.20507192238E+01  0.28987975167E+01  0.51100000000E-03 0. -1.
        -11    1    3    3    0    0 -0.98973852484E+01 -0.27318483953E+02  0.38809645741E+01  0.29314155054E+02  0.51100000000E-03 0.  1.
         12    1    3    3    0    0 -0.43824535579E+01 -0.14939169486E+02  0.41797968326E+00  0.15574318320E+02  0.00000000000E+00 0. -1.
</event>
<event>
 7    1  0.4876728E-009  0.4778728E+02  0.7816164E-02  0.1312668E+00
        -11   -1    0    0    0    0  0.00000000000E+00  0.00000000000E+00  0.45593999997E+02  0.45594000000E+02  0.51100000000E-03 0.  1.
         11   -1    0    0    0    0 -0.00000000000E+00 -0.00000000000E+00 -0.45593999997E+02  0.45594000000E+02  0.51100000000E-03 0. -1.
    9900012    2    1    2    0    0 -0.42912894675E+02 -0.64846971092E+01 -0.23319680008E+00  0.47787283339E+02  0.20000056054E+02 0.  0.
         12    1    1    2    0    0  0.42912894675E+02  0.64846971092E+01  0.23319680008E+00  0.43400716661E+02  0.00000000000E+00 0. -1.
         11    1    3    3    0    0 -0.17966744957E+01 -0.59831110288E+00  0.43225662307E+01  0.47191730737E+01  0.51100000000E-03 0.  1.
        -11    1    3    3    0    0 -0.29553120503E+02 -0.37186367987E+00 -0.26095748694E+00  0.29556612004E+02  0.51100000000E-03 0. -1.
         12    1    3    3    0    0 -0.11563099676E+02 -0.55145223265E+01 -0.42948055439E+01  0.13511498261E+02  0.00000000000E+00 0. -1.
</event>
<event>
 7    1  0.4876728E-009  0.4778727E+02  0.7816164E-02  0.1312668E+00
        -11   -1    0    0    0    0  0.00000000000E+00  0.00000000000E+00  0.45593999997E+02  0.45594000000E+02  0.51100000000E-03 0.  1.
         11   -1    0    0    0    0 -0.00000000000E+00 -0.00000000000E+00 -0.45593999997E+02  0.45594000000E+02  0.51100000000E-03 0. -1.
    9900012    2    1    2    0    0  0.11972574422E+02  0.24460256381E+02  0.33793147329E+02  0.47787268590E+02  0.19999988811E+02 0.  0.
         12    1    1    2    0    0 -0.11972574422E+02 -0.24460256381E+02 -0.33793147329E+02  0.43400731410E+02  0.00000000000E+00 0. -1.
         11    1    3    3    0    0  0.33211241304E+01  0.13744686285E+01 -0.19362531919E+01  0.40826592050E+01  0.51100000000E-03 0. -1.
        -11    1    3    3    0    0  0.48696497414E+01  0.14789324687E+02  0.18246074793E+02  0.23986597485E+02  0.51100000000E-03 0.  1.
         12    1    3    3    0    0  0.37818005499E+01  0.82964630652E+01  0.17483325728E+02  0.19718011901E+02  0.00000000000E+00 0. -1.
</event>
<event>
 7    1  0.4876728E-009  0.4778727E+02  0.7816164E-02  0.1312668E+00
        -11   -1    0    0    0    0  0.00000000000E+00  0.00000000000E+00  0.45593999997E+02  0.45594000000E+02  0.51100000000E-03 0. -1.
         11   -1    0    0    0    0 -0.00000000000E+00 -0.00000000000E+00 -0.45593999997E+02  0.45594000000E+02  0.51100000000E-03 0.  1.
    9900012    2    1    2    0    0 -0.39038181748E+02 -0.18926449199E+02  0.11972758291E+01  0.47787267484E+02  0.19999983768E+02 0.  0.
         12    1    1    2    0    0  0.39038181748E+02  0.18926449199E+02 -0.11972758291E+01  0.43400732516E+02  0.00000000000E+00 0. -1.
         11    1    3    3    0    0 -0.36156736684E+02 -0.15310662143E+02  0.65731705889E+01  0.39811211420E+02  0.51100000000E-03 0. -1.
        -11    1    3    3    0    0 -0.33078045354E+01 -0.13423965914E+01 -0.34790807011E+01  0.49847369278E+01  0.51100000000E-03 0.  1.
         12    1    3    3    0    0  0.42635947100E+00 -0.22733904648E+01 -0.18968140587E+01  0.29913191367E+01  0.00000000000E+00 0. -1.
</event>
<event>
 7    1  0.4876728E-009  0.4778727E+02  0.7816164E-02  0.1312668E+00
        -11   -1    0    0    0    0  0.00000000000E+00  0.00000000000E+00  0.45593999997E+02  0.45594000000E+02  0.51100000000E-03 0.  1.
         11   -1    0    0    0    0 -0.00000000000E+00 -0.00000000000E+00 -0.45593999997E+02  0.45594000000E+02  0.51100000000E-03 0. -1.
    9900012    2    1    2    0    0 -0.16202757828E+02 -0.30014353566E+02  0.26837148983E+02  0.47787270205E+02  0.19999996174E+02 0.  0.
         12    1    1    2    0    0  0.16202757828E+02  0.30014353566E+02 -0.26837148983E+02  0.43400729795E+02  0.00000000000E+00 0. -1.
         11    1    3    3    0    0 -0.19366209051E+01 -0.38366180507E+01  0.11486805056E+01  0.44485509733E+01  0.51100000000E-03 0. -1.
        -11    1    3    3    0    0  0.14516785217E+00 -0.85932519870E+01 -0.56025146164E+00  0.86127193951E+01  0.51100000000E-03 0.  1.
        -12    1    3    3    0    0 -0.14411304775E+02 -0.17584483528E+02  0.26248719939E+02  0.34725999837E+02  0.00000000000E+00 0.  1.
</event>
<event>
 7    1  0.4876728E-009  0.4778727E+02  0.7816164E-02  0.1312668E+00
        -11   -1    0    0    0    0  0.00000000000E+00  0.00000000000E+00  0.45593999997E+02  0.45594000000E+02  0.51100000000E-03 0.  1.
         11   -1    0    0    0    0 -0.00000000000E+00 -0.00000000000E+00 -0.45593999997E+02  0.45594000000E+02  0.51100000000E-03 0. -1.
    9900012    2    1    2    0    0  0.30739141343E+02 -0.15165644858E+01  0.30601126107E+02  0.47787266165E+02  0.19999977753E+02 0.  0.
         12    1    1    2    0    0 -0.30739141343E+02  0.15165644858E+01 -0.30601126107E+02  0.43400733835E+02  0.00000000000E+00 0. -1.
         11    1    3    3    0    0  0.94585783847E+01 -0.72041753872E+01  0.87282381435E+01  0.14749474208E+02  0.51100000000E-03 0. -1.
        -11    1    3    3    0    0  0.15125049310E+02  0.89436557393E+01  0.17587807228E+02  0.24861356721E+02  0.51100000000E-03 0.  1.
        -12    1    3    3    0    0  0.61555136484E+01 -0.32560448379E+01  0.42850807355E+01  0.81764352362E+01  0.00000000000E+00 0.  1.
</event>
<event>
 7    1  0.4876728E-009  0.4778727E+02  0.7816164E-02  0.1312668E+00
        -11   -1    0    0    0    0  0.00000000000E+00  0.00000000000E+00  0.45593999997E+02  0.45594000000E+02  0.51100000000E-03 0.  1.
         11   -1    0    0    0    0 -0.00000000000E+00 -0.00000000000E+00 -0.45593999997E+02  0.45594000000E+02  0.51100000000E-03 0. -1.
    9900012    2    1    2    0    0  0.32992596370E+02  0.19761937108E+02  0.20114125476E+02  0.47787267090E+02  0.19999981969E+02 0.  0.
         12    1    1    2    0    0 -0.32992596370E+02 -0.19761937108E+02 -0.20114125476E+02  0.43400732910E+02  0.00000000000E+00 0. -1.
         11    1    3    3    0    0  0.21136893209E+02  0.20964808744E+02  0.19779030038E+02  0.35742152841E+02  0.51100000000E-03 0.  1.
        -11    1    3    3    0    0  0.92526595304E+01 -0.15934149494E+01 -0.21553476023E-01  0.93888840870E+01  0.51100000000E-03 0. -1.
        -12    1    3    3    0    0  0.26030436309E+01  0.39054331306E+00  0.35664891365E+00  0.26562301616E+01  0.00000000000E+00 0.  1.
</event>
<event>
 7    1  0.4876728E-009  0.4778727E+02  0.7816164E-02  0.1312668E+00
        -11   -1    0    0    0    0  0.00000000000E+00  0.00000000000E+00  0.45593999997E+02  0.45594000000E+02  0.51100000000E-03 0. -1.
         11   -1    0    0    0    0 -0.00000000000E+00 -0.00000000000E+00 -0.45593999997E+02  0.45594000000E+02  0.51100000000E-03 0.  1.
    9900012    2    1    2    0    0 -0.36768752880E+02 -0.22544402684E+02 -0.48406393518E+01  0.47787273392E+02  0.20000010704E+02 0.  0.
         12    1    1    2    0    0  0.36768752880E+02  0.22544402684E+02  0.48406393518E+01  0.43400726608E+02  0.00000000000E+00 0. -1.
         11    1    3    3    0    0 -0.14124514650E+02 -0.98517979060E+01  0.35784044652E+01  0.17588769566E+02  0.51100000000E-03 0. -1.
        -11    1    3    3    0    0 -0.21681606458E+01 -0.30398420016E+01 -0.64794633989E+01  0.74783023594E+01  0.51100000000E-03 0.  1.
        -12    1    3    3    0    0 -0.20476077585E+02 -0.96527627767E+01 -0.19395804181E+01  0.22720201467E+02  0.00000000000E+00 0.  1.
</event>
<event>
 7    1  0.4876728E-009  0.4778727E+02  0.7816164E-02  0.1312668E+00
        -11   -1    0    0    0    0  0.00000000000E+00  0.00000000000E+00  0.45593999997E+02  0.45594000000E+02  0.51100000000E-03 0. -1.
         11   -1    0    0    0    0 -0.00000000000E+00 -0.00000000000E+00 -0.45593999997E+02  0.45594000000E+02  0.51100000000E-03 0.  1.
    9900012    2    1    2    0    0  0.63210429348E+01 -0.36677870167E+02 -0.22324911275E+02  0.47787269509E+02  0.19999992998E+02 0.  0.
         12    1    1    2    0    0 -0.63210429348E+01  0.36677870167E+02  0.22324911275E+02  0.43400730491E+02  0.00000000000E+00 0. -1.
         11    1    3    3    0    0  0.53547991311E+01 -0.22371940935E+02 -0.95021654709E+01  0.24889129431E+02  0.51100000000E-03 0. -1.
        -11    1    3    3    0    0 -0.28870094511E+01 -0.11501747178E+02 -0.13627883480E+02  0.18064999865E+02  0.51100000000E-03 0.  1.
        -12    1    3    3    0    0  0.38532532549E+01 -0.28041820532E+01  0.80513767622E+00  0.48331402123E+01  0.00000000000E+00 0.  1.
</event>
<event>
 7    1  0.4876728E-009  0.4778727E+02  0.7816164E-02  0.1312668E+00
        -11   -1    0    0    0    0  0.00000000000E+00  0.00000000000E+00  0.45593999997E+02  0.45594000000E+02  0.51100000000E-03 0. -1.
         11   -1    0    0    0    0 -0.00000000000E+00 -0.00000000000E+00 -0.45593999997E+02  0.45594000000E+02  0.51100000000E-03 0.  1.
    9900012    2    1    2    0    0  0.10647046608E+02 -0.41939961738E+02  0.33620681957E+01  0.47787268502E+02  0.19999988406E+02 0.  0.
         12    1    1    2    0    0 -0.10647046608E+02  0.41939961738E+02 -0.33620681957E+01  0.43400731498E+02  0.00000000000E+00 0. -1.
         11    1    3    3    0    0  0.31643290712E+01 -0.34524253604E+02 -0.87816908738E+00  0.34680084294E+02  0.51100000000E-03 0. -1.
        -11    1    3    3    0    0  0.85593808002E+01 -0.69964950305E+01  0.44780474222E+01  0.11927566867E+02  0.51100000000E-03 0.  1.
         12    1    3    3    0    0 -0.10766632633E+01 -0.41921310317E+00 -0.23781013909E+00  0.11796173408E+01  0.00000000000E+00 0. -1.
</event>
<event>
 7    1  0.4876728E-009  0.4778727E+02  0.7816164E-02  0.1312668E+00
        -11   -1    0    0    0    0  0.00000000000E+00  0.00000000000E+00  0.45593999997E+02  0.45594000000E+02  0.51100000000E-03 0.  1.
         11   -1    0    0    0    0 -0.00000000000E+00 -0.00000000000E+00 -0.45593999997E+02  0.45594000000E+02  0.51100000000E-03 0. -1.
    9900012    2    1    2    0    0  0.18047429618E+02 -0.37680938170E+02  0.11749906108E+02  0.47787272924E+02  0.20000008569E+02 0.  0.
         12    1    1    2    0    0 -0.18047429618E+02  0.37680938170E+02 -0.11749906108E+02  0.43400727076E+02  0.00000000000E+00 0. -1.
         11    1    3    3    0    0 -0.27169083808E+01 -0.15550958475E+01  0.14887696675E+01  0.34664606775E+01  0.51100000000E-03 0. -1.
        -11    1    3    3    0    0  0.18614901615E+02 -0.22344795705E+02  0.82397238311E+01  0.30227429701E+02  0.51100000000E-03 0.  1.
        -12    1    3    3    0    0  0.21494363835E+01 -0.13781046617E+02  0.20214126095E+01  0.14093382545E+02  0.00000000000E+00 0.  1.
</event>
<event>
 7    1  0.4876728E-009  0.4778727E+02  0.7816164E-02  0.1312668E+00
        -11   -1    0    0    0    0  0.00000000000E+00  0.00000000000E+00  0.45593999997E+02  0.45594000000E+02  0.51100000000E-03 0. -1.
         11   -1    0    0    0    0 -0.00000000000E+00 -0.00000000000E+00 -0.45593999997E+02  0.45594000000E+02  0.51100000000E-03 0.  1.
    9900012    2    1    2    0    0 -0.32374257834E+02  0.21315457102E+02  0.19523885443E+02  0.47787269769E+02  0.19999994186E+02 0.  0.
         12    1    1    2    0    0  0.32374257834E+02 -0.21315457102E+02 -0.19523885443E+02  0.43400730231E+02  0.00000000000E+00 0. -1.
         11    1    3    3    0    0 -0.11965283039E+01  0.87142007908E+01  0.57912798083E+01  0.10531281854E+02  0.51100000000E-03 0. -1.
        -11    1    3    3    0    0 -0.23560958115E+02  0.12583055505E+02  0.85591417422E+01  0.28048367881E+02  0.51100000000E-03 0.  1.
        -12    1    3    3    0    0 -0.76167714147E+01  0.18200805944E-01  0.51734638929E+01  0.92076200348E+01  0.00000000000E+00 0.  1.
</event>
<event>
 7    1  0.4876728E-009  0.4778727E+02  0.7816164E-02  0.1312668E+00
        -11   -1    0    0    0    0  0.00000000000E+00  0.00000000000E+00  0.45593999997E+02  0.45594000000E+02  0.51100000000E-03 0. -1.
         11   -1    0    0    0    0 -0.00000000000E+00 -0.00000000000E+00 -0.45593999997E+02  0.45594000000E+02  0.51100000000E-03 0.  1.
    9900012    2    1    2    0    0 -0.39324976288E+02  0.12175288263E+02  0.13745261694E+02  0.47787267018E+02  0.19999981644E+02 0.  0.
         12    1    1    2    0    0  0.39324976288E+02 -0.12175288263E+02 -0.13745261694E+02  0.43400732982E+02  0.00000000000E+00 0. -1.
         11    1    3    3    0    0 -0.45757202811E+01  0.61288142521E+01 -0.19619181040E+01  0.78961194986E+01  0.51100000000E-03 0. -1.
        -11    1    3    3    0    0 -0.24910844663E+02  0.98767559281E+00  0.14296528227E+02  0.28738761360E+02  0.51100000000E-03 0.  1.
        -12    1    3    3    0    0 -0.98384113431E+01  0.50587984185E+01  0.14106515705E+01  0.11152386159E+02  0.00000000000E+00 0.  1.
</event>
<event>
 7    1  0.4876728E-009  0.4778727E+02  0.7816164E-02  0.1312668E+00
        -11   -1    0    0    0    0  0.00000000000E+00  0.00000000000E+00  0.45593999997E+02  0.45594000000E+02  0.51100000000E-03 0. -1.
         11   -1    0    0    0    0 -0.00000000000E+00 -0.00000000000E+00 -0.45593999997E+02  0.45594000000E+02  0.51100000000E-03 0.  1.
    9900012    2    1    2    0    0  0.33280952957E+02  0.22144702056E+02 -0.16900117603E+02  0.47787266897E+02  0.19999981088E+02 0.  0.
         12    1    1    2    0    0 -0.33280952957E+02 -0.22144702056E+02  0.16900117603E+02  0.43400733103E+02  0.00000000000E+00 0. -1.
         11    1    3    3    0    0  0.26147702297E+01  0.43945806422E+01 -0.10303227429E+02  0.11502428357E+02  0.51100000000E-03 0. -1.
        -11    1    3    3    0    0  0.13500774207E+02  0.54793803919E+01 -0.22835587738E+01  0.14748191571E+02  0.51100000000E-03 0.  1.
         12    1    3    3    0    0  0.17165408520E+02  0.12270741022E+02 -0.43133314001E+01  0.21536646969E+02  0.00000000000E+00 0. -1.
</event>
<event>
 7    1  0.4876728E-009  0.4778727E+02  0.7816164E-02  0.1312668E+00
        -11   -1    0    0    0    0  0.00000000000E+00  0.00000000000E+00  0.45593999997E+02  0.45594000000E+02  0.51100000000E-03 0.  1.
         11   -1    0    0    0    0 -0.00000000000E+00 -0.00000000000E+00 -0.45593999997E+02  0.45594000000E+02  0.51100000000E-03 0. -1.
    9900012    2    1    2    0    0  0.35159012653E+02 -0.17296976298E+02  0.18662302246E+02  0.47787273222E+02  0.20000009928E+02 0.  0.
         12    1    1    2    0    0 -0.35159012653E+02  0.17296976298E+02 -0.18662302246E+02  0.43400726778E+02  0.00000000000E+00 0. -1.
         11    1    3    3    0    0  0.94737092869E+01 -0.97693609427E+01 -0.73921873198E+00  0.13628573861E+02  0.51100000000E-03 0. -1.
        -11    1    3    3    0    0  0.14650763041E+02 -0.47698500344E+01  0.16168489585E+02  0.22334197607E+02  0.51100000000E-03 0.  1.
        -12    1    3    3    0    0  0.11034540325E+02 -0.27577653206E+01  0.32330313924E+01  0.11824501754E+02  0.00000000000E+00 0.  1.
</event>
<event>
 7    1  0.4876728E-009  0.4778726E+02  0.7816164E-02  0.1312668E+00
        -11   -1    0    0    0    0  0.00000000000E+00  0.00000000000E+00  0.45593999997E+02  0.45594000000E+02  0.51100000000E-03 0.  1.
         11   -1    0    0    0    0 -0.00000000000E+00 -0.00000000000E+00 -0.45593999997E+02  0.45594000000E+02  0.51100000000E-03 0. -1.
    9900012    2    1    2    0    0  0.26472859102E+02 -0.65040445477E+01  0.33771424078E+02  0.47787263269E+02  0.19999964549E+02 0.  0.
         12    1    1    2    0    0 -0.26472859102E+02  0.65040445477E+01 -0.33771424078E+02  0.43400736731E+02  0.00000000000E+00 0. -1.
         11    1    3    3    0    0  0.20957404396E+02  0.47158745636E+00  0.26010798227E+02  0.33406538558E+02  0.51100000000E-03 0.  1.
        -11    1    3    3    0    0  0.45461698111E+01 -0.26850676162E+01  0.84143675908E+01  0.99337218740E+01  0.51100000000E-03 0. -1.
         12    1    3    3    0    0  0.96928489552E+00 -0.42905643878E+01 -0.65374173963E+00  0.44470028375E+01  0.00000000000E+00 0. -1.
</event>
<event>
 7    1  0.4876728E-009  0.4778727E+02  0.7816164E-02  0.1312668E+00
        -11   -1    0    0    0    0  0.00000000000E+00  0.00000000000E+00  0.45593999997E+02  0.45594000000E+02  0.51100000000E-03 0. -1.
         11   -1    0    0    0    0 -0.00000000000E+00 -0.00000000000E+00 -0.45593999997E+02  0.45594000000E+02  0.51100000000E-03 0.  1.
    9900012    2    1    2    0    0 -0.74610623257E+01  0.42318671193E+02 -0.60898313226E+01  0.47787269267E+02  0.19999991897E+02 0.  0.
         12    1    1    2    0    0  0.74610623257E+01 -0.42318671193E+02  0.60898313226E+01  0.43400730733E+02  0.00000000000E+00 0. -1.
         11    1    3    3    0    0 -0.48051491118E+01  0.20510465406E+02 -0.59675709399E+01  0.21894760842E+02  0.51100000000E-03 0. -1.
        -11    1    3    3    0    0 -0.36437100312E+01  0.18734969107E+02 -0.52844780755E+01  0.19804075313E+02  0.51100000000E-03 0.  1.
         12    1    3    3    0    0  0.98779681728E+00  0.30732366809E+01  0.51622176928E+01  0.60884331118E+01  0.00000000000E+00 0. -1.
</event>
<event>
 7    1  0.4876728E-009  0.4778727E+02  0.7816164E-02  0.1312668E+00
        -11   -1    0    0    0    0  0.00000000000E+00  0.00000000000E+00  0.45593999997E+02  0.45594000000E+02  0.51100000000E-03 0. -1.
         11   -1    0    0    0    0 -0.00000000000E+00 -0.00000000000E+00 -0.45593999997E+02  0.45594000000E+02  0.51100000000E-03 0.  1.
    9900012    2    1    2    0    0  0.16420143529E+02  0.78176424850E+00 -0.40167041757E+02  0.47787268297E+02  0.19999987474E+02 0.  0.
         12    1    1    2    0    0 -0.16420143529E+02 -0.78176424850E+00  0.40167041757E+02  0.43400731703E+02  0.00000000000E+00 0. -1.
         11    1    3    3    0    0  0.21253177071E+01 -0.29596934296E+01 -0.21074423128E+01  0.42092842522E+01  0.51100000000E-03 0. -1.
        -11    1    3    3    0    0 -0.30935700371E+01  0.13555275830E+01 -0.37987862015E+01  0.50831493651E+01  0.51100000000E-03 0.  1.
        -12    1    3    3    0    0  0.17388395859E+02  0.23859300951E+01 -0.34260813242E+02  0.38494834680E+02  0.00000000000E+00 0.  1.
</event>
<event>
 7    1  0.4876728E-009  0.4778727E+02  0.7816164E-02  0.1312668E+00
        -11   -1    0    0    0    0  0.00000000000E+00  0.00000000000E+00  0.45593999997E+02  0.45594000000E+02  0.51100000000E-03 0. -1.
         11   -1    0    0    0    0 -0.00000000000E+00 -0.00000000000E+00 -0.45593999997E+02  0.45594000000E+02  0.51100000000E-03 0.  1.
    9900012    2    1    2    0    0 -0.34332274293E+02 -0.23043993651E+02  0.13186841453E+02  0.47787268566E+02  0.19999988699E+02 0.  0.
         12    1    1    2    0    0  0.34332274293E+02  0.23043993651E+02 -0.13186841453E+02  0.43400731434E+02  0.00000000000E+00 0. -1.
         11    1    3    3    0    0  0.98071274145E+00 -0.78796162615E+00 -0.19859276507E+01  0.23508700306E+01  0.51100000000E-03 0. -1.
        -11    1    3    3    0    0 -0.22032673355E+02 -0.19102173738E+02  0.10947704431E+02  0.31147776313E+02  0.51100000000E-03 0.  1.
         12    1    3    3    0    0 -0.13280313679E+02 -0.31538582872E+01  0.42250646726E+01  0.14288622222E+02  0.00000000000E+00 0. -1.
</event>
<event>
 7    1  0.4876728E-009  0.4778727E+02  0.7816164E-02  0.1312668E+00
        -11   -1    0    0    0    0  0.00000000000E+00  0.00000000000E+00  0.45593999997E+02  0.45594000000E+02  0.51100000000E-03 0.  1.
         11   -1    0    0    0    0 -0.00000000000E+00 -0.00000000000E+00 -0.45593999997E+02  0.45594000000E+02  0.51100000000E-03 0. -1.
    9900012    2    1    2    0    0  0.10458609184E+02  0.40180229471E+02  0.12640823623E+02  0.47787265349E+02  0.19999974032E+02 0.  0.
         12    1    1    2    0    0 -0.10458609184E+02 -0.40180229471E+02 -0.12640823623E+02  0.43400734651E+02  0.00000000000E+00 0. -1.
         11    1    3    3    0    0 -0.15082068742E+01  0.91942376700E+01  0.10161689124E+02  0.13786537651E+02  0.51100000000E-03 0. -1.
        -11    1    3    3    0    0  0.38461750394E+01  0.18981458520E+02  0.50613647809E+00  0.19373822657E+02  0.51100000000E-03 0.  1.
         12    1    3    3    0    0  0.81206410192E+01  0.12004533281E+02  0.19729980217E+01  0.14626905040E+02  0.00000000000E+00 0. -1.
</event>
<event>
 7    1  0.4876728E-009  0.4778727E+02  0.7816164E-02  0.1312668E+00
        -11   -1    0    0    0    0  0.00000000000E+00  0.00000000000E+00  0.45593999997E+02  0.45594000000E+02  0.51100000000E-03 0.  1.
         11   -1    0    0    0    0 -0.00000000000E+00 -0.00000000000E+00 -0.45593999997E+02  0.45594000000E+02  0.51100000000E-03 0. -1.
    9900012    2    1    2    0    0  0.12620444022E+02 -0.10943082429E+02  0.40057417980E+02  0.47787269642E+02  0.19999993607E+02 0.  0.
         12    1    1    2    0    0 -0.12620444022E+02  0.10943082429E+02 -0.40057417980E+02  0.43400730358E+02  0.00000000000E+00 0. -1.
         11    1    3    3    0    0  0.34005243469E+01  0.44854501015E+01  0.89836407806E+01  0.10601350404E+02  0.51100000000E-03 0. -1.
        -11    1    3    3    0    0  0.10100916264E+02 -0.10908925882E+02  0.18123080537E+02  0.23440973139E+02  0.51100000000E-03 0.  1.
        -12    1    3    3    0    0 -0.88099658934E+00 -0.45196066486E+01  0.12950696663E+02  0.13744946100E+02  0.00000000000E+00 0.  1.
</event>
<event>
 7    1  0.4876728E-009  0.4778728E+02  0.7816164E-02  0.1312668E+00
        -11   -1    0    0    0    0  0.00000000000E+00  0.00000000000E+00  0.45593999997E+02  0.45594000000E+02  0.51100000000E-03 0. -1.
         11   -1    0    0    0    0 -0.00000000000E+00 -0.00000000000E+00 -0.45593999997E+02  0.45594000000E+02  0.51100000000E-03 0.  1.
    9900012    2    1    2    0    0 -0.10438408410E+02  0.55425589106E+01 -0.41760528859E+02  0.47787284568E+02  0.20000061658E+02 0.  0.
         12    1    1    2    0    0  0.10438408410E+02 -0.55425589106E+01  0.41760528859E+02  0.43400715432E+02  0.00000000000E+00 0. -1.
         11    1    3    3    0    0  0.19703296331E+01  0.48086294569E+00 -0.17811584086E+01  0.26992505577E+01  0.51100000000E-03 0. -1.
        -11    1    3    3    0    0 -0.68353005067E+01  0.62786995578E+01 -0.70162581129E+01  0.11634916387E+02  0.51100000000E-03 0.  1.
        -12    1    3    3    0    0 -0.55734375367E+01 -0.12170035929E+01 -0.32963112338E+02  0.33453117623E+02  0.00000000000E+00 0.  1.
</event>
<event>
 7    1  0.4876728E-009  0.4778727E+02  0.7816164E-02  0.1312668E+00
        -11   -1    0    0    0    0  0.00000000000E+00  0.00000000000E+00  0.45593999997E+02  0.45594000000E+02  0.51100000000E-03 0.  1.
         11   -1    0    0    0    0 -0.00000000000E+00 -0.00000000000E+00 -0.45593999997E+02  0.45594000000E+02  0.51100000000E-03 0. -1.
    9900012    2    1    2    0    0  0.20677252596E+02 -0.11306876456E+02  0.36444878206E+02  0.47787269850E+02  0.19999994553E+02 0.  0.
         12    1    1    2    0    0 -0.20677252596E+02  0.11306876456E+02 -0.36444878206E+02  0.43400730150E+02  0.00000000000E+00 0. -1.
         11    1    3    3    0    0  0.16159403036E+02 -0.12209765501E+02  0.20464710103E+02  0.28792517082E+02  0.51100000000E-03 0. -1.
        -11    1    3    3    0    0 -0.13654877999E+01 -0.10137271368E+01  0.10776531271E+02  0.10909895789E+02  0.51100000000E-03 0.  1.
        -12    1    3    3    0    0  0.58833373602E+01  0.19166161815E+01  0.52036368322E+01  0.80848569785E+01  0.00000000000E+00 0.  1.
</event>
<event>
 7    1  0.4876728E-009  0.4778727E+02  0.7816164E-02  0.1312668E+00
        -11   -1    0    0    0    0  0.00000000000E+00  0.00000000000E+00  0.45593999997E+02  0.45594000000E+02  0.51100000000E-03 0. -1.
         11   -1    0    0    0    0 -0.00000000000E+00 -0.00000000000E+00 -0.45593999997E+02  0.45594000000E+02  0.51100000000E-03 0.  1.
    9900012    2    1    2    0    0  0.13558331425E+02 -0.20404826786E+02 -0.35825103636E+02  0.47787270078E+02  0.19999995595E+02 0.  0.
         12    1    1    2    0    0 -0.13558331425E+02  0.20404826786E+02  0.35825103636E+02  0.43400729922E+02  0.00000000000E+00 0. -1.
         11    1    3    3    0    0 -0.22251296297E+01  0.24100940224E+01 -0.37135856580E+01  0.49548434653E+01  0.51100000000E-03 0. -1.
        -11    1    3    3    0    0  0.66314484918E+01 -0.10470854302E+02 -0.10103335499E+02  0.15990381090E+02  0.51100000000E-03 0.  1.
         12    1    3    3    0    0  0.91520125632E+01 -0.12344066507E+02 -0.22008182478E+02  0.26842045523E+02  0.00000000000E+00 0. -1.
</event>
<event>
 7    1  0.4876728E-009  0.4778727E+02  0.7816164E-02  0.1312668E+00
        -11   -1    0    0    0    0  0.00000000000E+00  0.00000000000E+00  0.45593999997E+02  0.45594000000E+02  0.51100000000E-03 0. -1.
         11   -1    0    0    0    0 -0.00000000000E+00 -0.00000000000E+00 -0.45593999997E+02  0.45594000000E+02  0.51100000000E-03 0.  1.
    9900012    2    1    2    0    0 -0.34594654776E+02  0.14160088833E+02  0.22052772032E+02  0.47787274094E+02  0.20000013906E+02 0.  0.
         12    1    1    2    0    0  0.34594654776E+02 -0.14160088833E+02 -0.22052772032E+02  0.43400725906E+02  0.00000000000E+00 0. -1.
         11    1    3    3    0    0 -0.94861142778E+01  0.75166892636E+01  0.13786183966E+02  0.18345186022E+02  0.51100000000E-03 0. -1.
        -11    1    3    3    0    0 -0.24129464082E+02  0.46603352160E+01  0.10099471989E+02  0.26569702594E+02  0.51100000000E-03 0.  1.
        -12    1    3    3    0    0 -0.97907641594E+00  0.19830643535E+01 -0.18328839233E+01  0.28723854781E+01  0.00000000000E+00 0.  1.
</event>
<event>
 7    1  0.4876728E-009  0.4778727E+02  0.7816164E-02  0.1312668E+00
        -11   -1    0    0    0    0  0.00000000000E+00  0.00000000000E+00  0.45593999997E+02  0.45594000000E+02  0.51100000000E-03 0. -1.
         11   -1    0    0    0    0 -0.00000000000E+00 -0.00000000000E+00 -0.45593999997E+02  0.45594000000E+02  0.51100000000E-03 0.  1.
    9900012    2    1    2    0    0  0.19427484204E+02  0.38206294389E+02 -0.68172632688E+01  0.47787272449E+02  0.20000006406E+02 0.  0.
         12    1    1    2    0    0 -0.19427484204E+02 -0.38206294389E+02  0.68172632688E+01  0.43400727551E+02  0.00000000000E+00 0. -1.
         11    1    3    3    0    0  0.79425980740E+01  0.76319001715E+01 -0.74791008015E+01  0.13314192182E+02  0.51100000000E-03 0.  1.
        -11    1    3    3    0    0  0.13444246428E+02  0.28006842059E+02  0.16062822824E+01  0.31108055342E+02  0.51100000000E-03 0. -1.
         12    1    3    3    0    0 -0.19593602979E+01  0.25675521585E+01 -0.94444474973E+00  0.33650249255E+01  0.00000000000E+00 0. -1.
</event>
<event>
 7    1  0.4876728E-009  0.4778727E+02  0.7816164E-02  0.1312668E+00
        -11   -1    0    0    0    0  0.00000000000E+00  0.00000000000E+00  0.45593999997E+02  0.45594000000E+02  0.51100000000E-03 0.  1.
         11   -1    0    0    0    0 -0.00000000000E+00 -0.00000000000E+00 -0.45593999997E+02  0.45594000000E+02  0.51100000000E-03 0. -1.
    9900012    2    1    2    0    0 -0.36230898473E+02  0.10491554607E+02  0.21467941623E+02  0.47787271438E+02  0.20000001792E+02 0.  0.
         12    1    1    2    0    0  0.36230898473E+02 -0.10491554607E+02 -0.21467941623E+02  0.43400728562E+02  0.00000000000E+00 0. -1.
         11    1    3    3    0    0 -0.13481259330E+02 -0.33964434888E+00  0.14810303638E+02  0.20030097492E+02  0.51100000000E-03 0. -1.
        -11    1    3    3    0    0 -0.40223801234E+01 -0.39004626509E+00  0.41321248339E+01  0.57798039630E+01  0.51100000000E-03 0.  1.
         12    1    3    3    0    0 -0.18727259020E+02  0.11221245221E+02  0.25255131504E+01  0.21977369983E+02  0.00000000000E+00 0. -1.
</event>
<event>
 7    1  0.4876728E-009  0.4778727E+02  0.7816164E-02  0.1312668E+00
        -11   -1    0    0    0    0  0.00000000000E+00  0.00000000000E+00  0.45593999997E+02  0.45594000000E+02  0.51100000000E-03 0. -1.
         11   -1    0    0    0    0 -0.00000000000E+00 -0.00000000000E+00 -0.45593999997E+02  0.45594000000E+02  0.51100000000E-03 0.  1.
    9900012    2    1    2    0    0 -0.11039394826E+02  0.39272695073E+02 -0.14812516081E+02  0.47787269026E+02  0.19999990797E+02 0.  0.
         12    1    1    2    0    0  0.11039394826E+02 -0.39272695073E+02  0.14812516081E+02  0.43400730974E+02  0.00000000000E+00 0. -1.
         11    1    3    3    0    0 -0.41124135786E+01  0.16541506135E+02  0.23896359433E+00  0.17046714478E+02  0.51100000000E-03 0. -1.
        -11    1    3    3    0    0  0.13532502495E+01  0.16196066832E+02 -0.89153180376E+01  0.18537172466E+02  0.51100000000E-03 0.  1.
        -12    1    3    3    0    0 -0.82802314970E+01  0.65351221068E+01 -0.61361616373E+01  0.12203382082E+02  0.00000000000E+00 0.  1.
</event>
<event>
 7    1  0.4876728E-009  0.4778728E+02  0.7816164E-02  0.1312668E+00
        -11   -1    0    0    0    0  0.00000000000E+00  0.00000000000E+00  0.45593999997E+02  0.45594000000E+02  0.51100000000E-03 0. -1.
         11   -1    0    0    0    0 -0.00000000000E+00 -0.00000000000E+00 -0.45593999997E+02  0.45594000000E+02  0.51100000000E-03 0.  1.
    9900012    2    1    2    0    0  0.32933919028E+01  0.34371881022E+02 -0.26293527231E+02  0.47787283307E+02  0.20000055909E+02 0.  0.
         12    1    1    2    0    0 -0.32933919028E+01 -0.34371881022E+02  0.26293527231E+02  0.43400716693E+02  0.00000000000E+00 0. -1.
         11    1    3    3    0    0  0.33056892799E+01  0.11321004952E+02 -0.16741568578E+02  0.20478595007E+02  0.51100000000E-03 0.  1.
        -11    1    3    3    0    0  0.21158651899E+01  0.22327319605E+02 -0.10626206181E+02  0.24817379884E+02  0.51100000000E-03 0. -1.
         12    1    3    3    0    0 -0.21281625671E+01  0.72355646496E+00  0.10742475283E+01  0.24913084157E+01  0.00000000000E+00 0. -1.
</event>
<event>
 7    1  0.4876728E-009  0.4778727E+02  0.7816164E-02  0.1312668E+00
        -11   -1    0    0    0    0  0.00000000000E+00  0.00000000000E+00  0.45593999997E+02  0.45594000000E+02  0.51100000000E-03 0. -1.
         11   -1    0    0    0    0 -0.00000000000E+00 -0.00000000000E+00 -0.45593999997E+02  0.45594000000E+02  0.51100000000E-03 0.  1.
    9900012    2    1    2    0    0 -0.21965086634E+02  0.24198218161E+02 -0.28558789964E+02  0.47787271006E+02  0.19999999824E+02 0.  0.
         12    1    1    2    0    0  0.21965086634E+02 -0.24198218161E+02  0.28558789964E+02  0.43400728994E+02  0.00000000000E+00 0. -1.
         11    1    3    3    0    0 -0.26559218774E+01  0.10050138028E+01  0.15316707406E+01  0.32264514999E+01  0.51100000000E-03 0. -1.
        -11    1    3    3    0    0 -0.20811734861E+02  0.23349431645E+02 -0.27988933870E+02  0.41972665932E+02  0.51100000000E-03 0.  1.
        -12    1    3    3    0    0  0.15025701042E+01 -0.15622728642E+00 -0.21015268350E+01  0.25881535737E+01  0.00000000000E+00 0.  1.
</event>
<event>
 7    1  0.4876728E-009  0.4778727E+02  0.7816164E-02  0.1312668E+00
        -11   -1    0    0    0    0  0.00000000000E+00  0.00000000000E+00  0.45593999997E+02  0.45594000000E+02  0.51100000000E-03 0.  1.
         11   -1    0    0    0    0 -0.00000000000E+00 -0.00000000000E+00 -0.45593999997E+02  0.45594000000E+02  0.51100000000E-03 0. -1.
    9900012    2    1    2    0    0  0.25507774565E+02 -0.32092952222E+02  0.14248479103E+02  0.47787270717E+02  0.19999998506E+02 0.  0.
         12    1    1    2    0    0 -0.25507774565E+02  0.32092952222E+02 -0.14248479103E+02  0.43400729283E+02  0.00000000000E+00 0. -1.
         11    1    3    3    0    0 -0.59436181153E+00 -0.12231320550E+01  0.46497126229E+01  0.48444964365E+01  0.51100000000E-03 0. -1.
        -11    1    3    3    0    0  0.18917701914E+02 -0.25956343529E+02  0.34871620099E+01  0.32307452921E+02  0.51100000000E-03 0.  1.
        -12    1    3    3    0    0  0.71844344627E+01 -0.49134766374E+01  0.61116044699E+01  0.10635321359E+02  0.00000000000E+00 0.  1.
</event>
<event>
 7    1  0.4876728E-009  0.4778727E+02  0.7816164E-02  0.1312668E+00
        -11   -1    0    0    0    0  0.00000000000E+00  0.00000000000E+00  0.45593999997E+02  0.45594000000E+02  0.51100000000E-03 0.  1.
         11   -1    0    0    0    0 -0.00000000000E+00 -0.00000000000E+00 -0.45593999997E+02  0.45594000000E+02  0.51100000000E-03 0. -1.
    9900012    2    1    2    0    0  0.28146301227E+02  0.39547832358E+01  0.32798913089E+02  0.47787270939E+02  0.19999999519E+02 0.  0.
         12    1    1    2    0    0 -0.28146301227E+02 -0.39547832358E+01 -0.32798913089E+02  0.43400729061E+02  0.00000000000E+00 0. -1.
         11    1    3    3    0    0  0.11452810447E+02 -0.83876539809E+00  0.22571300685E+01  0.11703206011E+02  0.51100000000E-03 0. -1.
        -11    1    3    3    0    0  0.15380821276E+02  0.57519532091E+01  0.22358241529E+02  0.27740684804E+02  0.51100000000E-03 0.  1.
         12    1    3    3    0    0  0.13126695042E+01 -0.95840457525E+00  0.81835414912E+01  0.83433801241E+01  0.00000000000E+00 0. -1.
</event>
<event>
 7    1  0.4876728E-009  0.4778727E+02  0.7816164E-02  0.1312668E+00
        -11   -1    0    0    0    0  0.00000000000E+00  0.00000000000E+00  0.45593999997E+02  0.45594000000E+02  0.51100000000E-03 0.  1.
         11   -1    0    0    0    0 -0.00000000000E+00 -0.00000000000E+00 -0.45593999997E+02  0.45594000000E+02  0.51100000000E-03 0. -1.
    9900012    2    1    2    0    0  0.36559631978E+02  0.79092542525E+01  0.22010453004E+02  0.47787273801E+02  0.20000012568E+02 0.  0.
         12    1    1    2    0    0 -0.36559631978E+02 -0.79092542525E+01 -0.22010453004E+02  0.43400726199E+02  0.00000000000E+00 0. -1.
         11    1    3    3    0    0  0.27294173815E+02  0.42158790828E+01  0.90829244098E+01  0.29073098851E+02  0.51100000000E-03 0. -1.
        -11    1    3    3    0    0  0.77976825526E+01  0.15640809397E+01  0.30731703734E+01  0.85261115863E+01  0.51100000000E-03 0.  1.
         12    1    3    3    0    0  0.14677756099E+01  0.21292942299E+01  0.98543582209E+01  0.10188063364E+02  0.00000000000E+00 0. -1.
</event>
<event>
 7    1  0.4876728E-009  0.4778727E+02  0.7816164E-02  0.1312668E+00
        -11   -1    0    0    0    0  0.00000000000E+00  0.00000000000E+00  0.45593999997E+02  0.45594000000E+02  0.51100000000E-03 0. -1.
         11   -1    0    0    0    0 -0.00000000000E+00 -0.00000000000E+00 -0.45593999997E+02  0.45594000000E+02  0.51100000000E-03 0.  1.
    9900012    2    1    2    0    0  0.34564474162E+02  0.25635501193E+02 -0.56339527039E+01  0.47787271682E+02  0.20000002905E+02 0.  0.
         12    1    1    2    0    0 -0.34564474162E+02 -0.25635501193E+02  0.56339527039E+01  0.43400728318E+02  0.00000000000E+00 0. -1.
         11    1    3    3    0    0 -0.23591511982E+01  0.36222863345E+01  0.46096011330E+00  0.43473022844E+01  0.51100000000E-03 0. -1.
        -11    1    3    3    0    0  0.25666044621E+02  0.15095864922E+02 -0.48458215982E+01  0.30168078683E+02  0.51100000000E-03 0.  1.
         12    1    3    3    0    0  0.11257580739E+02  0.69173499371E+01 -0.12490912189E+01  0.13271890714E+02  0.00000000000E+00 0. -1.
</event>
<event>
 7    1  0.4876728E-009  0.4778727E+02  0.7816164E-02  0.1312668E+00
        -11   -1    0    0    0    0  0.00000000000E+00  0.00000000000E+00  0.45593999997E+02  0.45594000000E+02  0.51100000000E-03 0.  1.
         11   -1    0    0    0    0 -0.00000000000E+00 -0.00000000000E+00 -0.45593999997E+02  0.45594000000E+02  0.51100000000E-03 0. -1.
    9900012    2    1    2    0    0 -0.21706372229E+02  0.35151283555E+02  0.13298266047E+02  0.47787271771E+02  0.20000003313E+02 0.  0.
         12    1    1    2    0    0  0.21706372229E+02 -0.35151283555E+02 -0.13298266047E+02  0.43400728229E+02  0.00000000000E+00 0. -1.
         11    1    3    3    0    0  0.12009341335E+01  0.62955579634E+01 -0.20643980387E+01  0.67333522399E+01  0.51100000000E-03 0. -1.
        -11    1    3    3    0    0 -0.11423328664E+02  0.15360429258E+02  0.13086432566E+02  0.23188142278E+02  0.51100000000E-03 0.  1.
         12    1    3    3    0    0 -0.11483977698E+02  0.13495296334E+02  0.22762315201E+01  0.17865777253E+02  0.00000000000E+00 0. -1.
</event>
<event>
 7    1  0.4876728E-009  0.4778728E+02  0.7816164E-02  0.1312668E+00
        -11   -1    0    0    0    0  0.00000000000E+00  0.00000000000E+00  0.45593999997E+02  0.45594000000E+02  0.51100000000E-03 0.  1.
         11   -1    0    0    0    0 -0.00000000000E+00 -0.00000000000E+00 -0.45593999997E+02  0.45594000000E+02  0.51100000000E-03 0. -1.
    9900012    2    1    2    0    0 -0.42275220710E+02  0.62433807787E+01  0.75794978778E+01  0.47787275609E+02  0.20000020811E+02 0.  0.
         12    1    1    2    0    0  0.42275220710E+02 -0.62433807787E+01 -0.75794978778E+01  0.43400724391E+02  0.00000000000E+00 0. -1.
         11    1    3    3    0    0 -0.13221743962E+02 -0.60924040223E+01 -0.47511497440E+00  0.14565631969E+02  0.51100000000E-03 0. -1.
        -11    1    3    3    0    0 -0.15491171193E+02  0.62809355390E+01  0.75987701830E+01  0.18362130724E+02  0.51100000000E-03 0.  1.
        -12    1    3    3    0    0 -0.13562305555E+02  0.60548492621E+01  0.45584266914E+00  0.14859512916E+02  0.00000000000E+00 0.  1.
</event>
<event>
 7    1  0.4876728E-009  0.4778728E+02  0.7816164E-02  0.1312668E+00
        -11   -1    0    0    0    0  0.00000000000E+00  0.00000000000E+00  0.45593999997E+02  0.45594000000E+02  0.51100000000E-03 0.  1.
         11   -1    0    0    0    0 -0.00000000000E+00 -0.00000000000E+00 -0.45593999997E+02  0.45594000000E+02  0.51100000000E-03 0. -1.
    9900012    2    1    2    0    0 -0.12987022447E+02 -0.11097491349E+02  0.39897438548E+02  0.47787278014E+02  0.20000031775E+02 0.  0.
         12    1    1    2    0    0  0.12987022447E+02  0.11097491349E+02 -0.39897438548E+02  0.43400721986E+02  0.00000000000E+00 0. -1.
         11    1    3    3    0    0 -0.56378391365E+01 -0.10824703206E+01  0.22856286897E+02  0.23566222080E+02  0.51100000000E-03 0. -1.
        -11    1    3    3    0    0  0.30075845738E+01 -0.31020880032E+01  0.22014378134E+01  0.48492106219E+01  0.51100000000E-03 0.  1.
        -12    1    3    3    0    0 -0.10356767884E+02 -0.69129330253E+01  0.14839713837E+02  0.19371845312E+02  0.00000000000E+00 0.  1.
</event>
<event>
 7    1  0.4876728E-009  0.4778727E+02  0.7816164E-02  0.1312668E+00
        -11   -1    0    0    0    0  0.00000000000E+00  0.00000000000E+00  0.45593999997E+02  0.45594000000E+02  0.51100000000E-03 0.  1.
         11   -1    0    0    0    0 -0.00000000000E+00 -0.00000000000E+00 -0.45593999997E+02  0.45594000000E+02  0.51100000000E-03 0. -1.
    9900012    2    1    2    0    0  0.21535522184E+02  0.20856870431E+02  0.31382089353E+02  0.47787270835E+02  0.19999999043E+02 0.  0.
         12    1    1    2    0    0 -0.21535522184E+02 -0.20856870431E+02 -0.31382089353E+02  0.43400729165E+02  0.00000000000E+00 0. -1.
         11    1    3    3    0    0 -0.12958713817E+01  0.83206832634E+01  0.43542292443E+01  0.94801036482E+01  0.51100000000E-03 0. -1.
        -11    1    3    3    0    0  0.18727285401E+02  0.71228988055E+01  0.17480935479E+02  0.26590035941E+02  0.51100000000E-03 0.  1.
        -12    1    3    3    0    0  0.41041081646E+01  0.54132883624E+01  0.95469246302E+01  0.11717131245E+02  0.00000000000E+00 0.  1.
</event>
<event>
 7    1  0.4876728E-009  0.4778728E+02  0.7816164E-02  0.1312668E+00
        -11   -1    0    0    0    0  0.00000000000E+00  0.00000000000E+00  0.45593999997E+02  0.45594000000E+02  0.51100000000E-03 0. -1.
         11   -1    0    0    0    0 -0.00000000000E+00 -0.00000000000E+00 -0.45593999997E+02  0.45594000000E+02  0.51100000000E-03 0.  1.
    9900012    2    1    2    0    0 -0.42400985830E+02  0.83127100878E+01 -0.40838499347E+01  0.47787279053E+02  0.20000036516E+02 0.  0.
         12    1    1    2    0    0  0.42400985830E+02 -0.83127100878E+01  0.40838499347E+01  0.43400720947E+02  0.00000000000E+00 0. -1.
         11    1    3    3    0    0 -0.44652427122E+01 -0.32665507196E+01 -0.20647452580E+01  0.59052450689E+01  0.51100000000E-03 0. -1.
        -11    1    3    3    0    0 -0.29085431861E+02  0.14331132448E+02 -0.29953549238E+01  0.32562491538E+02  0.51100000000E-03 0.  1.
        -12    1    3    3    0    0 -0.88503112570E+01 -0.27518716401E+01  0.97625024708E+00  0.93195424467E+01  0.00000000000E+00 0.  1.
</event>
<event>
 7    1  0.4876728E-009  0.4778727E+02  0.7816164E-02  0.1312668E+00
        -11   -1    0    0    0    0  0.00000000000E+00  0.00000000000E+00  0.45593999997E+02  0.45594000000E+02  0.51100000000E-03 0.  1.
         11   -1    0    0    0    0 -0.00000000000E+00 -0.00000000000E+00 -0.45593999997E+02  0.45594000000E+02  0.51100000000E-03 0. -1.
    9900012    2    1    2    0    0  0.37944166820E+02  0.15120251947E+02  0.14671112965E+02  0.47787269934E+02  0.19999994937E+02 0.  0.
         12    1    1    2    0    0 -0.37944166820E+02 -0.15120251947E+02 -0.14671112965E+02  0.43400730066E+02  0.00000000000E+00 0. -1.
         11    1    3    3    0    0  0.11454651683E+02  0.13159627194E+02  0.84993763730E+01  0.19406808910E+02  0.51100000000E-03 0. -1.
        -11    1    3    3    0    0  0.22650925644E+02  0.44131025526E+01  0.58898430477E+01  0.23816594174E+02  0.51100000000E-03 0.  1.
         12    1    3    3    0    0  0.38385894933E+01 -0.24524777997E+01  0.28189354420E+00  0.45638668502E+01  0.00000000000E+00 0. -1.
</event>
<event>
 7    1  0.4876728E-009  0.4778727E+02  0.7816164E-02  0.1312668E+00
        -11   -1    0    0    0    0  0.00000000000E+00  0.00000000000E+00  0.45593999997E+02  0.45594000000E+02  0.51100000000E-03 0.  1.
         11   -1    0    0    0    0 -0.00000000000E+00 -0.00000000000E+00 -0.45593999997E+02  0.45594000000E+02  0.51100000000E-03 0. -1.
    9900012    2    1    2    0    0 -0.86152294676E+01  0.18910495596E+02  0.38102414381E+02  0.47787274152E+02  0.20000014171E+02 0.  0.
         12    1    1    2    0    0  0.86152294676E+01 -0.18910495596E+02 -0.38102414381E+02  0.43400725848E+02  0.00000000000E+00 0. -1.
         11    1    3    3    0    0  0.40762600097E+01  0.36546753900E+01  0.16233857576E+01  0.57103353187E+01  0.51100000000E-03 0. -1.
        -11    1    3    3    0    0 -0.83600890769E+01  0.50518686690E+01  0.14884616022E+02  0.17803490130E+02  0.51100000000E-03 0.  1.
         12    1    3    3    0    0 -0.43314004004E+01  0.10203951537E+02  0.21594412601E+02  0.24273448704E+02  0.00000000000E+00 0. -1.
</event>
<event>
 7    1  0.4876728E-009  0.4778728E+02  0.7816164E-02  0.1312668E+00
        -11   -1    0    0    0    0  0.00000000000E+00  0.00000000000E+00  0.45593999997E+02  0.45594000000E+02  0.51100000000E-03 0.  1.
         11   -1    0    0    0    0 -0.00000000000E+00 -0.00000000000E+00 -0.45593999997E+02  0.45594000000E+02  0.51100000000E-03 0. -1.
    9900012    2    1    2    0    0  0.49640703653E+00  0.38734357891E+02  0.19571031065E+02  0.47787283898E+02  0.20000058604E+02 0.  0.
         12    1    1    2    0    0 -0.49640703653E+00 -0.38734357891E+02 -0.19571031065E+02  0.43400716102E+02  0.00000000000E+00 0. -1.
         11    1    3    3    0    0 -0.53868641668E+01  0.35550474776E+02  0.18959932851E+02  0.40648906706E+02  0.51100000000E-03 0.  1.
        -11    1    3    3    0    0  0.44332518872E+01  0.12721767394E+01  0.96773070347E+00  0.47126063836E+01  0.51100000000E-03 0. -1.
         12    1    3    3    0    0  0.14500193162E+01  0.19117063758E+01 -0.35663248942E+00  0.24257708088E+01  0.00000000000E+00 0. -1.
</event>
<event>
 7    1  0.4876728E-009  0.4778727E+02  0.7816164E-02  0.1312668E+00
        -11   -1    0    0    0    0  0.00000000000E+00  0.00000000000E+00  0.45593999997E+02  0.45594000000E+02  0.51100000000E-03 0.  1.
         11   -1    0    0    0    0 -0.00000000000E+00 -0.00000000000E+00 -0.45593999997E+02  0.45594000000E+02  0.51100000000E-03 0. -1.
    9900012    2    1    2    0    0 -0.37555063330E+02  0.17944069812E+02  0.12298401362E+02  0.47787273056E+02  0.20000009173E+02 0.  0.
         12    1    1    2    0    0  0.37555063330E+02 -0.17944069812E+02 -0.12298401362E+02  0.43400726944E+02  0.00000000000E+00 0. -1.
         11    1    3    3    0    0 -0.18981042758E+02  0.17024971417E+02  0.56381407114E+01  0.26113564806E+02  0.51100000000E-03 0. -1.
        -11    1    3    3    0    0 -0.88461919885E+01  0.19151261191E+01  0.76420848220E+01  0.11845855032E+02  0.51100000000E-03 0.  1.
         12    1    3    3    0    0 -0.97278285841E+01 -0.99602772392E+00 -0.98182417089E+00  0.98278532189E+01  0.00000000000E+00 0. -1.
</event>
<event>
 7    1  0.4876728E-009  0.4778727E+02  0.7816164E-02  0.1312668E+00
        -11   -1    0    0    0    0  0.00000000000E+00  0.00000000000E+00  0.45593999997E+02  0.45594000000E+02  0.51100000000E-03 0.  1.
         11   -1    0    0    0    0 -0.00000000000E+00 -0.00000000000E+00 -0.45593999997E+02  0.45594000000E+02  0.51100000000E-03 0. -1.
    9900012    2    1    2    0    0  0.35710668651E+01 -0.30695999412E+02  0.30473369756E+02  0.47787272325E+02  0.20000005837E+02 0.  0.
         12    1    1    2    0    0 -0.35710668651E+01  0.30695999412E+02 -0.30473369756E+02  0.43400727675E+02  0.00000000000E+00 0. -1.
         11    1    3    3    0    0 -0.19543481632E+01 -0.24056832245E+02  0.25244059432E+02  0.34925824132E+02  0.51100000000E-03 0.  1.
        -11    1    3    3    0    0  0.63968019166E+01 -0.30322659253E+01  0.57426160591E+01  0.91154457305E+01  0.51100000000E-03 0. -1.
        -12    1    3    3    0    0 -0.87138688831E+00 -0.36069012410E+01 -0.51330573460E+00  0.37460024625E+01  0.00000000000E+00 0.  1.
</event>
<event>
 7    1  0.4876728E-009  0.4778727E+02  0.7816164E-02  0.1312668E+00
        -11   -1    0    0    0    0  0.00000000000E+00  0.00000000000E+00  0.45593999997E+02  0.45594000000E+02  0.51100000000E-03 0.  1.
         11   -1    0    0    0    0 -0.00000000000E+00 -0.00000000000E+00 -0.45593999997E+02  0.45594000000E+02  0.51100000000E-03 0. -1.
    9900012    2    1    2    0    0  0.13628408954E+02  0.84303609138E+01  0.40333841192E+02  0.47787271192E+02  0.20000000672E+02 0.  0.
         12    1    1    2    0    0 -0.13628408954E+02 -0.84303609138E+01 -0.40333841192E+02  0.43400728808E+02  0.00000000000E+00 0. -1.
         11    1    3    3    0    0  0.96943330517E+01  0.11927909109E+01  0.29097881046E+02  0.30693476915E+02  0.51100000000E-03 0. -1.
        -11    1    3    3    0    0  0.49529972298E+01 -0.55747641648E+00  0.37395570957E+01  0.62311515025E+01  0.51100000000E-03 0.  1.
         12    1    3    3    0    0 -0.10189213276E+01  0.77950464194E+01  0.74964030506E+01  0.10862642775E+02  0.00000000000E+00 0. -1.
</event>
<event>
 7    1  0.4876728E-009  0.4778726E+02  0.7816164E-02  0.1312668E+00
        -11   -1    0    0    0    0  0.00000000000E+00  0.00000000000E+00  0.45593999997E+02  0.45594000000E+02  0.51100000000E-03 0. -1.
         11   -1    0    0    0    0 -0.00000000000E+00 -0.00000000000E+00 -0.45593999997E+02  0.45594000000E+02  0.51100000000E-03 0.  1.
    9900012    2    1    2    0    0  0.22528075022E+02 -0.35119694457E+02  0.11946425464E+02  0.47787260556E+02  0.19999952178E+02 0.  0.
         12    1    1    2    0    0 -0.22528075022E+02  0.35119694457E+02 -0.11946425464E+02  0.43400739444E+02  0.00000000000E+00 0. -1.
         11    1    3    3    0    0  0.39828758743E+00 -0.17860381206E+01  0.38371928631E+01  0.42511897747E+01  0.51100000000E-03 0.  1.
        -11    1    3    3    0    0  0.16930608969E+01 -0.11385842653E+02  0.71103533621E+01  0.13530003449E+02  0.51100000000E-03 0. -1.
        -12    1    3    3    0    0  0.20436726538E+02 -0.21947813683E+02  0.99887923905E+00  0.30006067332E+02  0.00000000000E+00 0.  1.
</event>
<event>
 7    1  0.4876728E-009  0.4778727E+02  0.7816164E-02  0.1312668E+00
        -11   -1    0    0    0    0  0.00000000000E+00  0.00000000000E+00  0.45593999997E+02  0.45594000000E+02  0.51100000000E-03 0.  1.
         11   -1    0    0    0    0 -0.00000000000E+00 -0.00000000000E+00 -0.45593999997E+02  0.45594000000E+02  0.51100000000E-03 0. -1.
    9900012    2    1    2    0    0 -0.41375399744E+02 -0.13011438765E+02 -0.15498229051E+01  0.47787271968E+02  0.20000004211E+02 0.  0.
         12    1    1    2    0    0  0.41375399744E+02  0.13011438765E+02  0.15498229051E+01  0.43400728032E+02  0.00000000000E+00 0. -1.
         11    1    3    3    0    0 -0.18408927853E+02 -0.57985270600E+01 -0.37154297694E+01  0.19654922015E+02  0.51100000000E-03 0. -1.
        -11    1    3    3    0    0 -0.18108498903E+02  0.76717794359E+00  0.41212529942E+01  0.18587388763E+02  0.51100000000E-03 0.  1.
        -12    1    3    3    0    0 -0.48579729874E+01 -0.79800896483E+01 -0.19556461299E+01  0.95449611905E+01  0.00000000000E+00 0.  1.
</event>
<event>
 7    1  0.4876728E-009  0.4778727E+02  0.7816164E-02  0.1312668E+00
        -11   -1    0    0    0    0  0.00000000000E+00  0.00000000000E+00  0.45593999997E+02  0.45594000000E+02  0.51100000000E-03 0. -1.
         11   -1    0    0    0    0 -0.00000000000E+00 -0.00000000000E+00 -0.45593999997E+02  0.45594000000E+02  0.51100000000E-03 0.  1.
    9900012    2    1    2    0    0 -0.25938049837E+02 -0.31184021271E+02  0.15440132929E+02  0.47787270549E+02  0.19999997740E+02 0.  0.
         12    1    1    2    0    0  0.25938049837E+02  0.31184021271E+02 -0.15440132929E+02  0.43400729451E+02  0.00000000000E+00 0. -1.
         11    1    3    3    0    0 -0.12883169626E+02 -0.46617349072E+01  0.62087842773E+01  0.15041836138E+02  0.51100000000E-03 0. -1.
        -11    1    3    3    0    0 -0.26569818563E+01 -0.12730412181E+02 -0.31899105082E+00  0.13008639531E+02  0.51100000000E-03 0.  1.
        -12    1    3    3    0    0 -0.10397898355E+02 -0.13791874183E+02  0.95503397029E+01  0.19736794880E+02  0.00000000000E+00 0.  1.
</event>
<event>
 7    1  0.4876728E-009  0.4778727E+02  0.7816164E-02  0.1312668E+00
        -11   -1    0    0    0    0  0.00000000000E+00  0.00000000000E+00  0.45593999997E+02  0.45594000000E+02  0.51100000000E-03 0.  1.
         11   -1    0    0    0    0 -0.00000000000E+00 -0.00000000000E+00 -0.45593999997E+02  0.45594000000E+02  0.51100000000E-03 0. -1.
    9900012    2    1    2    0    0  0.13849695562E+02  0.77580668777E+01  0.40393336739E+02  0.47787270493E+02  0.19999997487E+02 0.  0.
         12    1    1    2    0    0 -0.13849695562E+02 -0.77580668777E+01 -0.40393336739E+02  0.43400729507E+02  0.00000000000E+00 0. -1.
         11    1    3    3    0    0 -0.11194789246E+00  0.78452140906E+01  0.97961122722E+01  0.12550845883E+02  0.51100000000E-03 0. -1.
        -11    1    3    3    0    0  0.10612237180E+02  0.11187934344E+01  0.11026413826E+02  0.15344480403E+02  0.51100000000E-03 0.  1.
        -12    1    3    3    0    0  0.33494062739E+01 -0.12059406473E+01  0.19570810640E+02  0.19891944208E+02  0.00000000000E+00 0.  1.
</event>
<event>
 7    1  0.4876728E-009  0.4778727E+02  0.7816164E-02  0.1312668E+00
        -11   -1    0    0    0    0  0.00000000000E+00  0.00000000000E+00  0.45593999997E+02  0.45594000000E+02  0.51100000000E-03 0.  1.
         11   -1    0    0    0    0 -0.00000000000E+00 -0.00000000000E+00 -0.45593999997E+02  0.45594000000E+02  0.51100000000E-03 0. -1.
    9900012    2    1    2    0    0 -0.15450785866E+02  0.11420218964E+02  0.38916258413E+02  0.47787270122E+02  0.19999995795E+02 0.  0.
         12    1    1    2    0    0  0.15450785866E+02 -0.11420218964E+02 -0.38916258413E+02  0.43400729878E+02  0.00000000000E+00 0. -1.
         11    1    3    3    0    0 -0.98758073982E+00 -0.20654442118E+01 -0.50166810088E+00  0.23437249528E+01  0.51100000000E-03 0. -1.
        -11    1    3    3    0    0 -0.11720743139E+02  0.11151249743E+02  0.20144638993E+02  0.25836653634E+02  0.51100000000E-03 0.  1.
        -12    1    3    3    0    0 -0.27424619869E+01  0.23344134322E+01  0.19273287521E+02  0.19606891535E+02  0.00000000000E+00 0.  1.
</event>
<event>
 7    1  0.4876728E-009  0.4778727E+02  0.7816164E-02  0.1312668E+00
        -11   -1    0    0    0    0  0.00000000000E+00  0.00000000000E+00  0.45593999997E+02  0.45594000000E+02  0.51100000000E-03 0.  1.
         11   -1    0    0    0    0 -0.00000000000E+00 -0.00000000000E+00 -0.45593999997E+02  0.45594000000E+02  0.51100000000E-03 0. -1.
    9900012    2    1    2    0    0  0.62546277029E+01  0.26399780278E+02  0.33875568841E+02  0.47787274998E+02  0.20000018027E+02 0.  0.
         12    1    1    2    0    0 -0.62546277029E+01 -0.26399780278E+02 -0.33875568841E+02  0.43400725002E+02  0.00000000000E+00 0. -1.
         11    1    3    3    0    0  0.99640465669E+00 -0.71430703446E-01 -0.47720586701E-01  0.10001010453E+01  0.51100000000E-03 0. -1.
        -11    1    3    3    0    0  0.82967902190E+01  0.60840425740E+01  0.18030243830E+02  0.20759142439E+02  0.51100000000E-03 0.  1.
        -12    1    3    3    0    0 -0.30385671727E+01  0.20387168407E+02  0.15893045597E+02  0.26028031514E+02  0.00000000000E+00 0.  1.
</event>
<event>
 7    1  0.4876728E-009  0.4778728E+02  0.7816164E-02  0.1312668E+00
        -11   -1    0    0    0    0  0.00000000000E+00  0.00000000000E+00  0.45593999997E+02  0.45594000000E+02  0.51100000000E-03 0.  1.
         11   -1    0    0    0    0 -0.00000000000E+00 -0.00000000000E+00 -0.45593999997E+02  0.45594000000E+02  0.51100000000E-03 0. -1.
    9900012    2    1    2    0    0  0.94432736994E+01 -0.38696763552E+02  0.17233907369E+02  0.47787280066E+02  0.20000041135E+02 0.  0.
         12    1    1    2    0    0 -0.94432736994E+01  0.38696763552E+02 -0.17233907369E+02  0.43400719934E+02  0.00000000000E+00 0. -1.
         11    1    3    3    0    0  0.27643214459E+01 -0.30899795529E+02  0.99800852913E+01  0.32588969598E+02  0.51100000000E-03 0.  1.
        -11    1    3    3    0    0  0.11182429230E+01 -0.29493106575E+01 -0.17110461872E+01  0.35883951713E+01  0.51100000000E-03 0. -1.
         12    1    3    3    0    0  0.55607093305E+01 -0.48476573651E+01  0.89648682648E+01  0.11609915297E+02  0.00000000000E+00 0. -1.
</event>
<event>
 7    1  0.4876728E-009  0.4778727E+02  0.7816164E-02  0.1312668E+00
        -11   -1    0    0    0    0  0.00000000000E+00  0.00000000000E+00  0.45593999997E+02  0.45594000000E+02  0.51100000000E-03 0.  1.
         11   -1    0    0    0    0 -0.00000000000E+00 -0.00000000000E+00 -0.45593999997E+02  0.45594000000E+02  0.51100000000E-03 0. -1.
    9900012    2    1    2    0    0 -0.22285567977E+02 -0.19053580352E+02  0.31999030370E+02  0.47787269489E+02  0.19999992906E+02 0.  0.
         12    1    1    2    0    0  0.22285567977E+02  0.19053580352E+02 -0.31999030370E+02  0.43400730511E+02  0.00000000000E+00 0. -1.
         11    1    3    3    0    0 -0.38601709600E+01 -0.56645622020E+01  0.94128801243E+01  0.11644333269E+02  0.51100000000E-03 0. -1.
        -11    1    3    3    0    0 -0.16369192875E+02 -0.37891342158E+01  0.19737077824E+02  0.25920267259E+02  0.51100000000E-03 0.  1.
        -12    1    3    3    0    0 -0.20562041425E+01 -0.95998839337E+01  0.28490724221E+01  0.10222668961E+02  0.00000000000E+00 0.  1.
</event>
<event>
 7    1  0.4876728E-009  0.4778728E+02  0.7816164E-02  0.1312668E+00
        -11   -1    0    0    0    0  0.00000000000E+00  0.00000000000E+00  0.45593999997E+02  0.45594000000E+02  0.51100000000E-03 0.  1.
         11   -1    0    0    0    0 -0.00000000000E+00 -0.00000000000E+00 -0.45593999997E+02  0.45594000000E+02  0.51100000000E-03 0. -1.
    9900012    2    1    2    0    0 -0.25870572960E+02 -0.33158996014E+02  0.10715259984E+02  0.47787281591E+02  0.20000048086E+02 0.  0.
         12    1    1    2    0    0  0.25870572960E+02  0.33158996014E+02 -0.10715259984E+02  0.43400718409E+02  0.00000000000E+00 0. -1.
         11    1    3    3    0    0 -0.17606996010E+01 -0.13045600274E+01 -0.21336354243E+01  0.30584866086E+01  0.51100000000E-03 0. -1.
        -11    1    3    3    0    0 -0.14025908487E+02 -0.25256844905E+02  0.14898269861E+02  0.32505272935E+02  0.51100000000E-03 0.  1.
        -12    1    3    3    0    0 -0.10083964871E+02 -0.65975910813E+01 -0.20493744525E+01  0.12223522048E+02  0.00000000000E+00 0.  1.
</event>
<event>
 7    1  0.4876728E-009  0.4778725E+02  0.7816164E-02  0.1312668E+00
        -11   -1    0    0    0    0  0.00000000000E+00  0.00000000000E+00  0.45593999997E+02  0.45594000000E+02  0.51100000000E-03 0. -1.
         11   -1    0    0    0    0 -0.00000000000E+00 -0.00000000000E+00 -0.45593999997E+02  0.45594000000E+02  0.51100000000E-03 0.  1.
    9900012    2    1    2    0    0 -0.27184730133E+02 -0.17297743204E+02  0.29075821358E+02  0.47787252771E+02  0.19999916685E+02 0.  0.
         12    1    1    2    0    0  0.27184730133E+02  0.17297743204E+02 -0.29075821358E+02  0.43400747229E+02  0.00000000000E+00 0. -1.
         11    1    3    3    0    0 -0.51550867289E+01 -0.83137148444E+01  0.68968921088E+01  0.11969122554E+02  0.51100000000E-03 0. -1.
        -11    1    3    3    0    0 -0.62077615543E+01  0.31988179075E+01  0.10723099147E+02  0.12796624363E+02  0.51100000000E-03 0.  1.
        -12    1    3    3    0    0 -0.15821881850E+02 -0.12182846267E+02  0.11455830103E+02  0.23021505854E+02  0.00000000000E+00 0.  1.
</event>
<event>
 7    1  0.4876728E-009  0.4778729E+02  0.7816164E-02  0.1312668E+00
        -11   -1    0    0    0    0  0.00000000000E+00  0.00000000000E+00  0.45593999997E+02  0.45594000000E+02  0.51100000000E-03 0. -1.
         11   -1    0    0    0    0 -0.00000000000E+00 -0.00000000000E+00 -0.45593999997E+02  0.45594000000E+02  0.51100000000E-03 0.  1.
    9900012    2    1    2    0    0  0.34004784392E+02  0.26930745497E+02  0.14252946985E+01  0.47787287108E+02  0.20000073239E+02 0.  0.
         12    1    1    2    0    0 -0.34004784392E+02 -0.26930745497E+02 -0.14252946985E+01  0.43400712892E+02  0.00000000000E+00 0. -1.
         11    1    3    3    0    0  0.31416210310E+02  0.20636285975E+02  0.26280478602E+01  0.37679453352E+02  0.51100000000E-03 0.  1.
        -11    1    3    3    0    0 -0.20372175334E+01 -0.12411300659E+00  0.27439232295E+00  0.20593568716E+01  0.51100000000E-03 0. -1.
        -12    1    3    3    0    0  0.46257916152E+01  0.64185725290E+01 -0.14771454847E+01  0.80484768845E+01  0.00000000000E+00 0.  1.
</event>
<event>
 7    1  0.4876728E-009  0.4778727E+02  0.7816164E-02  0.1312668E+00
        -11   -1    0    0    0    0  0.00000000000E+00  0.00000000000E+00  0.45593999997E+02  0.45594000000E+02  0.51100000000E-03 0.  1.
         11   -1    0    0    0    0 -0.00000000000E+00 -0.00000000000E+00 -0.45593999997E+02  0.45594000000E+02  0.51100000000E-03 0. -1.
    9900012    2    1    2    0    0 -0.26282146970E+02 -0.16459066095E+02  0.30363985104E+02  0.47787266165E+02  0.19999977752E+02 0.  0.
         12    1    1    2    0    0  0.26282146970E+02  0.16459066095E+02 -0.30363985104E+02  0.43400733835E+02  0.00000000000E+00 0. -1.
         11    1    3    3    0    0 -0.68566866912E+00  0.23599690235E+01  0.30626143234E+01  0.39267291823E+01  0.51100000000E-03 0. -1.
        -11    1    3    3    0    0 -0.22832445713E+02 -0.20385804548E+02  0.26719584359E+02  0.40630503231E+02  0.51100000000E-03 0.  1.
        -12    1    3    3    0    0 -0.27640325883E+01  0.15667694292E+01  0.58178642140E+00  0.32300337511E+01  0.00000000000E+00 0.  1.
</event>
<event>
 7    1  0.4876728E-009  0.4778728E+02  0.7816164E-02  0.1312668E+00
        -11   -1    0    0    0    0  0.00000000000E+00  0.00000000000E+00  0.45593999997E+02  0.45594000000E+02  0.51100000000E-03 0.  1.
         11   -1    0    0    0    0 -0.00000000000E+00 -0.00000000000E+00 -0.45593999997E+02  0.45594000000E+02  0.51100000000E-03 0. -1.
    9900012    2    1    2    0    0  0.33616428477E+01  0.36126491102E+02  0.23815936277E+02  0.47787276241E+02  0.20000023695E+02 0.  0.
         12    1    1    2    0    0 -0.33616428477E+01 -0.36126491102E+02 -0.23815936277E+02  0.43400723759E+02  0.00000000000E+00 0. -1.
         11    1    3    3    0    0  0.75428120034E+01  0.70269029977E+01  0.90581922989E+01  0.13723054567E+02  0.51100000000E-03 0. -1.
        -11    1    3    3    0    0 -0.83227613025E+00  0.63124323698E+01  0.76658267471E+01  0.99651586017E+01  0.51100000000E-03 0.  1.
         12    1    3    3    0    0 -0.33488930254E+01  0.22787155735E+02  0.70919172315E+01  0.24099063073E+02  0.00000000000E+00 0. -1.
</event>
<event>
 7    1  0.4876728E-009  0.4778727E+02  0.7816164E-02  0.1312668E+00
        -11   -1    0    0    0    0  0.00000000000E+00  0.00000000000E+00  0.45593999997E+02  0.45594000000E+02  0.51100000000E-03 0.  1.
         11   -1    0    0    0    0 -0.00000000000E+00 -0.00000000000E+00 -0.45593999997E+02  0.45594000000E+02  0.51100000000E-03 0. -1.
    9900012    2    1    2    0    0  0.37971846195E+02  0.17847589396E+02  0.11100723914E+02  0.47787267032E+02  0.19999981708E+02 0.  0.
         12    1    1    2    0    0 -0.37971846195E+02 -0.17847589396E+02 -0.11100723914E+02  0.43400732968E+02  0.00000000000E+00 0. -1.
         11    1    3    3    0    0  0.12967227517E+02  0.57360346583E+01 -0.30060404888E+01  0.14494390734E+02  0.51100000000E-03 0. -1.
        -11    1    3    3    0    0  0.10884276959E+02  0.98422735904E+01  0.25254005721E+01  0.14890113588E+02  0.51100000000E-03 0.  1.
         12    1    3    3    0    0  0.14120341720E+02  0.22692811468E+01  0.11581363831E+02  0.18402762711E+02  0.00000000000E+00 0. -1.
</event>
<event>
 7    1  0.4876728E-009  0.4778727E+02  0.7816164E-02  0.1312668E+00
        -11   -1    0    0    0    0  0.00000000000E+00  0.00000000000E+00  0.45593999997E+02  0.45594000000E+02  0.51100000000E-03 0. -1.
         11   -1    0    0    0    0 -0.00000000000E+00 -0.00000000000E+00 -0.45593999997E+02  0.45594000000E+02  0.51100000000E-03 0.  1.
    9900012    2    1    2    0    0  0.38778549174E+02 -0.43010439784E+01 -0.19009173753E+02  0.47787267954E+02  0.19999985907E+02 0.  0.
         12    1    1    2    0    0 -0.38778549174E+02  0.43010439784E+01  0.19009173753E+02  0.43400732046E+02  0.00000000000E+00 0. -1.
         11    1    3    3    0    0  0.51344401656E+01 -0.40350987723E+01 -0.11226628382E+02  0.12987751269E+02  0.51100000000E-03 0. -1.
        -11    1    3    3    0    0  0.76258356830E+01 -0.13406896815E+01 -0.31055803416E+01  0.83423886391E+01  0.51100000000E-03 0.  1.
         12    1    3    3    0    0  0.26018273326E+02  0.10747444754E+01 -0.46769650294E+01  0.26457128046E+02  0.00000000000E+00 0. -1.
</event>
<event>
 7    1  0.4876728E-009  0.4778727E+02  0.7816164E-02  0.1312668E+00
        -11   -1    0    0    0    0  0.00000000000E+00  0.00000000000E+00  0.45593999997E+02  0.45594000000E+02  0.51100000000E-03 0.  1.
         11   -1    0    0    0    0 -0.00000000000E+00 -0.00000000000E+00 -0.45593999997E+02  0.45594000000E+02  0.51100000000E-03 0. -1.
    9900012    2    1    2    0    0  0.11802904045E+02 -0.24922155783E+02  0.33514196374E+02  0.47787265543E+02  0.19999974918E+02 0.  0.
         12    1    1    2    0    0 -0.11802904045E+02  0.24922155783E+02 -0.33514196374E+02  0.43400734457E+02  0.00000000000E+00 0. -1.
         11    1    3    3    0    0  0.85604560186E+01 -0.55235262916E+01  0.16132510006E+02  0.19080058419E+02  0.51100000000E-03 0. -1.
        -11    1    3    3    0    0  0.17589432545E+01 -0.10944770326E+02  0.22507340436E+01  0.11311396150E+02  0.51100000000E-03 0.  1.
        -12    1    3    3    0    0  0.14835047722E+01 -0.84538591656E+01  0.15130952325E+02  0.17395810974E+02  0.00000000000E+00 0.  1.
</event>
<event>
 7    1  0.4876728E-009  0.4778728E+02  0.7816164E-02  0.1312668E+00
        -11   -1    0    0    0    0  0.00000000000E+00  0.00000000000E+00  0.45593999997E+02  0.45594000000E+02  0.51100000000E-03 0. -1.
         11   -1    0    0    0    0 -0.00000000000E+00 -0.00000000000E+00 -0.45593999997E+02  0.45594000000E+02  0.51100000000E-03 0.  1.
    9900012    2    1    2    0    0  0.55597714967E+00  0.36290412415E+02  0.23797469776E+02  0.47787277522E+02  0.20000029534E+02 0.  0.
         12    1    1    2    0    0 -0.55597714967E+00 -0.36290412415E+02 -0.23797469776E+02  0.43400722478E+02  0.00000000000E+00 0. -1.
         11    1    3    3    0    0  0.47999836401E+01  0.19360218853E+02  0.10340898832E+02  0.22467578995E+02  0.51100000000E-03 0. -1.
        -11    1    3    3    0    0 -0.45067317434E+01  0.50770832932E+00  0.53181896334E+01  0.69893876694E+01  0.51100000000E-03 0.  1.
        -12    1    3    3    0    0  0.26272525303E+00  0.16422485233E+02  0.81383813110E+01  0.18330310858E+02  0.00000000000E+00 0.  1.
</event>
<event>
 7    1  0.4876728E-009  0.4778727E+02  0.7816164E-02  0.1312668E+00
        -11   -1    0    0    0    0  0.00000000000E+00  0.00000000000E+00  0.45593999997E+02  0.45594000000E+02  0.51100000000E-03 0.  1.
         11   -1    0    0    0    0 -0.00000000000E+00 -0.00000000000E+00 -0.45593999997E+02  0.45594000000E+02  0.51100000000E-03 0. -1.
    9900012    2    1    2    0    0 -0.49238105009E+01  0.43053217675E+02  0.24082968590E+01  0.47787270101E+02  0.19999995700E+02 0.  0.
         12    1    1    2    0    0  0.49238105009E+01 -0.43053217675E+02 -0.24082968590E+01  0.43400729899E+02  0.00000000000E+00 0. -1.
         11    1    3    3    0    0 -0.24489939669E+01  0.17983976115E+01 -0.15669283152E+01  0.34186356964E+01  0.51100000000E-03 0. -1.
        -11    1    3    3    0    0  0.46261079301E+01  0.10520417116E+02 -0.33782041240E+01  0.11978827749E+02  0.51100000000E-03 0.  1.
        -12    1    3    3    0    0 -0.71009244641E+01  0.30734402947E+02  0.73534292982E+01  0.32389806656E+02  0.00000000000E+00 0.  1.
</event>
<event>
 7    1  0.4876728E-009  0.4778727E+02  0.7816164E-02  0.1312668E+00
        -11   -1    0    0    0    0  0.00000000000E+00  0.00000000000E+00  0.45593999997E+02  0.45594000000E+02  0.51100000000E-03 0.  1.
         11   -1    0    0    0    0 -0.00000000000E+00 -0.00000000000E+00 -0.45593999997E+02  0.45594000000E+02  0.51100000000E-03 0. -1.
    9900012    2    1    2    0    0  0.13125516877E+02  0.16602157400E+02  0.37890799058E+02  0.47787268706E+02  0.19999989337E+02 0.  0.
         12    1    1    2    0    0 -0.13125516877E+02 -0.16602157400E+02 -0.37890799058E+02  0.43400731294E+02  0.00000000000E+00 0. -1.
         11    1    3    3    0    0  0.60402377811E+01 -0.79489923408E+00  0.90212528810E+01  0.10885740262E+02  0.51100000000E-03 0. -1.
        -11    1    3    3    0    0  0.39243751432E+01  0.15233602104E+02  0.12507995004E+02  0.20097594199E+02  0.51100000000E-03 0.  1.
         12    1    3    3    0    0  0.31609039531E+01  0.21634545303E+01  0.16361551173E+02  0.16803934245E+02  0.00000000000E+00 0. -1.
</event>
<event>
 7    1  0.4876728E-009  0.4778727E+02  0.7816164E-02  0.1312668E+00
        -11   -1    0    0    0    0  0.00000000000E+00  0.00000000000E+00  0.45593999997E+02  0.45594000000E+02  0.51100000000E-03 0. -1.
         11   -1    0    0    0    0 -0.00000000000E+00 -0.00000000000E+00 -0.45593999997E+02  0.45594000000E+02  0.51100000000E-03 0.  1.
    9900012    2    1    2    0    0 -0.20402968927E+02 -0.35512882410E+02 -0.14358875422E+02  0.47787271187E+02  0.20000000651E+02 0.  0.
         12    1    1    2    0    0  0.20402968927E+02  0.35512882410E+02  0.14358875422E+02  0.43400728813E+02  0.00000000000E+00 0. -1.
         11    1    3    3    0    0 -0.14269572428E+01 -0.24144005561E+01  0.25782395974E+01  0.38095743464E+01  0.51100000000E-03 0. -1.
        -11    1    3    3    0    0 -0.48112967198E+01 -0.18454764386E+02 -0.13377569963E+02  0.23295627981E+02  0.51100000000E-03 0.  1.
        -12    1    3    3    0    0 -0.14164714964E+02 -0.14643717468E+02 -0.35595450562E+01  0.20682068860E+02  0.00000000000E+00 0.  1.
</event>
<event>
 7    1  0.4876728E-009  0.4778727E+02  0.7816164E-02  0.1312668E+00
        -11   -1    0    0    0    0  0.00000000000E+00  0.00000000000E+00  0.45593999997E+02  0.45594000000E+02  0.51100000000E-03 0. -1.
         11   -1    0    0    0    0 -0.00000000000E+00 -0.00000000000E+00 -0.45593999997E+02  0.45594000000E+02  0.51100000000E-03 0.  1.
    9900012    2    1    2    0    0 -0.17423823211E+02 -0.35938490470E+02 -0.16984062872E+02  0.47787272999E+02  0.20000008913E+02 0.  0.
         12    1    1    2    0    0  0.17423823211E+02  0.35938490470E+02  0.16984062872E+02  0.43400727001E+02  0.00000000000E+00 0. -1.
         11    1    3    3    0    0  0.14296536254E+01 -0.42318629592E+01  0.28581076763E+01  0.53029570377E+01  0.51100000000E-03 0. -1.
        -11    1    3    3    0    0 -0.12410732945E+02 -0.24441061034E+02 -0.17412097263E+02  0.32474188027E+02  0.51100000000E-03 0.  1.
         12    1    3    3    0    0 -0.64427438922E+01 -0.72655664765E+01 -0.24300732857E+01  0.10010127934E+02  0.00000000000E+00 0. -1.
</event>
<event>
 7    1  0.4876728E-009  0.4778726E+02  0.7816164E-02  0.1312668E+00
        -11   -1    0    0    0    0  0.00000000000E+00  0.00000000000E+00  0.45593999997E+02  0.45594000000E+02  0.51100000000E-03 0. -1.
         11   -1    0    0    0    0 -0.00000000000E+00 -0.00000000000E+00 -0.45593999997E+02  0.45594000000E+02  0.51100000000E-03 0.  1.
    9900012    2    1    2    0    0 -0.33975172822E+02 -0.27005674896E+02 -0.71557314086E-01  0.47787263079E+02  0.19999963680E+02 0.  0.
         12    1    1    2    0    0  0.33975172822E+02  0.27005674896E+02  0.71557314086E-01  0.43400736921E+02  0.00000000000E+00 0. -1.
         11    1    3    3    0    0  0.16963980171E+01 -0.37440945959E+01  0.22207508607E+01  0.46720172540E+01  0.51100000000E-03 0. -1.
        -11    1    3    3    0    0 -0.21476311800E+02 -0.13315993751E+02  0.17073786725E+01  0.25327115910E+02  0.51100000000E-03 0.  1.
         12    1    3    3    0    0 -0.14195259039E+02 -0.99455865490E+01 -0.39996868473E+01  0.17788129914E+02  0.00000000000E+00 0. -1.
</event>
<event>
 7    1  0.4876728E-009  0.4778727E+02  0.7816164E-02  0.1312668E+00
        -11   -1    0    0    0    0  0.00000000000E+00  0.00000000000E+00  0.45593999997E+02  0.45594000000E+02  0.51100000000E-03 0. -1.
         11   -1    0    0    0    0 -0.00000000000E+00 -0.00000000000E+00 -0.45593999997E+02  0.45594000000E+02  0.51100000000E-03 0.  1.
    9900012    2    1    2    0    0  0.27452532988E+02  0.25787863761E+02 -0.21563109344E+02  0.47787272248E+02  0.20000005489E+02 0.  0.
         12    1    1    2    0    0 -0.27452532988E+02 -0.25787863761E+02  0.21563109344E+02  0.43400727752E+02  0.00000000000E+00 0. -1.
         11    1    3    3    0    0  0.83636574683E+01 -0.69836215850E-01 -0.95632145541E+01  0.12704751718E+02  0.51100000000E-03 0. -1.
        -11    1    3    3    0    0  0.91769107403E+01  0.18398720334E+02 -0.76226218521E+01  0.21927903794E+02  0.51100000000E-03 0.  1.
         12    1    3    3    0    0  0.99119647790E+01  0.74589796430E+01 -0.43772729379E+01  0.13154616736E+02  0.00000000000E+00 0. -1.
</event>
<event>
 7    1  0.4876728E-009  0.4778727E+02  0.7816164E-02  0.1312668E+00
        -11   -1    0    0    0    0  0.00000000000E+00  0.00000000000E+00  0.45593999997E+02  0.45594000000E+02  0.51100000000E-03 0.  1.
         11   -1    0    0    0    0 -0.00000000000E+00 -0.00000000000E+00 -0.45593999997E+02  0.45594000000E+02  0.51100000000E-03 0. -1.
    9900012    2    1    2    0    0 -0.20219848558E+02 -0.38002536407E+02  0.55306806276E+01  0.47787268701E+02  0.19999989317E+02 0.  0.
         12    1    1    2    0    0  0.20219848558E+02  0.38002536407E+02 -0.55306806276E+01  0.43400731299E+02  0.00000000000E+00 0. -1.
         11    1    3    3    0    0 -0.12551289935E+02 -0.15179682479E+02  0.11603998037E+02  0.22860673872E+02  0.51100000000E-03 0. -1.
        -11    1    3    3    0    0 -0.73581399598E+01 -0.20915602629E+02 -0.60931176783E+01  0.22994145784E+02  0.51100000000E-03 0.  1.
         12    1    3    3    0    0 -0.31041866290E+00 -0.19072512988E+01  0.19800268906E-01  0.19324490455E+01  0.00000000000E+00 0. -1.
</event>
<event>
 7    1  0.5676862E-009  0.4778727E+02  0.7816164E-02  0.1312668E+00
        -11   -1    0    0    0    0  0.00000000000E+00  0.00000000000E+00  0.45593999997E+02  0.45594000000E+02  0.51100000000E-03 0. -1.
         11   -1    0    0    0    0 -0.00000000000E+00 -0.00000000000E+00 -0.45593999997E+02  0.45594000000E+02  0.51100000000E-03 0.  1.
    9900012    2    1    2    0    0 -0.30738297710E+02  0.42983283114E+01 -0.30336523873E+02  0.47787271284E+02  0.20000001092E+02 0.  0.
         12    1    1    2    0    0  0.30738297710E+02 -0.42983283114E+01  0.30336523873E+02  0.43400728716E+02  0.00000000000E+00 0. -1.
         11    1    3    3    0    0 -0.58330472809E+01  0.38126355961E+01 -0.45684973048E+00  0.69835050446E+01  0.51100000000E-03 0. -1.
        -11    1    3    3    0    0 -0.23777550659E+02  0.38157115018E+01 -0.27523372070E+02  0.36571403855E+02  0.51100000000E-03 0.  1.
         12    1    3    3    0    0 -0.11276997706E+01 -0.33300187866E+01 -0.23563020728E+01  0.42323623841E+01  0.00000000000E+00 0. -1.
</event>
<event>
 7    1  0.4876728E-009  0.4778726E+02  0.7816164E-02  0.1312668E+00
        -11   -1    0    0    0    0  0.00000000000E+00  0.00000000000E+00  0.45593999997E+02  0.45594000000E+02  0.51100000000E-03 0.  1.
         11   -1    0    0    0    0 -0.00000000000E+00 -0.00000000000E+00 -0.45593999997E+02  0.45594000000E+02  0.51100000000E-03 0. -1.
    9900012    2    1    2    0    0  0.12461269342E+02  0.40961265769E+02  0.71074144599E+01  0.47787264207E+02  0.19999968827E+02 0.  0.
         12    1    1    2    0    0 -0.12461269342E+02 -0.40961265769E+02 -0.71074144599E+01  0.43400735793E+02  0.00000000000E+00 0. -1.
         11    1    3    3    0    0  0.55506249729E+01  0.34650203474E+01 -0.31738379172E+01  0.72724858874E+01  0.51100000000E-03 0. -1.
        -11    1    3    3    0    0  0.74535756604E+01  0.30865668232E+02  0.11461500350E+02  0.33758128741E+02  0.51100000000E-03 0.  1.
         12    1    3    3    0    0 -0.54293129097E+00  0.66305771899E+01 -0.11802479731E+01  0.67566495792E+01  0.00000000000E+00 0. -1.
</event>
<event>
 7    1  0.4876728E-009  0.4778727E+02  0.7816164E-02  0.1312668E+00
        -11   -1    0    0    0    0  0.00000000000E+00  0.00000000000E+00  0.45593999997E+02  0.45594000000E+02  0.51100000000E-03 0.  1.
         11   -1    0    0    0    0 -0.00000000000E+00 -0.00000000000E+00 -0.45593999997E+02  0.45594000000E+02  0.51100000000E-03 0. -1.
    9900012    2    1    2    0    0 -0.38678789781E+02 -0.64247627034E+01 -0.18609064778E+02  0.47787266750E+02  0.19999980421E+02 0.  0.
         12    1    1    2    0    0  0.38678789781E+02  0.64247627034E+01  0.18609064778E+02  0.43400733250E+02  0.00000000000E+00 0. -1.
         11    1    3    3    0    0 -0.20910061531E+02 -0.13574923046E+01 -0.15762724105E+02  0.26220925423E+02  0.51100000000E-03 0. -1.
        -11    1    3    3    0    0 -0.14884549246E+02 -0.26504412512E+01  0.21932082727E+01  0.15276937124E+02  0.51100000000E-03 0.  1.
        -12    1    3    3    0    0 -0.28841790035E+01 -0.24168291476E+01 -0.50395489463E+01  0.62894042035E+01  0.00000000000E+00 0.  1.
</event>
<event>
 7    1  0.4876728E-009  0.4778727E+02  0.7816164E-02  0.1312668E+00
        -11   -1    0    0    0    0  0.00000000000E+00  0.00000000000E+00  0.45593999997E+02  0.45594000000E+02  0.51100000000E-03 0. -1.
         11   -1    0    0    0    0 -0.00000000000E+00 -0.00000000000E+00 -0.45593999997E+02  0.45594000000E+02  0.51100000000E-03 0.  1.
    9900012    2    1    2    0    0  0.29650424883E+02 -0.13503965094E+01 -0.31664682466E+02  0.47787269797E+02  0.19999994314E+02 0.  0.
         12    1    1    2    0    0 -0.29650424883E+02  0.13503965094E+01  0.31664682466E+02  0.43400730203E+02  0.00000000000E+00 0. -1.
         11    1    3    3    0    0  0.21838025890E+02  0.71591951690E+01 -0.20176119958E+02  0.30581518390E+02  0.51100000000E-03 0. -1.
        -11    1    3    3    0    0  0.66448796961E+01 -0.59069608209E+01 -0.51984183826E+01  0.10299037152E+02  0.51100000000E-03 0.  1.
         12    1    3    3    0    0  0.11675192973E+01 -0.26026308576E+01 -0.62901441251E+01  0.69067142553E+01  0.00000000000E+00 0. -1.
</event>
<event>
 7    1  0.4876728E-009  0.4778726E+02  0.7816164E-02  0.1312668E+00
        -11   -1    0    0    0    0  0.00000000000E+00  0.00000000000E+00  0.45593999997E+02  0.45594000000E+02  0.51100000000E-03 0.  1.
         11   -1    0    0    0    0 -0.00000000000E+00 -0.00000000000E+00 -0.45593999997E+02  0.45594000000E+02  0.51100000000E-03 0. -1.
    9900012    2    1    2    0    0  0.23972599282E+02  0.36043494379E+02  0.31313412451E+01  0.47787259207E+02  0.19999946029E+02 0.  0.
         12    1    1    2    0    0 -0.23972599282E+02 -0.36043494379E+02 -0.31313412451E+01  0.43400740793E+02  0.00000000000E+00 0. -1.
         11    1    3    3    0    0  0.17873595743E+02  0.22251486373E+02 -0.52219970089E+01  0.29014881072E+02  0.51100000000E-03 0. -1.
        -11    1    3    3    0    0  0.45796726179E+01  0.85725888290E+01  0.90643284110E+01  0.13290023714E+02  0.51100000000E-03 0.  1.
        -12    1    3    3    0    0  0.15193309205E+01  0.52194191774E+01 -0.71099015695E+00  0.54823544211E+01  0.00000000000E+00 0.  1.
</event>
<event>
 7    1  0.4876728E-009  0.4778727E+02  0.7816164E-02  0.1312668E+00
        -11   -1    0    0    0    0  0.00000000000E+00  0.00000000000E+00  0.45593999997E+02  0.45594000000E+02  0.51100000000E-03 0. -1.
         11   -1    0    0    0    0 -0.00000000000E+00 -0.00000000000E+00 -0.45593999997E+02  0.45594000000E+02  0.51100000000E-03 0.  1.
    9900012    2    1    2    0    0  0.50082355744E+01 -0.39376910058E+02 -0.17549933626E+02  0.47787266832E+02  0.19999980794E+02 0.  0.
         12    1    1    2    0    0 -0.50082355744E+01  0.39376910058E+02  0.17549933626E+02  0.43400733168E+02  0.00000000000E+00 0. -1.
         11    1    3    3    0    0  0.32630910826E+01 -0.11667216599E+02 -0.12252402715E+02  0.17230585571E+02  0.51100000000E-03 0. -1.
        -11    1    3    3    0    0 -0.45271932148E+01 -0.17685489503E+02 -0.27693959106E+01  0.18464603200E+02  0.51100000000E-03 0.  1.
         12    1    3    3    0    0  0.62723377066E+01 -0.10024203955E+02 -0.25281350002E+01  0.12092078060E+02  0.00000000000E+00 0. -1.
</event>
<event>
 7    1  0.4876728E-009  0.4778727E+02  0.7816164E-02  0.1312668E+00
        -11   -1    0    0    0    0  0.00000000000E+00  0.00000000000E+00  0.45593999997E+02  0.45594000000E+02  0.51100000000E-03 0.  1.
         11   -1    0    0    0    0 -0.00000000000E+00 -0.00000000000E+00 -0.45593999997E+02  0.45594000000E+02  0.51100000000E-03 0. -1.
    9900012    2    1    2    0    0  0.28037462427E+02  0.22074972229E+02  0.24702626062E+02  0.47787269215E+02  0.19999991661E+02 0.  0.
         12    1    1    2    0    0 -0.28037462427E+02 -0.22074972229E+02 -0.24702626062E+02  0.43400730785E+02  0.00000000000E+00 0. -1.
         11    1    3    3    0    0  0.13349449519E+02  0.10077803966E+02  0.54869114966E+01  0.17603298932E+02  0.51100000000E-03 0. -1.
        -11    1    3    3    0    0  0.81528861349E+01 -0.39291186615E+00  0.11761076203E+02  0.14315964717E+02  0.51100000000E-03 0.  1.
        -12    1    3    3    0    0  0.65351267729E+01  0.12390080130E+02  0.74546383626E+01  0.15868005567E+02  0.00000000000E+00 0.  1.
</event>
<event>
 7    1  0.4876728E-009  0.4778726E+02  0.7816164E-02  0.1312668E+00
        -11   -1    0    0    0    0  0.00000000000E+00  0.00000000000E+00  0.45593999997E+02  0.45594000000E+02  0.51100000000E-03 0.  1.
         11   -1    0    0    0    0 -0.00000000000E+00 -0.00000000000E+00 -0.45593999997E+02  0.45594000000E+02  0.51100000000E-03 0. -1.
    9900012    2    1    2    0    0 -0.19010260876E+02 -0.35286487563E+01  0.38855919626E+02  0.47787264170E+02  0.19999968656E+02 0.  0.
         12    1    1    2    0    0  0.19010260876E+02  0.35286487563E+01 -0.38855919626E+02  0.43400735830E+02  0.00000000000E+00 0. -1.
         11    1    3    3    0    0 -0.86081685785E+01  0.12835473750E+01  0.40881360707E+01  0.96156599843E+01  0.51100000000E-03 0. -1.
        -11    1    3    3    0    0 -0.12571413826E+02 -0.41509739749E+01  0.26866413961E+02  0.29951214165E+02  0.51100000000E-03 0.  1.
         12    1    3    3    0    0  0.21693215290E+01 -0.66122215644E+00  0.79013695940E+01  0.82203900210E+01  0.00000000000E+00 0. -1.
</event>
<event>
 7    1  0.4876728E-009  0.4778727E+02  0.7816164E-02  0.1312668E+00
        -11   -1    0    0    0    0  0.00000000000E+00  0.00000000000E+00  0.45593999997E+02  0.45594000000E+02  0.51100000000E-03 0.  1.
         11   -1    0    0    0    0 -0.00000000000E+00 -0.00000000000E+00 -0.45593999997E+02  0.45594000000E+02  0.51100000000E-03 0. -1.
    9900012    2    1    2    0    0  0.12939831277E+02  0.41426774793E+02  0.80314133325E-01  0.47787270126E+02  0.19999995815E+02 0.  0.
         12    1    1    2    0    0 -0.12939831277E+02 -0.41426774793E+02 -0.80314133325E-01  0.43400729874E+02  0.00000000000E+00 0. -1.
         11    1    3    3    0    0  0.64774531591E+01  0.42506659588E+01 -0.22388968855E+00  0.77508507518E+01  0.51100000000E-03 0. -1.
        -11    1    3    3    0    0 -0.34070215635E+01  0.19425696548E+02 -0.11092306059E+00  0.19722519781E+02  0.51100000000E-03 0.  1.
        -12    1    3    3    0    0  0.98693996816E+01  0.17750412286E+02  0.41512688246E+00  0.20313899594E+02  0.00000000000E+00 0.  1.
</event>
<event>
 7    1  0.4876728E-009  0.4778727E+02  0.7816164E-02  0.1312668E+00
        -11   -1    0    0    0    0  0.00000000000E+00  0.00000000000E+00  0.45593999997E+02  0.45594000000E+02  0.51100000000E-03 0.  1.
         11   -1    0    0    0    0 -0.00000000000E+00 -0.00000000000E+00 -0.45593999997E+02  0.45594000000E+02  0.51100000000E-03 0. -1.
    9900012    2    1    2    0    0  0.15150112811E+02 -0.76246125577E+01  0.39949500575E+02  0.47787271538E+02  0.20000002252E+02 0.  0.
         12    1    1    2    0    0 -0.15150112811E+02  0.76246125577E+01 -0.39949500575E+02  0.43400728462E+02  0.00000000000E+00 0. -1.
         11    1    3    3    0    0  0.11723211194E+02  0.24666010603E+01  0.20224906076E+02  0.23506693250E+02  0.51100000000E-03 0. -1.
        -11    1    3    3    0    0  0.35357018466E+01  0.48678969754E+00  0.45549591616E+01  0.57866920587E+01  0.51100000000E-03 0.  1.
         12    1    3    3    0    0 -0.10880022924E+00 -0.10578003316E+02  0.15169635337E+02  0.18493886230E+02  0.00000000000E+00 0. -1.
</event>
<event>
 7    1  0.4876728E-009  0.4778727E+02  0.7816164E-02  0.1312668E+00
        -11   -1    0    0    0    0  0.00000000000E+00  0.00000000000E+00  0.45593999997E+02  0.45594000000E+02  0.51100000000E-03 0. -1.
         11   -1    0    0    0    0 -0.00000000000E+00 -0.00000000000E+00 -0.45593999997E+02  0.45594000000E+02  0.51100000000E-03 0.  1.
    9900012    2    1    2    0    0  0.15307540408E+02  0.39940685506E+02 -0.73514577011E+01  0.47787273251E+02  0.20000010060E+02 0.  0.
         12    1    1    2    0    0 -0.15307540408E+02 -0.39940685506E+02  0.73514577011E+01  0.43400726749E+02  0.00000000000E+00 0. -1.
         11    1    3    3    0    0 -0.26128180183E+01 -0.56014598269E+00 -0.88953957164E+00  0.28163562327E+01  0.51100000000E-03 0. -1.
        -11    1    3    3    0    0  0.13876913523E+02  0.35108301251E+02 -0.58689607383E+01  0.38204793496E+02  0.51100000000E-03 0.  1.
         12    1    3    3    0    0  0.40434449040E+01  0.53925302375E+01 -0.59295739120E+00  0.67661235225E+01  0.00000000000E+00 0. -1.
</event>
<event>
 7    1  0.4876728E-009  0.4778734E+02  0.7816164E-02  0.1312667E+00
        -11   -1    0    0    0    0  0.00000000000E+00  0.00000000000E+00  0.45593999997E+02  0.45594000000E+02  0.51100000000E-03 0. -1.
         11   -1    0    0    0    0 -0.00000000000E+00 -0.00000000000E+00 -0.45593999997E+02  0.45594000000E+02  0.51100000000E-03 0.  1.
    9900012    2    1    2    0    0  0.18384151631E+02 -0.39134077516E+02 -0.37635804818E+01  0.47787336500E+02  0.20000298435E+02 0.  0.
         12    1    1    2    0    0 -0.18384151631E+02  0.39134077516E+02  0.37635804818E+01  0.43400663500E+02  0.00000000000E+00 0. -1.
         11    1    3    3    0    0 -0.30333973145E+01 -0.73323453004E+01  0.34843667828E+01  0.86663486550E+01  0.51100000000E-03 0. -1.
        -11    1    3    3    0    0  0.20291340763E+02 -0.30289259864E+02 -0.74914619773E+01  0.37219615472E+02  0.51100000000E-03 0.  1.
         12    1    3    3    0    0  0.11262081821E+01 -0.15124723514E+01  0.24351471264E+00  0.19013723724E+01  0.00000000000E+00 0. -1.
</event>
<event>
 7    1  0.4876728E-009  0.4778728E+02  0.7816164E-02  0.1312668E+00
        -11   -1    0    0    0    0  0.00000000000E+00  0.00000000000E+00  0.45593999997E+02  0.45594000000E+02  0.51100000000E-03 0.  1.
         11   -1    0    0    0    0 -0.00000000000E+00 -0.00000000000E+00 -0.45593999997E+02  0.45594000000E+02  0.51100000000E-03 0. -1.
    9900012    2    1    2    0    0  0.40839870942E+02  0.17784365789E+01  0.14579605409E+02  0.47787276629E+02  0.20000025462E+02 0.  0.
         12    1    1    2    0    0 -0.40839870942E+02 -0.17784365789E+01 -0.14579605409E+02  0.43400723371E+02  0.00000000000E+00 0. -1.
         11    1    3    3    0    0 -0.17756095561E+01 -0.10363172138E+01  0.52708791953E+00  0.21223959572E+01  0.51100000000E-03 0. -1.
        -11    1    3    3    0    0  0.26160651711E+02 -0.21138651578E+01  0.92628138251E+01  0.27832496188E+02  0.51100000000E-03 0.  1.
         12    1    3    3    0    0  0.16454828788E+02  0.49286189505E+01  0.47897036644E+01  0.17832384484E+02  0.00000000000E+00 0. -1.
</event>
<event>
 7    1  0.4876728E-009  0.4778727E+02  0.7816164E-02  0.1312668E+00
        -11   -1    0    0    0    0  0.00000000000E+00  0.00000000000E+00  0.45593999997E+02  0.45594000000E+02  0.51100000000E-03 0.  1.
         11   -1    0    0    0    0 -0.00000000000E+00 -0.00000000000E+00 -0.45593999997E+02  0.45594000000E+02  0.51100000000E-03 0. -1.
    9900012    2    1    2    0    0 -0.39747516477E+01 -0.44070024822E+01  0.42993058915E+02  0.47787269172E+02  0.19999991461E+02 0.  0.
         12    1    1    2    0    0  0.39747516477E+01  0.44070024822E+01 -0.42993058915E+02  0.43400730828E+02  0.00000000000E+00 0. -1.
         11    1    3    3    0    0 -0.73880307728E+01 -0.28643321863E+01  0.80972737721E+01  0.11329308910E+02  0.51100000000E-03 0. -1.
        -11    1    3    3    0    0  0.60678469371E+00  0.12559580486E+01  0.30528469659E+02  0.30560318687E+02  0.51100000000E-03 0.  1.
         12    1    3    3    0    0  0.28064944314E+01 -0.27986283445E+01  0.43673154842E+01  0.58976415746E+01  0.00000000000E+00 0. -1.
</event>
<event>
 7    1  0.4876728E-009  0.4778727E+02  0.7816164E-02  0.1312668E+00
        -11   -1    0    0    0    0  0.00000000000E+00  0.00000000000E+00  0.45593999997E+02  0.45594000000E+02  0.51100000000E-03 0.  1.
         11   -1    0    0    0    0 -0.00000000000E+00 -0.00000000000E+00 -0.45593999997E+02  0.45594000000E+02  0.51100000000E-03 0. -1.
    9900012    2    1    2    0    0 -0.36623790002E+02  0.19382402462E+02  0.12909057365E+02  0.47787270958E+02  0.19999999606E+02 0.  0.
         12    1    1    2    0    0  0.36623790002E+02 -0.19382402462E+02 -0.12909057365E+02  0.43400729042E+02  0.00000000000E+00 0. -1.
         11    1    3    3    0    0  0.58398365501E+00  0.60421412141E+00  0.88563427225E-01  0.84495878929E+00  0.51100000000E-03 0. -1.
        -11    1    3    3    0    0 -0.19105616303E+02  0.17605273446E+02  0.25715837082E+01  0.26107149796E+02  0.51100000000E-03 0.  1.
        -12    1    3    3    0    0 -0.18102157355E+02  0.11729148945E+01  0.10248910229E+02  0.20835162373E+02  0.00000000000E+00 0.  1.
</event>
<event>
 7    1  0.4876728E-009  0.4778723E+02  0.7816164E-02  0.1312668E+00
        -11   -1    0    0    0    0  0.00000000000E+00  0.00000000000E+00  0.45593999997E+02  0.45594000000E+02  0.51100000000E-03 0. -1.
         11   -1    0    0    0    0 -0.00000000000E+00 -0.00000000000E+00 -0.45593999997E+02  0.45594000000E+02  0.51100000000E-03 0.  1.
    9900012    2    1    2    0    0  0.18951045466E+02 -0.12143887199E+02 -0.37108096628E+02  0.47787228625E+02  0.19999806593E+02 0.  0.
         12    1    1    2    0    0 -0.18951045466E+02  0.12143887199E+02  0.37108096628E+02  0.43400771375E+02  0.00000000000E+00 0. -1.
         11    1    3    3    0    0 -0.36471818935E+01 -0.17516108599E+01 -0.19989431687E+01  0.45128539110E+01  0.51100000000E-03 0. -1.
        -11    1    3    3    0    0  0.15301211687E+02 -0.66665370766E+01 -0.27030539624E+02  0.31768221044E+02  0.51100000000E-03 0.  1.
        -12    1    3    3    0    0  0.72970156731E+01 -0.37257392621E+01 -0.80786138350E+01  0.11506153670E+02  0.00000000000E+00 0.  1.
</event>
<event>
 7    1  0.4876728E-009  0.4778728E+02  0.7816164E-02  0.1312668E+00
        -11   -1    0    0    0    0  0.00000000000E+00  0.00000000000E+00  0.45593999997E+02  0.45594000000E+02  0.51100000000E-03 0.  1.
         11   -1    0    0    0    0 -0.00000000000E+00 -0.00000000000E+00 -0.45593999997E+02  0.45594000000E+02  0.51100000000E-03 0. -1.
    9900012    2    1    2    0    0 -0.36914194171E+01  0.41013284310E+02  0.13707909675E+02  0.47787275872E+02  0.20000022009E+02 0.  0.
         12    1    1    2    0    0  0.36914194171E+01 -0.41013284310E+02 -0.13707909675E+02  0.43400724128E+02  0.00000000000E+00 0. -1.
         11    1    3    3    0    0 -0.45488559037E+01  0.21463878540E+02 -0.33460059154E+00  0.21943156788E+02  0.51100000000E-03 0. -1.
        -11    1    3    3    0    0 -0.18510867876E+01  0.10874820770E+02  0.12422147476E+02  0.16613187450E+02  0.51100000000E-03 0.  1.
         12    1    3    3    0    0  0.27085232743E+01  0.86745850002E+01  0.16203627911E+01  0.92309316338E+01  0.00000000000E+00 0. -1.
</event>
<event>
 7    1  0.4876728E-009  0.4778727E+02  0.7816164E-02  0.1312668E+00
        -11   -1    0    0    0    0  0.00000000000E+00  0.00000000000E+00  0.45593999997E+02  0.45594000000E+02  0.51100000000E-03 0.  1.
         11   -1    0    0    0    0 -0.00000000000E+00 -0.00000000000E+00 -0.45593999997E+02  0.45594000000E+02  0.51100000000E-03 0. -1.
    9900012    2    1    2    0    0 -0.29867471742E+02  0.20320526358E+02  0.24054803664E+02  0.47787271446E+02  0.20000001832E+02 0.  0.
         12    1    1    2    0    0  0.29867471742E+02 -0.20320526358E+02 -0.24054803664E+02  0.43400728554E+02  0.00000000000E+00 0. -1.
         11    1    3    3    0    0 -0.10848969655E+01 -0.64837456993E+00 -0.11624022314E+00  0.12692135594E+01  0.51100000000E-03 0. -1.
        -11    1    3    3    0    0 -0.45241785990E+01  0.88585775936E+01  0.14797919588E+02  0.17830339688E+02  0.51100000000E-03 0.  1.
        -12    1    3    3    0    0 -0.24258396177E+02  0.12110323334E+02  0.93731242984E+01  0.28687718199E+02  0.00000000000E+00 0.  1.
</event>
<event>
 7    1  0.4876728E-009  0.4778728E+02  0.7816164E-02  0.1312668E+00
        -11   -1    0    0    0    0  0.00000000000E+00  0.00000000000E+00  0.45593999997E+02  0.45594000000E+02  0.51100000000E-03 0.  1.
         11   -1    0    0    0    0 -0.00000000000E+00 -0.00000000000E+00 -0.45593999997E+02  0.45594000000E+02  0.51100000000E-03 0. -1.
    9900012    2    1    2    0    0  0.46765585271E+01  0.32998454877E+02  0.27800262713E+02  0.47787276149E+02  0.20000023272E+02 0.  0.
         12    1    1    2    0    0 -0.46765585271E+01 -0.32998454877E+02 -0.27800262713E+02  0.43400723851E+02  0.00000000000E+00 0. -1.
         11    1    3    3    0    0 -0.92498271910E+00  0.86513480081E+01 -0.71983879905E+00  0.87303827834E+01  0.51100000000E-03 0. -1.
        -11    1    3    3    0    0  0.29443251968E+01  0.58040299051E+01  0.13712764372E+02  0.15178791816E+02  0.51100000000E-03 0.  1.
        -12    1    3    3    0    0  0.26572160495E+01  0.18543076964E+02  0.14807337139E+02  0.23878101549E+02  0.00000000000E+00 0.  1.
</event>
<event>
 7    1  0.4876728E-009  0.4778727E+02  0.7816164E-02  0.1312668E+00
        -11   -1    0    0    0    0  0.00000000000E+00  0.00000000000E+00  0.45593999997E+02  0.45594000000E+02  0.51100000000E-03 0.  1.
         11   -1    0    0    0    0 -0.00000000000E+00 -0.00000000000E+00 -0.45593999997E+02  0.45594000000E+02  0.51100000000E-03 0. -1.
    9900012    2    1    2    0    0  0.82830072771E+01  0.22220941691E+02  0.36348933656E+02  0.47787269164E+02  0.19999991425E+02 0.  0.
         12    1    1    2    0    0 -0.82830072771E+01 -0.22220941691E+02 -0.36348933656E+02  0.43400730836E+02  0.00000000000E+00 0. -1.
         11    1    3    3    0    0 -0.47838353445E+00  0.21248380059E+01 -0.17995245121E+01  0.28252568181E+01  0.51100000000E-03 0. -1.
        -11    1    3    3    0    0  0.79084246120E+01  0.18901070214E+02  0.38349963432E+02  0.43480033700E+02  0.51100000000E-03 0.  1.
        -12    1    3    3    0    0  0.85296619958E+00  0.11950334714E+01 -0.20150526349E+00  0.14819786458E+01  0.00000000000E+00 0.  1.
</event>
<event>
 7    1  0.6372552E-009  0.4778728E+02  0.7816164E-02  0.1312668E+00
        -11   -1    0    0    0    0  0.00000000000E+00  0.00000000000E+00  0.45593999997E+02  0.45594000000E+02  0.51100000000E-03 0.  1.
         11   -1    0    0    0    0 -0.00000000000E+00 -0.00000000000E+00 -0.45593999997E+02  0.45594000000E+02  0.51100000000E-03 0. -1.
    9900012    2    1    2    0    0 -0.43258782180E+02  0.17753593629E+01 -0.30245759655E+01  0.47787283459E+02  0.20000056601E+02 0.  0.
         12    1    1    2    0    0  0.43258782180E+02 -0.17753593629E+01  0.30245759655E+01  0.43400716541E+02  0.00000000000E+00 0. -1.
         11    1    3    3    0    0 -0.30200356538E+02  0.10920458692E+01 -0.61935497400E+01  0.30848243999E+02  0.51100000000E-03 0. -1.
        -11    1    3    3    0    0 -0.12041472031E+02 -0.82025286401E+00 -0.12770441797E+01  0.12136750204E+02  0.51100000000E-03 0.  1.
         12    1    3    3    0    0 -0.10169536110E+01  0.15035663577E+01  0.44460179541E+01  0.48022892549E+01  0.00000000000E+00 0. -1.
</event>
<event>
 7    1  0.4876728E-009  0.4778728E+02  0.7816164E-02  0.1312668E+00
        -11   -1    0    0    0    0  0.00000000000E+00  0.00000000000E+00  0.45593999997E+02  0.45594000000E+02  0.51100000000E-03 0.  1.
         11   -1    0    0    0    0 -0.00000000000E+00 -0.00000000000E+00 -0.45593999997E+02  0.45594000000E+02  0.51100000000E-03 0. -1.
    9900012    2    1    2    0    0  0.62686182937E+01  0.39221123802E+02 -0.17493726901E+02  0.47787278710E+02  0.20000034952E+02 0.  0.
         12    1    1    2    0    0 -0.62686182937E+01 -0.39221123802E+02  0.17493726901E+02  0.43400721290E+02  0.00000000000E+00 0. -1.
         11    1    3    3    0    0 -0.76825479556E+00  0.52981078591E+01 -0.53315201658E+01  0.75554794591E+01  0.51100000000E-03 0. -1.
        -11    1    3    3    0    0  0.86616016136E+01  0.15915210720E+02 -0.12726092584E+02  0.22142057436E+02  0.51100000000E-03 0.  1.
        -12    1    3    3    0    0 -0.16247285242E+01  0.18007805222E+02  0.56388584862E+00  0.18089741816E+02  0.00000000000E+00 0.  1.
</event>
<event>
 7    1  0.4876728E-009  0.4778727E+02  0.7816164E-02  0.1312668E+00
        -11   -1    0    0    0    0  0.00000000000E+00  0.00000000000E+00  0.45593999997E+02  0.45594000000E+02  0.51100000000E-03 0. -1.
         11   -1    0    0    0    0 -0.00000000000E+00 -0.00000000000E+00 -0.45593999997E+02  0.45594000000E+02  0.51100000000E-03 0.  1.
    9900012    2    1    2    0    0 -0.24317498457E+02 -0.68454822855E+01 -0.35290533920E+02  0.47787272549E+02  0.20000006861E+02 0.  0.
         12    1    1    2    0    0  0.24317498457E+02  0.68454822855E+01  0.35290533920E+02  0.43400727451E+02  0.00000000000E+00 0. -1.
         11    1    3    3    0    0 -0.48179682596E+01 -0.10252984411E+02 -0.13419421355E+02  0.17561815887E+02  0.51100000000E-03 0. -1.
        -11    1    3    3    0    0 -0.52857626427E+01  0.31837544422E+01 -0.38526736857E+01  0.72745222423E+01  0.51100000000E-03 0.  1.
         12    1    3    3    0    0 -0.14213767555E+02  0.22374768300E+00 -0.18018438879E+02  0.22950934420E+02  0.00000000000E+00 0. -1.
</event>
<event>
 7    1  0.4876728E-009  0.4778727E+02  0.7816164E-02  0.1312668E+00
        -11   -1    0    0    0    0  0.00000000000E+00  0.00000000000E+00  0.45593999997E+02  0.45594000000E+02  0.51100000000E-03 0.  1.
         11   -1    0    0    0    0 -0.00000000000E+00 -0.00000000000E+00 -0.45593999997E+02  0.45594000000E+02  0.51100000000E-03 0. -1.
    9900012    2    1    2    0    0 -0.33368532711E+02 -0.24698715425E+02  0.12654546930E+02  0.47787273314E+02  0.20000010347E+02 0.  0.
         12    1    1    2    0    0  0.33368532711E+02  0.24698715425E+02 -0.12654546930E+02  0.43400726686E+02  0.00000000000E+00 0. -1.
         11    1    3    3    0    0 -0.61214178295E+01  0.20219361109E+01  0.23765788611E+01  0.68708157612E+01  0.51100000000E-03 0. -1.
        -11    1    3    3    0    0 -0.20064345431E+02 -0.21367571000E+02  0.12209423808E+02  0.31752497193E+02  0.51100000000E-03 0.  1.
        -12    1    3    3    0    0 -0.71827694504E+01 -0.53530805355E+01 -0.19314557395E+01  0.91639603596E+01  0.00000000000E+00 0.  1.
</event>
<event>
 7    1  0.4876728E-009  0.4778727E+02  0.7816164E-02  0.1312668E+00
        -11   -1    0    0    0    0  0.00000000000E+00  0.00000000000E+00  0.45593999997E+02  0.45594000000E+02  0.51100000000E-03 0.  1.
         11   -1    0    0    0    0 -0.00000000000E+00 -0.00000000000E+00 -0.45593999997E+02  0.45594000000E+02  0.51100000000E-03 0. -1.
    9900012    2    1    2    0    0  0.63320030806E+01  0.30833665344E+02  0.29879997456E+02  0.47787269251E+02  0.19999991821E+02 0.  0.
         12    1    1    2    0    0 -0.63320030806E+01 -0.30833665344E+02 -0.29879997456E+02  0.43400730749E+02  0.00000000000E+00 0. -1.
         11    1    3    3    0    0 -0.27223596949E+01  0.45714197840E+00  0.44571721180E+01  0.52427668885E+01  0.51100000000E-03 0. -1.
        -11    1    3    3    0    0  0.11038046286E+02  0.23569867197E+02  0.23807809670E+02  0.35273062059E+02  0.51100000000E-03 0.  1.
        -12    1    3    3    0    0 -0.19836835101E+01  0.68066561686E+01  0.16150156686E+01  0.72714403027E+01  0.00000000000E+00 0.  1.
</event>
<event>
 7    1  0.4876728E-009  0.4778727E+02  0.7816164E-02  0.1312668E+00
        -11   -1    0    0    0    0  0.00000000000E+00  0.00000000000E+00  0.45593999997E+02  0.45594000000E+02  0.51100000000E-03 0.  1.
         11   -1    0    0    0    0 -0.00000000000E+00 -0.00000000000E+00 -0.45593999997E+02  0.45594000000E+02  0.51100000000E-03 0. -1.
    9900012    2    1    2    0    0  0.44215320389E+01 -0.17680264322E+02  0.39388857475E+02  0.47787265153E+02  0.19999973141E+02 0.  0.
         12    1    1    2    0    0 -0.44215320389E+01  0.17680264322E+02 -0.39388857475E+02  0.43400734847E+02  0.00000000000E+00 0. -1.
         11    1    3    3    0    0 -0.34847445130E+01 -0.60779683628E+01  0.84402822410E+01  0.10969207278E+02  0.51100000000E-03 0. -1.
        -11    1    3    3    0    0  0.24795749475E+01  0.32650355268E+01  0.70012082262E+01  0.81133017815E+01  0.51100000000E-03 0.  1.
        -12    1    3    3    0    0  0.54267016044E+01 -0.14867331486E+02  0.23947367007E+02  0.28704756094E+02  0.00000000000E+00 0.  1.
</event>
<event>
 7    1  0.4876728E-009  0.4778727E+02  0.7816164E-02  0.1312668E+00
        -11   -1    0    0    0    0  0.00000000000E+00  0.00000000000E+00  0.45593999997E+02  0.45594000000E+02  0.51100000000E-03 0.  1.
         11   -1    0    0    0    0 -0.00000000000E+00 -0.00000000000E+00 -0.45593999997E+02  0.45594000000E+02  0.51100000000E-03 0. -1.
    9900012    2    1    2    0    0  0.36940455556E+02 -0.10486011874E+02  0.20225473910E+02  0.47787268479E+02  0.19999988301E+02 0.  0.
         12    1    1    2    0    0 -0.36940455556E+02  0.10486011874E+02 -0.20225473910E+02  0.43400731521E+02  0.00000000000E+00 0. -1.
         11    1    3    3    0    0  0.12512728023E+01 -0.37864166497E+01 -0.27702783504E+00  0.39974215882E+01  0.51100000000E-03 0. -1.
        -11    1    3    3    0    0  0.82362596805E+01 -0.58391961531E+01  0.10878864819E+01  0.10154589233E+02  0.51100000000E-03 0.  1.
        -12    1    3    3    0    0  0.27452923073E+02 -0.86039907089E+00  0.19414615264E+02  0.33635257657E+02  0.00000000000E+00 0.  1.
</event>
<event>
 7    1  0.4876728E-009  0.4778727E+02  0.7816164E-02  0.1312668E+00
        -11   -1    0    0    0    0  0.00000000000E+00  0.00000000000E+00  0.45593999997E+02  0.45594000000E+02  0.51100000000E-03 0.  1.
         11   -1    0    0    0    0 -0.00000000000E+00 -0.00000000000E+00 -0.45593999997E+02  0.45594000000E+02  0.51100000000E-03 0. -1.
    9900012    2    1    2    0    0 -0.68000205496E+01  0.41038281158E+02  0.12379128883E+02  0.47787266921E+02  0.19999981198E+02 0.  0.
         12    1    1    2    0    0  0.68000205496E+01 -0.41038281158E+02 -0.12379128883E+02  0.43400733079E+02  0.00000000000E+00 0. -1.
         11    1    3    3    0    0  0.69009823405E+01  0.13527514137E+02  0.58138411810E+01  0.16260933108E+02  0.51100000000E-03 0. -1.
        -11    1    3    3    0    0 -0.52613172285E+01  0.11711956408E+02  0.38907451034E+01  0.13416008333E+02  0.51100000000E-03 0.  1.
         12    1    3    3    0    0 -0.84396856616E+01  0.15798810614E+02  0.26745425987E+01  0.18110325480E+02  0.00000000000E+00 0. -1.
</event>
<event>
 7    1  0.4876728E-009  0.4778728E+02  0.7816164E-02  0.1312668E+00
        -11   -1    0    0    0    0  0.00000000000E+00  0.00000000000E+00  0.45593999997E+02  0.45594000000E+02  0.51100000000E-03 0. -1.
         11   -1    0    0    0    0 -0.00000000000E+00 -0.00000000000E+00 -0.45593999997E+02  0.45594000000E+02  0.51100000000E-03 0.  1.
    9900012    2    1    2    0    0  0.19383171378E+02 -0.33469932351E+02  0.19689566572E+02  0.47787277240E+02  0.20000028250E+02 0.  0.
         12    1    1    2    0    0 -0.19383171378E+02  0.33469932351E+02 -0.19689566572E+02  0.43400722760E+02  0.00000000000E+00 0. -1.
         11    1    3    3    0    0  0.15777439611E+02 -0.28524080309E+02  0.17424522092E+02  0.36961665663E+02  0.51100000000E-03 0. -1.
        -11    1    3    3    0    0  0.43044853792E+01 -0.68570692697E+01  0.30400009033E+01  0.86480980049E+01  0.51100000000E-03 0.  1.
         12    1    3    3    0    0 -0.69875361224E+00  0.19112172276E+01 -0.77495642364E+00  0.21775135729E+01  0.00000000000E+00 0. -1.
</event>
<event>
 7    1  0.4876728E-009  0.4778727E+02  0.7816164E-02  0.1312668E+00
        -11   -1    0    0    0    0  0.00000000000E+00  0.00000000000E+00  0.45593999997E+02  0.45594000000E+02  0.51100000000E-03 0.  1.
         11   -1    0    0    0    0 -0.00000000000E+00 -0.00000000000E+00 -0.45593999997E+02  0.45594000000E+02  0.51100000000E-03 0. -1.
    9900012    2    1    2    0    0 -0.32639706539E+02  0.10990222530E+02  0.26409989929E+02  0.47787274173E+02  0.20000014266E+02 0.  0.
         12    1    1    2    0    0  0.32639706539E+02 -0.10990222530E+02 -0.26409989929E+02  0.43400725827E+02  0.00000000000E+00 0. -1.
         11    1    3    3    0    0 -0.74003304873E+01 -0.40540670437E+01  0.29029012514E+01  0.89234066842E+01  0.51100000000E-03 0. -1.
        -11    1    3    3    0    0 -0.14196854783E+02  0.10335430830E+02  0.81175557697E+01  0.19345969299E+02  0.51100000000E-03 0.  1.
         12    1    3    3    0    0 -0.11042521269E+02  0.47088587440E+01  0.15389532908E+02  0.19517898190E+02  0.00000000000E+00 0. -1.
</event>
<event>
 7    1  0.4876728E-009  0.4778727E+02  0.7816164E-02  0.1312668E+00
        -11   -1    0    0    0    0  0.00000000000E+00  0.00000000000E+00  0.45593999997E+02  0.45594000000E+02  0.51100000000E-03 0.  1.
         11   -1    0    0    0    0 -0.00000000000E+00 -0.00000000000E+00 -0.45593999997E+02  0.45594000000E+02  0.51100000000E-03 0. -1.
    9900012    2    1    2    0    0  0.23069420516E+02  0.15802197545E+02  0.33192099319E+02  0.47787273424E+02  0.20000010848E+02 0.  0.
         12    1    1    2    0    0 -0.23069420516E+02 -0.15802197545E+02 -0.33192099319E+02  0.43400726576E+02  0.00000000000E+00 0. -1.
         11    1    3    3    0    0  0.73819773583E+01  0.25641060985E+01  0.10804921705E+01  0.78889602226E+01  0.51100000000E-03 0. -1.
        -11    1    3    3    0    0  0.53913605477E+01  0.83266430057E+01  0.23798477796E+02  0.25783081623E+02  0.51100000000E-03 0.  1.
         12    1    3    3    0    0  0.10296082610E+02  0.49114484405E+01  0.83131293524E+01  0.14115231579E+02  0.00000000000E+00 0. -1.
</event>
<event>
 7    1  0.4876728E-009  0.4778728E+02  0.7816164E-02  0.1312668E+00
        -11   -1    0    0    0    0  0.00000000000E+00  0.00000000000E+00  0.45593999997E+02  0.45594000000E+02  0.51100000000E-03 0.  1.
         11   -1    0    0    0    0 -0.00000000000E+00 -0.00000000000E+00 -0.45593999997E+02  0.45594000000E+02  0.51100000000E-03 0. -1.
    9900012    2    1    2    0    0  0.11487026706E+02 -0.29457009776E+02  0.29731388983E+02  0.47787277675E+02  0.20000030230E+02 0.  0.
         12    1    1    2    0    0 -0.11487026706E+02  0.29457009776E+02 -0.29731388983E+02  0.43400722325E+02  0.00000000000E+00 0. -1.
         11    1    3    3    0    0 -0.12483817969E+01 -0.44344663292E+01 -0.10606719543E+01  0.47273643811E+01  0.51100000000E-03 0. -1.
        -11    1    3    3    0    0  0.85569740734E+01 -0.22730329155E+02  0.29317665629E+02  0.38071185784E+02  0.51100000000E-03 0.  1.
        -12    1    3    3    0    0  0.41784344297E+01 -0.22922142915E+01  0.14743953085E+01  0.49887275098E+01  0.00000000000E+00 0.  1.
</event>
<event>
 7    1  0.4876728E-009  0.4778728E+02  0.7816164E-02  0.1312668E+00
        -11   -1    0    0    0    0  0.00000000000E+00  0.00000000000E+00  0.45593999997E+02  0.45594000000E+02  0.51100000000E-03 0.  1.
         11   -1    0    0    0    0 -0.00000000000E+00 -0.00000000000E+00 -0.45593999997E+02  0.45594000000E+02  0.51100000000E-03 0. -1.
    9900012    2    1    2    0    0 -0.19047913997E+01 -0.39696156785E+02 -0.17441599811E+02  0.47787279986E+02  0.20000040769E+02 0.  0.
         12    1    1    2    0    0  0.19047913997E+01  0.39696156785E+02  0.17441599811E+02  0.43400720014E+02  0.00000000000E+00 0. -1.
         11    1    3    3    0    0  0.14563172873E+01 -0.16445428352E+02 -0.15497069071E+02  0.22643589021E+02  0.51100000000E-03 0. -1.
        -11    1    3    3    0    0 -0.53972350644E+01 -0.88391672745E+01  0.57455379165E+00  0.10372614751E+02  0.51100000000E-03 0.  1.
         12    1    3    3    0    0  0.20361263774E+01 -0.14411561158E+02 -0.25190845317E+01  0.14771076214E+02  0.00000000000E+00 0. -1.
</event>
<event>
 7    1  0.4876728E-009  0.4778727E+02  0.7816164E-02  0.1312668E+00
        -11   -1    0    0    0    0  0.00000000000E+00  0.00000000000E+00  0.45593999997E+02  0.45594000000E+02  0.51100000000E-03 0. -1.
         11   -1    0    0    0    0 -0.00000000000E+00 -0.00000000000E+00 -0.45593999997E+02  0.45594000000E+02  0.51100000000E-03 0.  1.
    9900012    2    1    2    0    0 -0.16782212711E+02  0.15912885106E+01 -0.39993106731E+02  0.47787269031E+02  0.19999990822E+02 0.  0.
         12    1    1    2    0    0  0.16782212711E+02 -0.15912885106E+01  0.39993106731E+02  0.43400730969E+02  0.00000000000E+00 0. -1.
         11    1    3    3    0    0  0.27414566246E+01  0.33921865639E+01 -0.14763301028E+02  0.15394075861E+02  0.51100000000E-03 0. -1.
        -11    1    3    3    0    0 -0.12393231302E+02 -0.25418921893E+00 -0.19542053531E+02  0.23141924093E+02  0.51100000000E-03 0.  1.
         12    1    3    3    0    0 -0.71304380334E+01 -0.15467088344E+01 -0.56877521718E+01  0.92512690769E+01  0.00000000000E+00 0. -1.
</event>
<event>
 7    1  0.4876728E-009  0.4778727E+02  0.7816164E-02  0.1312668E+00
        -11   -1    0    0    0    0  0.00000000000E+00  0.00000000000E+00  0.45593999997E+02  0.45594000000E+02  0.51100000000E-03 0.  1.
         11   -1    0    0    0    0 -0.00000000000E+00 -0.00000000000E+00 -0.45593999997E+02  0.45594000000E+02  0.51100000000E-03 0. -1.
    9900012    2    1    2    0    0 -0.68985191602E+01  0.25800918050E+02  0.34210322995E+02  0.47787272607E+02  0.20000007124E+02 0.  0.
         12    1    1    2    0    0  0.68985191602E+01 -0.25800918050E+02 -0.34210322995E+02  0.43400727393E+02  0.00000000000E+00 0. -1.
         11    1    3    3    0    0 -0.52541231541E+01  0.11696273843E+02  0.83510580795E+01  0.15301921554E+02  0.51100000000E-03 0. -1.
        -11    1    3    3    0    0 -0.49591208414E+01  0.34467946284E+01  0.23859250142E+01  0.64935284064E+01  0.51100000000E-03 0.  1.
        -12    1    3    3    0    0  0.33147248353E+01  0.10657849578E+02  0.23473339901E+02  0.25991822647E+02  0.00000000000E+00 0.  1.
</event>
<event>
 7    1  0.4876728E-009  0.4778727E+02  0.7816164E-02  0.1312668E+00
        -11   -1    0    0    0    0  0.00000000000E+00  0.00000000000E+00  0.45593999997E+02  0.45594000000E+02  0.51100000000E-03 0.  1.
         11   -1    0    0    0    0 -0.00000000000E+00 -0.00000000000E+00 -0.45593999997E+02  0.45594000000E+02  0.51100000000E-03 0. -1.
    9900012    2    1    2    0    0  0.17904510523E+02 -0.20324201884E+01  0.39483174223E+02  0.47787271024E+02  0.19999999909E+02 0.  0.
         12    1    1    2    0    0 -0.17904510523E+02  0.20324201884E+01 -0.39483174223E+02  0.43400728976E+02  0.00000000000E+00 0. -1.
         11    1    3    3    0    0  0.88742502143E+01 -0.18041351027E+01  0.20113387161E+02  0.22058004526E+02  0.51100000000E-03 0.  1.
        -11    1    3    3    0    0  0.52075097970E+01 -0.57698450877E+01  0.35660728845E+01  0.85513827362E+01  0.51100000000E-03 0. -1.
        -12    1    3    3    0    0  0.38227505118E+01  0.55415600020E+01  0.15803714177E+02  0.17177883762E+02  0.00000000000E+00 0.  1.
</event>
<event>
 7    1  0.4876728E-009  0.4778727E+02  0.7816164E-02  0.1312668E+00
        -11   -1    0    0    0    0  0.00000000000E+00  0.00000000000E+00  0.45593999997E+02  0.45594000000E+02  0.51100000000E-03 0. -1.
         11   -1    0    0    0    0 -0.00000000000E+00 -0.00000000000E+00 -0.45593999997E+02  0.45594000000E+02  0.51100000000E-03 0.  1.
    9900012    2    1    2    0    0  0.35247032302E+02  0.11619264796E+02 -0.22500280603E+02  0.47787271576E+02  0.20000002425E+02 0.  0.
         12    1    1    2    0    0 -0.35247032302E+02 -0.11619264796E+02  0.22500280603E+02  0.43400728424E+02  0.00000000000E+00 0. -1.
         11    1    3    3    0    0  0.52475244031E+01  0.44009541287E+01  0.27626147826E+01  0.73849136963E+01  0.51100000000E-03 0. -1.
        -11    1    3    3    0    0  0.23236043832E+02  0.70025853052E+01 -0.22497816602E+02  0.33092320650E+02  0.51100000000E-03 0.  1.
         12    1    3    3    0    0  0.67634640670E+01  0.21572536229E+00 -0.27650787834E+01  0.73100372295E+01  0.00000000000E+00 0. -1.
</event>
<event>
 7    1  0.4876728E-009  0.4778730E+02  0.7816164E-02  0.1312668E+00
        -11   -1    0    0    0    0  0.00000000000E+00  0.00000000000E+00  0.45593999997E+02  0.45594000000E+02  0.51100000000E-03 0.  1.
         11   -1    0    0    0    0 -0.00000000000E+00 -0.00000000000E+00 -0.45593999997E+02  0.45594000000E+02  0.51100000000E-03 0. -1.
    9900012    2    1    2    0    0 -0.16588221437E+02 -0.28706434187E+02  0.28006999890E+02  0.47787303036E+02  0.20000145860E+02 0.  0.
         12    1    1    2    0    0  0.16588221437E+02  0.28706434187E+02 -0.28006999890E+02  0.43400696964E+02  0.00000000000E+00 0. -1.
         11    1    3    3    0    0  0.44221380624E+01 -0.24638094582E+01  0.30672282778E+01  0.59189147365E+01  0.51100000000E-03 0. -1.
        -11    1    3    3    0    0 -0.12916291876E+02 -0.16582926568E+02  0.16025434656E+02  0.26431772652E+02  0.51100000000E-03 0.  1.
         12    1    3    3    0    0 -0.80940676234E+01 -0.96596981605E+01  0.89143369565E+01  0.15436615647E+02  0.00000000000E+00 0. -1.
</event>
<event>
 7    1  0.4876728E-009  0.4778727E+02  0.7816164E-02  0.1312668E+00
        -11   -1    0    0    0    0  0.00000000000E+00  0.00000000000E+00  0.45593999997E+02  0.45594000000E+02  0.51100000000E-03 0.  1.
         11   -1    0    0    0    0 -0.00000000000E+00 -0.00000000000E+00 -0.45593999997E+02  0.45594000000E+02  0.51100000000E-03 0. -1.
    9900012    2    1    2    0    0  0.31768578688E+02 -0.18060413661E+02  0.23413713986E+02  0.47787272632E+02  0.20000007237E+02 0.  0.
         12    1    1    2    0    0 -0.31768578688E+02  0.18060413661E+02 -0.23413713986E+02  0.43400727368E+02  0.00000000000E+00 0. -1.
         11    1    3    3    0    0  0.25504023801E+02 -0.14069937106E+02  0.13011446793E+02  0.31901663093E+02  0.51100000000E-03 0. -1.
        -11    1    3    3    0    0  0.56836847161E+00 -0.20158319361E+01  0.95737877217E+01  0.98002057486E+01  0.51100000000E-03 0.  1.
        -12    1    3    3    0    0  0.56961864152E+01 -0.19746446193E+01  0.82847947141E+00  0.60854037897E+01  0.00000000000E+00 0.  1.
</event>
<event>
 7    1  0.4876728E-009  0.4778727E+02  0.7816164E-02  0.1312668E+00
        -11   -1    0    0    0    0  0.00000000000E+00  0.00000000000E+00  0.45593999997E+02  0.45594000000E+02  0.51100000000E-03 0.  1.
         11   -1    0    0    0    0 -0.00000000000E+00 -0.00000000000E+00 -0.45593999997E+02  0.45594000000E+02  0.51100000000E-03 0. -1.
    9900012    2    1    2    0    0 -0.67806363706E+01 -0.65415739960E+01  0.42365717625E+02  0.47787271321E+02  0.20000001262E+02 0.  0.
         12    1    1    2    0    0  0.67806363706E+01  0.65415739960E+01 -0.42365717625E+02  0.43400728679E+02  0.00000000000E+00 0. -1.
         11    1    3    3    0    0  0.14365212809E+01  0.37997735275E+01  0.13682593276E+02  0.14272884476E+02  0.51100000000E-03 0. -1.
        -11    1    3    3    0    0 -0.13755303874E+01 -0.12560840520E+01  0.17380635445E+02  0.17480169327E+02  0.51100000000E-03 0.  1.
         12    1    3    3    0    0 -0.68416272641E+01 -0.90852634715E+01  0.11302488905E+02  0.16034217518E+02  0.00000000000E+00 0. -1.
</event>
<event>
 7    1  0.4876728E-009  0.4778727E+02  0.7816164E-02  0.1312668E+00
        -11   -1    0    0    0    0  0.00000000000E+00  0.00000000000E+00  0.45593999997E+02  0.45594000000E+02  0.51100000000E-03 0.  1.
         11   -1    0    0    0    0 -0.00000000000E+00 -0.00000000000E+00 -0.45593999997E+02  0.45594000000E+02  0.51100000000E-03 0. -1.
    9900012    2    1    2    0    0  0.23274961958E+02 -0.75089157806E+01  0.35854086666E+02  0.47787271884E+02  0.20000003830E+02 0.  0.
         12    1    1    2    0    0 -0.23274961958E+02  0.75089157806E+01 -0.35854086666E+02  0.43400728116E+02  0.00000000000E+00 0. -1.
         11    1    3    3    0    0  0.76771893584E+01  0.41293784343E+01  0.18310546067E+02  0.20279721404E+02  0.51100000000E-03 0. -1.
        -11    1    3    3    0    0  0.14064650002E+02 -0.91562102363E+01  0.10281613986E+02  0.19681518031E+02  0.51100000000E-03 0.  1.
         12    1    3    3    0    0  0.15331225972E+01 -0.24820839787E+01  0.72619266129E+01  0.78260324499E+01  0.00000000000E+00 0. -1.
</event>
<event>
 7    1  0.4876728E-009  0.4778727E+02  0.7816164E-02  0.1312668E+00
        -11   -1    0    0    0    0  0.00000000000E+00  0.00000000000E+00  0.45593999997E+02  0.45594000000E+02  0.51100000000E-03 0.  1.
         11   -1    0    0    0    0 -0.00000000000E+00 -0.00000000000E+00 -0.45593999997E+02  0.45594000000E+02  0.51100000000E-03 0. -1.
    9900012    2    1    2    0    0 -0.39248285431E+02 -0.10192135801E+02  0.15469826739E+02  0.47787273269E+02  0.20000010141E+02 0.  0.
         12    1    1    2    0    0  0.39248285431E+02  0.10192135801E+02 -0.15469826739E+02  0.43400726731E+02  0.00000000000E+00 0. -1.
         11    1    3    3    0    0  0.18784259089E+00 -0.34298937523E+00 -0.28846107955E+01  0.29109974670E+01  0.51100000000E-03 0. -1.
        -11    1    3    3    0    0 -0.35403893831E+01 -0.21770243786E+01  0.27929056053E+01  0.50074059263E+01  0.51100000000E-03 0.  1.
         12    1    3    3    0    0 -0.35895738639E+02 -0.76721220475E+01  0.15561531929E+02  0.39868869875E+02  0.00000000000E+00 0. -1.
</event>
<event>
 7    1  0.4876728E-009  0.4778727E+02  0.7816164E-02  0.1312668E+00
        -11   -1    0    0    0    0  0.00000000000E+00  0.00000000000E+00  0.45593999997E+02  0.45594000000E+02  0.51100000000E-03 0. -1.
         11   -1    0    0    0    0 -0.00000000000E+00 -0.00000000000E+00 -0.45593999997E+02  0.45594000000E+02  0.51100000000E-03 0.  1.
    9900012    2    1    2    0    0  0.32186764240E+02  0.23655057704E+02 -0.16972735721E+02  0.47787270685E+02  0.19999998363E+02 0.  0.
         12    1    1    2    0    0 -0.32186764240E+02 -0.23655057704E+02  0.16972735721E+02  0.43400729315E+02  0.00000000000E+00 0. -1.
         11    1    3    3    0    0  0.83545184390E+01  0.12091334733E+02 -0.10420745520E+01  0.14733780018E+02  0.51100000000E-03 0. -1.
        -11    1    3    3    0    0  0.21712734501E+02  0.56905424710E+01 -0.14249907685E+02  0.26587308672E+02  0.51100000000E-03 0.  1.
        -12    1    3    3    0    0  0.21195112998E+01  0.58731804993E+01 -0.16807534841E+01  0.64661819957E+01  0.00000000000E+00 0.  1.
</event>
<event>
 7    1  0.4876728E-009  0.4778727E+02  0.7816164E-02  0.1312668E+00
        -11   -1    0    0    0    0  0.00000000000E+00  0.00000000000E+00  0.45593999997E+02  0.45594000000E+02  0.51100000000E-03 0. -1.
         11   -1    0    0    0    0 -0.00000000000E+00 -0.00000000000E+00 -0.45593999997E+02  0.45594000000E+02  0.51100000000E-03 0.  1.
    9900012    2    1    2    0    0  0.10585814578E+02  0.42049646571E+02  0.18415151855E+01  0.47787269301E+02  0.19999992052E+02 0.  0.
         12    1    1    2    0    0 -0.10585814578E+02 -0.42049646571E+02 -0.18415151855E+01  0.43400730699E+02  0.00000000000E+00 0. -1.
         11    1    3    3    0    0  0.53260619973E+01  0.64143559547E+01  0.58234259612E+01  0.10169719214E+02  0.51100000000E-03 0. -1.
        -11    1    3    3    0    0 -0.16962742957E+01  0.24458741260E+01 -0.21230999611E+01  0.36561182191E+01  0.51100000000E-03 0.  1.
         12    1    3    3    0    0  0.69560268765E+01  0.33189416490E+02 -0.18588108146E+01  0.33961431868E+02  0.00000000000E+00 0. -1.
</event>
<event>
 7    1  0.4876728E-009  0.4778728E+02  0.7816164E-02  0.1312668E+00
        -11   -1    0    0    0    0  0.00000000000E+00  0.00000000000E+00  0.45593999997E+02  0.45594000000E+02  0.51100000000E-03 0.  1.
         11   -1    0    0    0    0 -0.00000000000E+00 -0.00000000000E+00 -0.45593999997E+02  0.45594000000E+02  0.51100000000E-03 0. -1.
    9900012    2    1    2    0    0 -0.15493622130E+02  0.27247160355E+02  0.30019366880E+02  0.47787280398E+02  0.20000042645E+02 0.  0.
         12    1    1    2    0    0  0.15493622130E+02 -0.27247160355E+02 -0.30019366880E+02  0.43400719602E+02  0.00000000000E+00 0. -1.
         11    1    3    3    0    0 -0.13943013234E+02  0.21771156644E+02  0.24721860874E+02  0.35770955886E+02  0.51100000000E-03 0. -1.
        -11    1    3    3    0    0  0.38662268863E+01  0.24489436149E+01  0.20925682561E+01  0.50322835108E+01  0.51100000000E-03 0.  1.
         12    1    3    3    0    0 -0.54168357827E+01  0.30270600966E+01  0.32049377500E+01  0.69840410012E+01  0.00000000000E+00 0. -1.
</event>
<event>
 7    1  0.4876728E-009  0.4778730E+02  0.7816164E-02  0.1312668E+00
        -11   -1    0    0    0    0  0.00000000000E+00  0.00000000000E+00  0.45593999997E+02  0.45594000000E+02  0.51100000000E-03 0.  1.
         11   -1    0    0    0    0 -0.00000000000E+00 -0.00000000000E+00 -0.45593999997E+02  0.45594000000E+02  0.51100000000E-03 0. -1.
    9900012    2    1    2    0    0  0.13214939599E+02  0.73490419570E+01  0.40681418967E+02  0.47787298445E+02  0.20000124929E+02 0.  0.
         12    1    1    2    0    0 -0.13214939599E+02 -0.73490419570E+01 -0.40681418967E+02  0.43400701555E+02  0.00000000000E+00 0. -1.
         11    1    3    3    0    0  0.56284828226E+01 -0.44844314081E+01  0.44441647978E+01  0.84581643960E+01  0.51100000000E-03 0. -1.
        -11    1    3    3    0    0  0.71090494953E+01  0.78201490849E+01  0.30740251516E+02  0.32506251399E+02  0.51100000000E-03 0.  1.
        -12    1    3    3    0    0  0.47740728115E+00  0.40133242802E+01  0.54970026530E+01  0.68228826501E+01  0.00000000000E+00 0.  1.
</event>
<event>
 7    1  0.4876728E-009  0.4778728E+02  0.7816164E-02  0.1312668E+00
        -11   -1    0    0    0    0  0.00000000000E+00  0.00000000000E+00  0.45593999997E+02  0.45594000000E+02  0.51100000000E-03 0.  1.
         11   -1    0    0    0    0 -0.00000000000E+00 -0.00000000000E+00 -0.45593999997E+02  0.45594000000E+02  0.51100000000E-03 0. -1.
    9900012    2    1    2    0    0  0.29413869989E+02 -0.19907456150E+02  0.24942736234E+02  0.47787278244E+02  0.20000032827E+02 0.  0.
         12    1    1    2    0    0 -0.29413869989E+02  0.19907456150E+02 -0.24942736234E+02  0.43400721756E+02  0.00000000000E+00 0. -1.
         11    1    3    3    0    0 -0.87876188765E+00 -0.87470134371E+00 -0.21927078589E+01  0.25189864850E+01  0.51100000000E-03 0. -1.
        -11    1    3    3    0    0  0.20516630624E+02 -0.13102176113E+02  0.21685984063E+02  0.32601856636E+02  0.51100000000E-03 0.  1.
        -12    1    3    3    0    0  0.97760012520E+01 -0.59305786930E+01  0.54494600305E+01  0.12666435123E+02  0.00000000000E+00 0.  1.
</event>
<event>
 7    1  0.4876728E-009  0.4778727E+02  0.7816164E-02  0.1312668E+00
        -11   -1    0    0    0    0  0.00000000000E+00  0.00000000000E+00  0.45593999997E+02  0.45594000000E+02  0.51100000000E-03 0.  1.
         11   -1    0    0    0    0 -0.00000000000E+00 -0.00000000000E+00 -0.45593999997E+02  0.45594000000E+02  0.51100000000E-03 0. -1.
    9900012    2    1    2    0    0 -0.89205573153E+01 -0.19877126403E+02  0.37535941859E+02  0.47787269267E+02  0.19999991898E+02 0.  0.
         12    1    1    2    0    0  0.89205573153E+01  0.19877126403E+02 -0.37535941859E+02  0.43400730733E+02  0.00000000000E+00 0. -1.
         11    1    3    3    0    0 -0.83764855615E+01 -0.11378552862E+02  0.27331114769E+02  0.30767300992E+02  0.51100000000E-03 0.  1.
        -11    1    3    3    0    0 -0.39819704205E+01 -0.43725404815E+01  0.50869215071E+00  0.59358206389E+01  0.51100000000E-03 0. -1.
        -12    1    3    3    0    0  0.34378986666E+01 -0.41260330598E+01  0.96961349397E+01  0.11084147636E+02  0.00000000000E+00 0.  1.
</event>
<event>
 7    1  0.4876728E-009  0.4778727E+02  0.7816164E-02  0.1312668E+00
        -11   -1    0    0    0    0  0.00000000000E+00  0.00000000000E+00  0.45593999997E+02  0.45594000000E+02  0.51100000000E-03 0.  1.
         11   -1    0    0    0    0 -0.00000000000E+00 -0.00000000000E+00 -0.45593999997E+02  0.45594000000E+02  0.51100000000E-03 0. -1.
    9900012    2    1    2    0    0  0.88868960601E+01 -0.42420290404E+02 -0.22727438520E+01  0.47787270466E+02  0.19999997361E+02 0.  0.
         12    1    1    2    0    0 -0.88868960601E+01  0.42420290404E+02  0.22727438520E+01  0.43400729534E+02  0.00000000000E+00 0. -1.
         11    1    3    3    0    0  0.37985770157E+00 -0.17071167232E+02 -0.85097945593E+01  0.19078407854E+02  0.51100000000E-03 0. -1.
        -11    1    3    3    0    0  0.15609737389E+01 -0.16254332441E+02  0.17729432570E+01  0.16425081131E+02  0.51100000000E-03 0.  1.
         12    1    3    3    0    0  0.69460646196E+01 -0.90947907303E+01  0.44641074503E+01  0.12283781480E+02  0.00000000000E+00 0. -1.
</event>
<event>
 7    1  0.4876728E-009  0.4778729E+02  0.7816164E-02  0.1312668E+00
        -11   -1    0    0    0    0  0.00000000000E+00  0.00000000000E+00  0.45593999997E+02  0.45594000000E+02  0.51100000000E-03 0. -1.
         11   -1    0    0    0    0 -0.00000000000E+00 -0.00000000000E+00 -0.45593999997E+02  0.45594000000E+02  0.51100000000E-03 0.  1.
    9900012    2    1    2    0    0  0.33212176971E+02 -0.16417624193E+02 -0.22606066457E+02  0.47787293509E+02  0.20000102424E+02 0.  0.
         12    1    1    2    0    0 -0.33212176971E+02  0.16417624193E+02  0.22606066457E+02  0.43400706491E+02  0.00000000000E+00 0. -1.
         11    1    3    3    0    0  0.21167289639E+02 -0.15600541110E+02 -0.20213152665E+02  0.33166286716E+02  0.51100000000E-03 0. -1.
        -11    1    3    3    0    0  0.12288137187E+02 -0.23965794714E+01 -0.11046486674E+01  0.12568299711E+02  0.51100000000E-03 0.  1.
         12    1    3    3    0    0 -0.24324985583E+00  0.15794963881E+01 -0.12882651244E+01  0.20527070817E+01  0.00000000000E+00 0. -1.
</event>
<event>
 7    1  0.4876728E-009  0.4778728E+02  0.7816164E-02  0.1312668E+00
        -11   -1    0    0    0    0  0.00000000000E+00  0.00000000000E+00  0.45593999997E+02  0.45594000000E+02  0.51100000000E-03 0.  1.
         11   -1    0    0    0    0 -0.00000000000E+00 -0.00000000000E+00 -0.45593999997E+02  0.45594000000E+02  0.51100000000E-03 0. -1.
    9900012    2    1    2    0    0  0.59003299865E+01  0.10695752679E+02  0.41646238226E+02  0.47787283673E+02  0.20000057580E+02 0.  0.
         12    1    1    2    0    0 -0.59003299865E+01 -0.10695752679E+02 -0.41646238226E+02  0.43400716327E+02  0.00000000000E+00 0. -1.
         11    1    3    3    0    0  0.74814494551E+00 -0.10325090617E+01 -0.16695743797E+01  0.21007795440E+01  0.51100000000E-03 0. -1.
        -11    1    3    3    0    0  0.37535810312E+01  0.64608047713E+01  0.34672057458E+02  0.35468055170E+02  0.51100000000E-03 0.  1.
        -12    1    3    3    0    0  0.13986040098E+01  0.52674569693E+01  0.86437551470E+01  0.10218448960E+02  0.00000000000E+00 0.  1.
</event>
<event>
 7    1  0.4876728E-009  0.4778727E+02  0.7816164E-02  0.1312668E+00
        -11   -1    0    0    0    0  0.00000000000E+00  0.00000000000E+00  0.45593999997E+02  0.45594000000E+02  0.51100000000E-03 0.  1.
         11   -1    0    0    0    0 -0.00000000000E+00 -0.00000000000E+00 -0.45593999997E+02  0.45594000000E+02  0.51100000000E-03 0. -1.
    9900012    2    1    2    0    0  0.49180720573E+00  0.35995309435E+02  0.24242923719E+02  0.47787268138E+02  0.19999986751E+02 0.  0.
         12    1    1    2    0    0 -0.49180720573E+00 -0.35995309435E+02 -0.24242923719E+02  0.43400731862E+02  0.00000000000E+00 0. -1.
         11    1    3    3    0    0  0.44670125254E+01  0.85388882311E+01  0.98228602002E+01  0.13760646638E+02  0.51100000000E-03 0. -1.
        -11    1    3    3    0    0  0.44517326563E+01  0.14992753116E+02  0.89397751602E+01  0.18014442812E+02  0.51100000000E-03 0.  1.
         12    1    3    3    0    0 -0.84269379760E+01  0.12463668088E+02  0.54802883589E+01  0.16012178688E+02  0.00000000000E+00 0. -1.
</event>
<event>
 7    1  0.4876728E-009  0.4778723E+02  0.7816164E-02  0.1312668E+00
        -11   -1    0    0    0    0  0.00000000000E+00  0.00000000000E+00  0.45593999997E+02  0.45594000000E+02  0.51100000000E-03 0. -1.
         11   -1    0    0    0    0 -0.00000000000E+00 -0.00000000000E+00 -0.45593999997E+02  0.45594000000E+02  0.51100000000E-03 0.  1.
    9900012    2    1    2    0    0 -0.29969129072E+02  0.26739497240E+02 -0.16446188427E+02  0.47787233604E+02  0.19999829292E+02 0.  0.
         12    1    1    2    0    0  0.29969129072E+02 -0.26739497240E+02  0.16446188427E+02  0.43400766396E+02  0.00000000000E+00 0. -1.
         11    1    3    3    0    0 -0.12936534974E+01  0.59169285129E+00  0.21559672330E+01  0.25829895030E+01  0.51100000000E-03 0. -1.
        -11    1    3    3    0    0 -0.22868688352E+02  0.21536671889E+02 -0.20549561736E+02  0.37537842650E+02  0.51100000000E-03 0.  1.
        -12    1    3    3    0    0 -0.58067872232E+01  0.46111324994E+01  0.19474060760E+01  0.76664014509E+01  0.00000000000E+00 0.  1.
</event>
<event>
 7    1  0.4876728E-009  0.4778727E+02  0.7816164E-02  0.1312668E+00
        -11   -1    0    0    0    0  0.00000000000E+00  0.00000000000E+00  0.45593999997E+02  0.45594000000E+02  0.51100000000E-03 0.  1.
         11   -1    0    0    0    0 -0.00000000000E+00 -0.00000000000E+00 -0.45593999997E+02  0.45594000000E+02  0.51100000000E-03 0. -1.
    9900012    2    1    2    0    0 -0.27596814572E+02  0.33062227057E+02  0.53785302110E+01  0.47787267060E+02  0.19999981834E+02 0.  0.
         12    1    1    2    0    0  0.27596814572E+02 -0.33062227057E+02 -0.53785302110E+01  0.43400732940E+02  0.00000000000E+00 0. -1.
         11    1    3    3    0    0 -0.31231518802E+01  0.20996898460E+01 -0.33975845121E+01  0.50701435773E+01  0.51100000000E-03 0. -1.
        -11    1    3    3    0    0 -0.15145208555E+02  0.28264598974E+02  0.73999558427E+01  0.32909333692E+02  0.51100000000E-03 0.  1.
        -12    1    3    3    0    0 -0.93284541369E+01  0.26979382374E+01  0.13761588804E+01  0.98077897908E+01  0.00000000000E+00 0.  1.
</event>
<event>
 7    1  0.4876728E-009  0.4778728E+02  0.7816164E-02  0.1312668E+00
        -11   -1    0    0    0    0  0.00000000000E+00  0.00000000000E+00  0.45593999997E+02  0.45594000000E+02  0.51100000000E-03 0.  1.
         11   -1    0    0    0    0 -0.00000000000E+00 -0.00000000000E+00 -0.45593999997E+02  0.45594000000E+02  0.51100000000E-03 0. -1.
    9900012    2    1    2    0    0 -0.99979981138E+01  0.30840771332E+02  0.28853239378E+02  0.47787279208E+02  0.20000037222E+02 0.  0.
         12    1    1    2    0    0  0.99979981138E+01 -0.30840771332E+02 -0.28853239378E+02  0.43400720792E+02  0.00000000000E+00 0. -1.
         11    1    3    3    0    0 -0.38107684979E+01  0.45927307284E+01  0.47143298919E+01  0.76052638796E+01  0.51100000000E-03 0. -1.
        -11    1    3    3    0    0 -0.11144339743E+02  0.10958817195E+02  0.86645403455E+01  0.17870820973E+02  0.51100000000E-03 0.  1.
        -12    1    3    3    0    0  0.49571101267E+01  0.15289223409E+02  0.15474369141E+02  0.22311194355E+02  0.00000000000E+00 0.  1.
</event>
<event>
 7    1  0.4876728E-009  0.4778727E+02  0.7816164E-02  0.1312668E+00
        -11   -1    0    0    0    0  0.00000000000E+00  0.00000000000E+00  0.45593999997E+02  0.45594000000E+02  0.51100000000E-03 0.  1.
         11   -1    0    0    0    0 -0.00000000000E+00 -0.00000000000E+00 -0.45593999997E+02  0.45594000000E+02  0.51100000000E-03 0. -1.
    9900012    2    1    2    0    0  0.20489335879E+02  0.36634721305E+01  0.38083979272E+02  0.47787269707E+02  0.19999993900E+02 0.  0.
         12    1    1    2    0    0 -0.20489335879E+02 -0.36634721305E+01 -0.38083979272E+02  0.43400730293E+02  0.00000000000E+00 0. -1.
         11    1    3    3    0    0  0.17269950274E+02  0.82299016182E+01  0.27074677460E+02  0.33151479950E+02  0.51100000000E-03 0. -1.
        -11    1    3    3    0    0  0.53160533952E+01 -0.87826122057E+00  0.65369428496E+01  0.84713274374E+01  0.51100000000E-03 0.  1.
         12    1    3    3    0    0 -0.20966677898E+01 -0.36881682671E+01  0.44723589628E+01  0.61644623187E+01  0.00000000000E+00 0. -1.
</event>
<event>
 7    1  0.4876728E-009  0.4778727E+02  0.7816164E-02  0.1312668E+00
        -11   -1    0    0    0    0  0.00000000000E+00  0.00000000000E+00  0.45593999997E+02  0.45594000000E+02  0.51100000000E-03 0.  1.
         11   -1    0    0    0    0 -0.00000000000E+00 -0.00000000000E+00 -0.45593999997E+02  0.45594000000E+02  0.51100000000E-03 0. -1.
    9900012    2    1    2    0    0 -0.31211531239E+02  0.30044183638E+02  0.26097390207E+01  0.47787269700E+02  0.19999993872E+02 0.  0.
         12    1    1    2    0    0  0.31211531239E+02 -0.30044183638E+02 -0.26097390207E+01  0.43400730300E+02  0.00000000000E+00 0. -1.
         11    1    3    3    0    0 -0.13399261199E+02  0.63343839723E+01  0.83892774107E+01  0.17030695720E+02  0.51100000000E-03 0.  1.
        -11    1    3    3    0    0 -0.13694138606E+02  0.17271853572E+02 -0.67512050247E+01  0.23052659880E+02  0.51100000000E-03 0. -1.
         12    1    3    3    0    0 -0.41181314348E+01  0.64379460938E+01  0.97166663471E+00  0.77039141006E+01  0.00000000000E+00 0. -1.
</event>
<event>
 7    1  0.4876728E-009  0.4778727E+02  0.7816164E-02  0.1312668E+00
        -11   -1    0    0    0    0  0.00000000000E+00  0.00000000000E+00  0.45593999997E+02  0.45594000000E+02  0.51100000000E-03 0.  1.
         11   -1    0    0    0    0 -0.00000000000E+00 -0.00000000000E+00 -0.45593999997E+02  0.45594000000E+02  0.51100000000E-03 0. -1.
    9900012    2    1    2    0    0  0.16199347308E+02 -0.39237779313E+02 -0.90333435409E+01  0.47787268737E+02  0.19999989479E+02 0.  0.
         12    1    1    2    0    0 -0.16199347308E+02  0.39237779313E+02  0.90333435409E+01  0.43400731263E+02  0.00000000000E+00 0. -1.
         11    1    3    3    0    0  0.63505273919E+01 -0.90986480827E+01 -0.25268247635E+01  0.11379782016E+02  0.51100000000E-03 0.  1.
        -11    1    3    3    0    0  0.13919291504E+02 -0.20398087178E+02 -0.74870672208E+01  0.25804743989E+02  0.51100000000E-03 0. -1.
        -12    1    3    3    0    0 -0.40704715882E+01 -0.97410440525E+01  0.98054844347E+00  0.10602742732E+02  0.00000000000E+00 0.  1.
</event>
<event>
 7    1  0.4876728E-009  0.4778728E+02  0.7816164E-02  0.1312668E+00
        -11   -1    0    0    0    0  0.00000000000E+00  0.00000000000E+00  0.45593999997E+02  0.45594000000E+02  0.51100000000E-03 0. -1.
         11   -1    0    0    0    0 -0.00000000000E+00 -0.00000000000E+00 -0.45593999997E+02  0.45594000000E+02  0.51100000000E-03 0.  1.
    9900012    2    1    2    0    0  0.14502870359E+02 -0.38818758279E+02 -0.12899354306E+02  0.47787278986E+02  0.20000036210E+02 0.  0.
         12    1    1    2    0    0 -0.14502870359E+02  0.38818758279E+02  0.12899354306E+02  0.43400721014E+02  0.00000000000E+00 0. -1.
         11    1    3    3    0    0  0.78733370244E+00 -0.22543684760E+01  0.41437817684E+01  0.47825724449E+01  0.51100000000E-03 0. -1.
        -11    1    3    3    0    0  0.10425386793E+02 -0.32892687618E+02 -0.14195597497E+02  0.37311292890E+02  0.51100000000E-03 0.  1.
         12    1    3    3    0    0  0.32901498641E+01 -0.36717021849E+01 -0.28475385767E+01  0.56934136516E+01  0.00000000000E+00 0. -1.
</event>
<event>
 7    1  0.4876728E-009  0.4778726E+02  0.7816164E-02  0.1312668E+00
        -11   -1    0    0    0    0  0.00000000000E+00  0.00000000000E+00  0.45593999997E+02  0.45594000000E+02  0.51100000000E-03 0.  1.
         11   -1    0    0    0    0 -0.00000000000E+00 -0.00000000000E+00 -0.45593999997E+02  0.45594000000E+02  0.51100000000E-03 0. -1.
    9900012    2    1    2    0    0 -0.14656767150E+02  0.15220477097E+02  0.37909633597E+02  0.47787261921E+02  0.19999958404E+02 0.  0.
         12    1    1    2    0    0  0.14656767150E+02 -0.15220477097E+02 -0.37909633597E+02  0.43400738079E+02  0.00000000000E+00 0. -1.
         11    1    3    3    0    0 -0.33339009609E+01 -0.71913364785E+00  0.15393589283E+02  0.15766884286E+02  0.51100000000E-03 0. -1.
        -11    1    3    3    0    0 -0.11722641344E+02  0.15855171108E+02  0.23663655859E+02  0.30802197646E+02  0.51100000000E-03 0.  1.
        -12    1    3    3    0    0  0.39977515532E+00  0.84439636549E-01 -0.11476115452E+01  0.12181799891E+01  0.00000000000E+00 0.  1.
</event>
<event>
 7    1  0.4876728E-009  0.4778727E+02  0.7816164E-02  0.1312668E+00
        -11   -1    0    0    0    0  0.00000000000E+00  0.00000000000E+00  0.45593999997E+02  0.45594000000E+02  0.51100000000E-03 0.  1.
         11   -1    0    0    0    0 -0.00000000000E+00 -0.00000000000E+00 -0.45593999997E+02  0.45594000000E+02  0.51100000000E-03 0. -1.
    9900012    2    1    2    0    0  0.18390373591E+02 -0.38750139940E+02  0.66214919386E+01  0.47787270263E+02  0.19999996438E+02 0.  0.
         12    1    1    2    0    0 -0.18390373591E+02  0.38750139940E+02 -0.66214919386E+01  0.43400729737E+02  0.00000000000E+00 0. -1.
         11    1    3    3    0    0  0.44200342200E+01 -0.28116812248E+02  0.21559929572E+01  0.28543653224E+02  0.51100000000E-03 0. -1.
        -11    1    3    3    0    0 -0.61582247766E+00 -0.10804986635E+01 -0.49683314557E-02  0.12436798749E+01  0.51100000000E-03 0.  1.
         12    1    3    3    0    0  0.14586161848E+02 -0.95528290289E+01  0.44704673129E+01  0.17999937164E+02  0.00000000000E+00 0. -1.
</event>
<event>
 7    1  0.4876728E-009  0.4778726E+02  0.7816164E-02  0.1312668E+00
        -11   -1    0    0    0    0  0.00000000000E+00  0.00000000000E+00  0.45593999997E+02  0.45594000000E+02  0.51100000000E-03 0. -1.
         11   -1    0    0    0    0 -0.00000000000E+00 -0.00000000000E+00 -0.45593999997E+02  0.45594000000E+02  0.51100000000E-03 0.  1.
    9900012    2    1    2    0    0 -0.42899468234E+02 -0.65337941296E+01  0.75443355734E+00  0.47787262559E+02  0.19999961310E+02 0.  0.
         12    1    1    2    0    0  0.42899468234E+02  0.65337941296E+01 -0.75443355734E+00  0.43400737441E+02  0.00000000000E+00 0. -1.
         11    1    3    3    0    0  0.85244042125E+00 -0.28004965744E+01 -0.14044953179E+01  0.32468512584E+01  0.51100000000E-03 0. -1.
        -11    1    3    3    0    0 -0.40716884545E+02 -0.20141548232E+01  0.73619704269E+00  0.40773318396E+02  0.51100000000E-03 0.  1.
        -12    1    3    3    0    0 -0.30350241104E+01 -0.17191427319E+01  0.14227318325E+01  0.37670929044E+01  0.00000000000E+00 0.  1.
</event>
<event>
 7    1  0.4876728E-009  0.4778727E+02  0.7816164E-02  0.1312668E+00
        -11   -1    0    0    0    0  0.00000000000E+00  0.00000000000E+00  0.45593999997E+02  0.45594000000E+02  0.51100000000E-03 0.  1.
         11   -1    0    0    0    0 -0.00000000000E+00 -0.00000000000E+00 -0.45593999997E+02  0.45594000000E+02  0.51100000000E-03 0. -1.
    9900012    2    1    2    0    0  0.34245930159E+01  0.32669739024E+02  0.28365186474E+02  0.47787268567E+02  0.19999988704E+02 0.  0.
         12    1    1    2    0    0 -0.34245930159E+01 -0.32669739024E+02 -0.28365186474E+02  0.43400731433E+02  0.00000000000E+00 0. -1.
         11    1    3    3    0    0  0.27845369089E+01 -0.34932476117E+00  0.41840982917E+01  0.50380901502E+01  0.51100000000E-03 0. -1.
        -11    1    3    3    0    0  0.27912655057E+01  0.25121725789E+02  0.23538087060E+02  0.34538873931E+02  0.51100000000E-03 0.  1.
         12    1    3    3    0    0 -0.21512093986E+01  0.78973379959E+01  0.64300112267E+00  0.82103044853E+01  0.00000000000E+00 0. -1.
</event>
<event>
 7    1  0.4876728E-009  0.4778727E+02  0.7816164E-02  0.1312668E+00
        -11   -1    0    0    0    0  0.00000000000E+00  0.00000000000E+00  0.45593999997E+02  0.45594000000E+02  0.51100000000E-03 0.  1.
         11   -1    0    0    0    0 -0.00000000000E+00 -0.00000000000E+00 -0.45593999997E+02  0.45594000000E+02  0.51100000000E-03 0. -1.
    9900012    2    1    2    0    0  0.19439128425E+02 -0.47187437777E+01  0.38515932825E+02  0.47787270304E+02  0.19999996625E+02 0.  0.
         12    1    1    2    0    0 -0.19439128425E+02  0.47187437777E+01 -0.38515932825E+02  0.43400729696E+02  0.00000000000E+00 0. -1.
         11    1    3    3    0    0  0.62238206362E+00 -0.15628297175E+01  0.68988694960E+01  0.71009997002E+01  0.51100000000E-03 0. -1.
        -11    1    3    3    0    0  0.69086223186E+01 -0.92435048151E+01  0.19396848326E+02  0.22570094569E+02  0.51100000000E-03 0.  1.
        -12    1    3    3    0    0  0.11908124043E+02  0.60875907549E+01  0.12220215003E+02  0.18116176035E+02  0.00000000000E+00 0.  1.
</event>
<event>
 7    1  0.4876728E-009  0.4778726E+02  0.7816164E-02  0.1312668E+00
        -11   -1    0    0    0    0  0.00000000000E+00  0.00000000000E+00  0.45593999997E+02  0.45594000000E+02  0.51100000000E-03 0.  1.
         11   -1    0    0    0    0 -0.00000000000E+00 -0.00000000000E+00 -0.45593999997E+02  0.45594000000E+02  0.51100000000E-03 0. -1.
    9900012    2    1    2    0    0  0.25566063126E+02  0.40655390655E+01  0.34834919723E+02  0.47787264710E+02  0.19999971117E+02 0.  0.
         12    1    1    2    0    0 -0.25566063126E+02 -0.40655390655E+01 -0.34834919723E+02  0.43400735290E+02  0.00000000000E+00 0. -1.
         11    1    3    3    0    0  0.16409122143E+01  0.59557016735E+01  0.61238017938E+01  0.86985012496E+01  0.51100000000E-03 0. -1.
        -11    1    3    3    0    0  0.19816653355E+02 -0.40804726197E-01  0.28322051123E+02  0.34566457662E+02  0.51100000000E-03 0.  1.
        -12    1    3    3    0    0  0.41084975570E+01 -0.18493578818E+01  0.38906680557E+00  0.45223057980E+01  0.00000000000E+00 0.  1.
</event>
<event>
 7    1  0.4876728E-009  0.4778727E+02  0.7816164E-02  0.1312668E+00
        -11   -1    0    0    0    0  0.00000000000E+00  0.00000000000E+00  0.45593999997E+02  0.45594000000E+02  0.51100000000E-03 0.  1.
         11   -1    0    0    0    0 -0.00000000000E+00 -0.00000000000E+00 -0.45593999997E+02  0.45594000000E+02  0.51100000000E-03 0. -1.
    9900012    2    1    2    0    0  0.20757594653E+02  0.69092905342E+01  0.37483425213E+02  0.47787271928E+02  0.20000004030E+02 0.  0.
         12    1    1    2    0    0 -0.20757594653E+02 -0.69092905342E+01 -0.37483425213E+02  0.43400728072E+02  0.00000000000E+00 0. -1.
         11    1    3    3    0    0  0.88230435279E+01  0.59938462494E+01  0.26643662528E+02  0.28699425833E+02  0.51100000000E-03 0.  1.
        -11    1    3    3    0    0 -0.14106885954E+01 -0.11447359963E+01  0.29035027127E+01  0.34250242449E+01  0.51100000000E-03 0. -1.
         12    1    3    3    0    0  0.13345239720E+02  0.20601802811E+01  0.79362599725E+01  0.15662821851E+02  0.00000000000E+00 0. -1.
</event>
<event>
 7    1  0.4876728E-009  0.4778728E+02  0.7816164E-02  0.1312668E+00
        -11   -1    0    0    0    0  0.00000000000E+00  0.00000000000E+00  0.45593999997E+02  0.45594000000E+02  0.51100000000E-03 0.  1.
         11   -1    0    0    0    0 -0.00000000000E+00 -0.00000000000E+00 -0.45593999997E+02  0.45594000000E+02  0.51100000000E-03 0. -1.
    9900012    2    1    2    0    0  0.18183046201E+02  0.20581106368E+02  0.33606811028E+02  0.47787275860E+02  0.20000021954E+02 0.  0.
         12    1    1    2    0    0 -0.18183046201E+02 -0.20581106368E+02 -0.33606811028E+02  0.43400724140E+02  0.00000000000E+00 0. -1.
         11    1    3    3    0    0  0.12815068513E+02  0.74487581322E+01  0.16092375993E+02  0.21878632134E+02  0.51100000000E-03 0. -1.
        -11    1    3    3    0    0  0.99123020108E+00  0.98837964276E+01  0.29568496809E+01  0.10364117398E+02  0.51100000000E-03 0.  1.
        -12    1    3    3    0    0  0.43767474868E+01  0.32485518078E+01  0.14557585354E+02  0.15544526328E+02  0.00000000000E+00 0.  1.
</event>
<event>
 7    1  0.4876728E-009  0.4778721E+02  0.7816164E-02  0.1312668E+00
        -11   -1    0    0    0    0  0.00000000000E+00  0.00000000000E+00  0.45593999997E+02  0.45594000000E+02  0.51100000000E-03 0.  1.
         11   -1    0    0    0    0 -0.00000000000E+00 -0.00000000000E+00 -0.45593999997E+02  0.45594000000E+02  0.51100000000E-03 0. -1.
    9900012    2    1    2    0    0  0.12342114504E+02  0.27079846336E+02  0.31590866190E+02  0.47787208594E+02  0.19999715263E+02 0.  0.
         12    1    1    2    0    0 -0.12342114504E+02 -0.27079846336E+02 -0.31590866190E+02  0.43400791406E+02  0.00000000000E+00 0. -1.
         11    1    3    3    0    0 -0.74904623706E+00 -0.21408116063E+01  0.70198582182E+01  0.73771643782E+01  0.51100000000E-03 0. -1.
        -11    1    3    3    0    0  0.81306974771E+01  0.15766061278E+02  0.13326233985E+02  0.22187055735E+02  0.51100000000E-03 0.  1.
         12    1    3    3    0    0  0.49604632638E+01  0.13454596664E+02  0.11244773986E+02  0.18222988482E+02  0.00000000000E+00 0. -1.
</event>
<event>
 7    1  0.4876728E-009  0.4778727E+02  0.7816164E-02  0.1312668E+00
        -11   -1    0    0    0    0  0.00000000000E+00  0.00000000000E+00  0.45593999997E+02  0.45594000000E+02  0.51100000000E-03 0. -1.
         11   -1    0    0    0    0 -0.00000000000E+00 -0.00000000000E+00 -0.45593999997E+02  0.45594000000E+02  0.51100000000E-03 0.  1.
    9900012    2    1    2    0    0  0.23419902163E+02  0.33935708772E+02  0.13546186682E+02  0.47787270503E+02  0.19999997533E+02 0.  0.
         12    1    1    2    0    0 -0.23419902163E+02 -0.33935708772E+02 -0.13546186682E+02  0.43400729497E+02  0.00000000000E+00 0. -1.
         11    1    3    3    0    0  0.19185083149E+02  0.19742599785E+02  0.26735985690E+01  0.27658376512E+02  0.51100000000E-03 0. -1.
        -11    1    3    3    0    0  0.33819775995E+01  0.14668129987E+01  0.56432381346E+00  0.37293128703E+01  0.51100000000E-03 0.  1.
         12    1    3    3    0    0  0.85284141462E+00  0.12726295989E+02  0.10308264300E+02  0.16399581121E+02  0.00000000000E+00 0. -1.
</event>
<event>
 7    1  0.4876728E-009  0.4778727E+02  0.7816164E-02  0.1312668E+00
        -11   -1    0    0    0    0  0.00000000000E+00  0.00000000000E+00  0.45593999997E+02  0.45594000000E+02  0.51100000000E-03 0.  1.
         11   -1    0    0    0    0 -0.00000000000E+00 -0.00000000000E+00 -0.45593999997E+02  0.45594000000E+02  0.51100000000E-03 0. -1.
    9900012    2    1    2    0    0 -0.32148873301E+02 -0.26354897259E+02 -0.12469663116E+02  0.47787272330E+02  0.20000005863E+02 0.  0.
         12    1    1    2    0    0  0.32148873301E+02  0.26354897259E+02  0.12469663116E+02  0.43400727670E+02  0.00000000000E+00 0. -1.
         11    1    3    3    0    0 -0.77579536400E+01 -0.22513159206E+01  0.23871068208E+00  0.80815376696E+01  0.51100000000E-03 0. -1.
        -11    1    3    3    0    0 -0.20130842750E+02 -0.23151306012E+02 -0.15651235779E+02  0.34441181478E+02  0.51100000000E-03 0.  1.
        -12    1    3    3    0    0 -0.42600769103E+01 -0.95227532584E+00  0.29428619807E+01  0.52645531829E+01  0.00000000000E+00 0.  1.
</event>
<event>
 7    1  0.4876728E-009  0.4778727E+02  0.7816164E-02  0.1312668E+00
        -11   -1    0    0    0    0  0.00000000000E+00  0.00000000000E+00  0.45593999997E+02  0.45594000000E+02  0.51100000000E-03 0.  1.
         11   -1    0    0    0    0 -0.00000000000E+00 -0.00000000000E+00 -0.45593999997E+02  0.45594000000E+02  0.51100000000E-03 0. -1.
    9900012    2    1    2    0    0  0.13174061413E+02  0.30300473853E+02  0.28141581488E+02  0.47787271683E+02  0.20000002909E+02 0.  0.
         12    1    1    2    0    0 -0.13174061413E+02 -0.30300473853E+02 -0.28141581488E+02  0.43400728317E+02  0.00000000000E+00 0. -1.
         11    1    3    3    0    0 -0.28999422824E+01  0.87843977342E+01  0.15235663740E+02  0.17824162215E+02  0.51100000000E-03 0. -1.
        -11    1    3    3    0    0  0.61297315075E+01  0.88357731606E+01  0.35243920741E+01  0.11316617668E+02  0.51100000000E-03 0.  1.
         12    1    3    3    0    0  0.99442721877E+01  0.12680302958E+02  0.93815256744E+01  0.18646491800E+02  0.00000000000E+00 0. -1.
</event>
<event>
 7    1  0.4876728E-009  0.4778727E+02  0.7816164E-02  0.1312668E+00
        -11   -1    0    0    0    0  0.00000000000E+00  0.00000000000E+00  0.45593999997E+02  0.45594000000E+02  0.51100000000E-03 0.  1.
         11   -1    0    0    0    0 -0.00000000000E+00 -0.00000000000E+00 -0.45593999997E+02  0.45594000000E+02  0.51100000000E-03 0. -1.
    9900012    2    1    2    0    0  0.11156735679E+02 -0.37574690618E+02  0.18635810292E+02  0.47787267848E+02  0.19999985428E+02 0.  0.
         12    1    1    2    0    0 -0.11156735679E+02  0.37574690618E+02 -0.18635810292E+02  0.43400732152E+02  0.00000000000E+00 0. -1.
         11    1    3    3    0    0  0.94876654221E+01 -0.93094086847E+01  0.71793901799E+01  0.15107101934E+02  0.51100000000E-03 0. -1.
        -11    1    3    3    0    0  0.54943504110E+01 -0.89340633144E+01  0.65738362326E+01  0.12378234802E+02  0.51100000000E-03 0.  1.
         12    1    3    3    0    0 -0.38252801545E+01 -0.19331218619E+02  0.48825838799E+01  0.20301931112E+02  0.00000000000E+00 0. -1.
</event>
<event>
 7    1  0.4876728E-009  0.4778727E+02  0.7816164E-02  0.1312668E+00
        -11   -1    0    0    0    0  0.00000000000E+00  0.00000000000E+00  0.45593999997E+02  0.45594000000E+02  0.51100000000E-03 0.  1.
         11   -1    0    0    0    0 -0.00000000000E+00 -0.00000000000E+00 -0.45593999997E+02  0.45594000000E+02  0.51100000000E-03 0. -1.
    9900012    2    1    2    0    0 -0.17012994672E+01 -0.42538861548E+02 -0.84364621672E+01  0.47787273560E+02  0.20000011468E+02 0.  0.
         12    1    1    2    0    0  0.17012994672E+01  0.42538861548E+02  0.84364621672E+01  0.43400726440E+02  0.00000000000E+00 0. -1.
         11    1    3    3    0    0  0.49801238726E+01 -0.83514660318E+01  0.29632652068E+01  0.10165114835E+02  0.51100000000E-03 0. -1.
        -11    1    3    3    0    0 -0.78744008551E+00 -0.10819548222E+00  0.61982724254E+00  0.10079455453E+01  0.51100000000E-03 0.  1.
         12    1    3    3    0    0 -0.58939832543E+01 -0.34079200034E+02 -0.12019554617E+02  0.36614213179E+02  0.00000000000E+00 0. -1.
</event>
<event>
 7    1  0.4876728E-009  0.4778726E+02  0.7816164E-02  0.1312668E+00
        -11   -1    0    0    0    0  0.00000000000E+00  0.00000000000E+00  0.45593999997E+02  0.45594000000E+02  0.51100000000E-03 0. -1.
         11   -1    0    0    0    0 -0.00000000000E+00 -0.00000000000E+00 -0.45593999997E+02  0.45594000000E+02  0.51100000000E-03 0.  1.
    9900012    2    1    2    0    0 -0.65032756745E+01 -0.38275877330E+02 -0.19398158625E+02  0.47787263394E+02  0.19999965118E+02 0.  0.
         12    1    1    2    0    0  0.65032756745E+01  0.38275877330E+02  0.19398158625E+02  0.43400736606E+02  0.00000000000E+00 0. -1.
         11    1    3    3    0    0 -0.77372404531E+00 -0.67000392282E+01  0.43722379270E+00  0.67587232126E+01  0.51100000000E-03 0. -1.
        -11    1    3    3    0    0  0.43494248601E+01 -0.18363288155E+02 -0.73891405037E+01  0.20266406838E+02  0.51100000000E-03 0.  1.
        -12    1    3    3    0    0 -0.10078976489E+02 -0.13212549947E+02 -0.12446241915E+02  0.20762133343E+02  0.00000000000E+00 0.  1.
</event>
<event>
 7    1  0.4876728E-009  0.4778727E+02  0.7816164E-02  0.1312668E+00
        -11   -1    0    0    0    0  0.00000000000E+00  0.00000000000E+00  0.45593999997E+02  0.45594000000E+02  0.51100000000E-03 0.  1.
         11   -1    0    0    0    0 -0.00000000000E+00 -0.00000000000E+00 -0.45593999997E+02  0.45594000000E+02  0.51100000000E-03 0. -1.
    9900012    2    1    2    0    0 -0.16295308284E+02 -0.34375745279E+02  0.20890052410E+02  0.47787271604E+02  0.20000002552E+02 0.  0.
         12    1    1    2    0    0  0.16295308284E+02  0.34375745279E+02 -0.20890052410E+02  0.43400728396E+02  0.00000000000E+00 0. -1.
         11    1    3    3    0    0 -0.51208445567E+01 -0.90602931803E+01 -0.99458738301E+00  0.10454719786E+02  0.51100000000E-03 0. -1.
        -11    1    3    3    0    0 -0.94234409168E+01 -0.21129040323E+02  0.23039011069E+02  0.32650170214E+02  0.51100000000E-03 0.  1.
        -12    1    3    3    0    0 -0.17510228106E+01 -0.41864117762E+01 -0.11543712758E+01  0.46823816040E+01  0.00000000000E+00 0.  1.
</event>
<event>
 7    1  0.4876728E-009  0.4778727E+02  0.7816164E-02  0.1312668E+00
        -11   -1    0    0    0    0  0.00000000000E+00  0.00000000000E+00  0.45593999997E+02  0.45594000000E+02  0.51100000000E-03 0.  1.
         11   -1    0    0    0    0 -0.00000000000E+00 -0.00000000000E+00 -0.45593999997E+02  0.45594000000E+02  0.51100000000E-03 0. -1.
    9900012    2    1    2    0    0  0.19689841456E+02 -0.37245130980E+02  0.10427531979E+02  0.47787273491E+02  0.20000011156E+02 0.  0.
         12    1    1    2    0    0 -0.19689841456E+02  0.37245130980E+02 -0.10427531979E+02  0.43400726509E+02  0.00000000000E+00 0. -1.
         11    1    3    3    0    0  0.63413304248E+01 -0.24620921014E+01  0.63032722123E+01  0.92739209569E+01  0.51100000000E-03 0. -1.
        -11    1    3    3    0    0  0.46114084066E+01 -0.19634084859E+02  0.56895474549E+01  0.20955508256E+02  0.51100000000E-03 0.  1.
         12    1    3    3    0    0  0.87371026251E+01 -0.15148954020E+02 -0.15652876886E+01  0.17557844279E+02  0.00000000000E+00 0. -1.
</event>
<event>
 7    1  0.4876728E-009  0.4778726E+02  0.7816164E-02  0.1312668E+00
        -11   -1    0    0    0    0  0.00000000000E+00  0.00000000000E+00  0.45593999997E+02  0.45594000000E+02  0.51100000000E-03 0.  1.
         11   -1    0    0    0    0 -0.00000000000E+00 -0.00000000000E+00 -0.45593999997E+02  0.45594000000E+02  0.51100000000E-03 0. -1.
    9900012    2    1    2    0    0  0.21649811315E+01  0.14812822684E+02  0.40737169386E+02  0.47787264652E+02  0.19999970853E+02 0.  0.
         12    1    1    2    0    0 -0.21649811315E+01 -0.14812822684E+02 -0.40737169386E+02  0.43400735348E+02  0.00000000000E+00 0. -1.
         11    1    3    3    0    0 -0.15300630160E+01  0.54490278210E+00 -0.17630041949E+01  0.23971224264E+01  0.51100000000E-03 0. -1.
        -11    1    3    3    0    0 -0.54099121058E+00  0.74803903062E+01  0.25873245929E+02  0.26938332646E+02  0.51100000000E-03 0.  1.
         12    1    3    3    0    0  0.42360353581E+01  0.67875295956E+01  0.16626927653E+02  0.18451809579E+02  0.00000000000E+00 0. -1.
</event>
<event>
 7    1  0.4876728E-009  0.4778727E+02  0.7816164E-02  0.1312668E+00
        -11   -1    0    0    0    0  0.00000000000E+00  0.00000000000E+00  0.45593999997E+02  0.45594000000E+02  0.51100000000E-03 0.  1.
         11   -1    0    0    0    0 -0.00000000000E+00 -0.00000000000E+00 -0.45593999997E+02  0.45594000000E+02  0.51100000000E-03 0. -1.
    9900012    2    1    2    0    0 -0.19834929688E+02  0.12970136098E+02  0.36358966372E+02  0.47787270723E+02  0.19999998536E+02 0.  0.
         12    1    1    2    0    0  0.19834929688E+02 -0.12970136098E+02 -0.36358966372E+02  0.43400729277E+02  0.00000000000E+00 0. -1.
         11    1    3    3    0    0 -0.39189150819E+01  0.38475158086E+01  0.30024536970E+01  0.62590735561E+01  0.51100000000E-03 0. -1.
        -11    1    3    3    0    0 -0.21233600184E+01 -0.58386032730E+00 -0.15957249065E+01  0.27195383593E+01  0.51100000000E-03 0.  1.
        -12    1    3    3    0    0 -0.13792654588E+02  0.97064806164E+01  0.34952237581E+02  0.38808658808E+02  0.00000000000E+00 0.  1.
</event>
<event>
 7    1  0.4876728E-009  0.4778727E+02  0.7816164E-02  0.1312668E+00
        -11   -1    0    0    0    0  0.00000000000E+00  0.00000000000E+00  0.45593999997E+02  0.45594000000E+02  0.51100000000E-03 0.  1.
         11   -1    0    0    0    0 -0.00000000000E+00 -0.00000000000E+00 -0.45593999997E+02  0.45594000000E+02  0.51100000000E-03 0. -1.
    9900012    2    1    2    0    0  0.13791521101E+02 -0.24963250211E+02  0.32714727886E+02  0.47787270328E+02  0.19999996734E+02 0.  0.
         12    1    1    2    0    0 -0.13791521101E+02  0.24963250211E+02 -0.32714727886E+02  0.43400729672E+02  0.00000000000E+00 0. -1.
         11    1    3    3    0    0  0.24784658842E+01 -0.13161363191E+02  0.55836456841E+01  0.14510043886E+02  0.51100000000E-03 0. -1.
        -11    1    3    3    0    0 -0.47986453591E+00 -0.11115905800E+00  0.77063022281E+01  0.77220282699E+01  0.51100000000E-03 0.  1.
         12    1    3    3    0    0  0.11792919753E+02 -0.11690727962E+02  0.19424779974E+02  0.25555198172E+02  0.00000000000E+00 0. -1.
</event>
<event>
 7    1  0.4876728E-009  0.4778727E+02  0.7816164E-02  0.1312668E+00
        -11   -1    0    0    0    0  0.00000000000E+00  0.00000000000E+00  0.45593999997E+02  0.45594000000E+02  0.51100000000E-03 0.  1.
         11   -1    0    0    0    0 -0.00000000000E+00 -0.00000000000E+00 -0.45593999997E+02  0.45594000000E+02  0.51100000000E-03 0. -1.
    9900012    2    1    2    0    0  0.53620994240E+01  0.15575589830E+02  0.40153110539E+02  0.47787269652E+02  0.19999993652E+02 0.  0.
         12    1    1    2    0    0 -0.53620994240E+01 -0.15575589830E+02 -0.40153110539E+02  0.43400730348E+02  0.00000000000E+00 0. -1.
         11    1    3    3    0    0  0.49233688880E+00 -0.57772557451E+00  0.44101528503E+00  0.87787083006E+00  0.51100000000E-03 0. -1.
        -11    1    3    3    0    0  0.31098365708E+01 -0.37519428749E+01  0.96665481851E+01  0.10825447469E+02  0.51100000000E-03 0.  1.
        -12    1    3    3    0    0  0.17599259643E+01  0.19905258279E+02  0.30045547069E+02  0.36083951353E+02  0.00000000000E+00 0.  1.
</event>
<event>
 7    1  0.4876728E-009  0.4778727E+02  0.7816164E-02  0.1312668E+00
        -11   -1    0    0    0    0  0.00000000000E+00  0.00000000000E+00  0.45593999997E+02  0.45594000000E+02  0.51100000000E-03 0.  1.
         11   -1    0    0    0    0 -0.00000000000E+00 -0.00000000000E+00 -0.45593999997E+02  0.45594000000E+02  0.51100000000E-03 0. -1.
    9900012    2    1    2    0    0  0.10705597282E+02  0.34671841497E+02  0.23809184336E+02  0.47787266541E+02  0.19999979468E+02 0.  0.
         12    1    1    2    0    0 -0.10705597282E+02 -0.34671841497E+02 -0.23809184336E+02  0.43400733459E+02  0.00000000000E+00 0. -1.
         11    1    3    3    0    0  0.68797755615E+01  0.32275784758E+02  0.23257034758E+02  0.40372605310E+02  0.51100000000E-03 0. -1.
        -11    1    3    3    0    0  0.98904179508E+00 -0.10565132183E+01  0.22157692386E+01  0.26465179827E+01  0.51100000000E-03 0.  1.
         12    1    3    3    0    0  0.28367799258E+01  0.34525699576E+01 -0.16636196608E+01  0.47681432482E+01  0.00000000000E+00 0. -1.
</event>
<event>
 7    1  0.4876728E-009  0.4778727E+02  0.7816164E-02  0.1312668E+00
        -11   -1    0    0    0    0  0.00000000000E+00  0.00000000000E+00  0.45593999997E+02  0.45594000000E+02  0.51100000000E-03 0.  1.
         11   -1    0    0    0    0 -0.00000000000E+00 -0.00000000000E+00 -0.45593999997E+02  0.45594000000E+02  0.51100000000E-03 0. -1.
    9900012    2    1    2    0    0  0.41849588117E+02 -0.41145516307E+01  0.10738035773E+02  0.47787274511E+02  0.20000015805E+02 0.  0.
         12    1    1    2    0    0 -0.41849588117E+02  0.41145516307E+01 -0.10738035773E+02  0.43400725489E+02  0.00000000000E+00 0. -1.
         11    1    3    3    0    0  0.28829884096E+02  0.22939420775E+01  0.16805603548E+01  0.28969788929E+02  0.51100000000E-03 0. -1.
        -11    1    3    3    0    0  0.10932211278E+02 -0.21343786867E+01  0.85341753743E+01  0.14032140442E+02  0.51100000000E-03 0.  1.
         12    1    3    3    0    0  0.20874927441E+01 -0.42741150215E+01  0.52330004375E+00  0.47853451401E+01  0.00000000000E+00 0. -1.
</event>
<event>
 7    1  0.4876728E-009  0.4778728E+02  0.7816164E-02  0.1312668E+00
        -11   -1    0    0    0    0  0.00000000000E+00  0.00000000000E+00  0.45593999997E+02  0.45594000000E+02  0.51100000000E-03 0.  1.
         11   -1    0    0    0    0 -0.00000000000E+00 -0.00000000000E+00 -0.45593999997E+02  0.45594000000E+02  0.51100000000E-03 0. -1.
    9900012    2    1    2    0    0  0.41804895287E+02 -0.42694508824E+01  0.10851048135E+02  0.47787277352E+02  0.20000028757E+02 0.  0.
         12    1    1    2    0    0 -0.41804895287E+02  0.42694508824E+01 -0.10851048135E+02  0.43400722648E+02  0.00000000000E+00 0. -1.
         11    1    3    3    0    0  0.19358852904E+02 -0.50666969924E+01  0.10329205503E+02  0.22519526877E+02  0.51100000000E-03 0. -1.
        -11    1    3    3    0    0  0.20697455185E+02  0.26245599534E+00  0.42357867278E+01  0.21128071937E+02  0.51100000000E-03 0.  1.
         12    1    3    3    0    0  0.17485871978E+01  0.53479011470E+00 -0.37139440958E+01  0.41396785384E+01  0.00000000000E+00 0. -1.
</event>
<event>
 7    1  0.4876728E-009  0.4778727E+02  0.7816164E-02  0.1312668E+00
        -11   -1    0    0    0    0  0.00000000000E+00  0.00000000000E+00  0.45593999997E+02  0.45594000000E+02  0.51100000000E-03 0.  1.
         11   -1    0    0    0    0 -0.00000000000E+00 -0.00000000000E+00 -0.45593999997E+02  0.45594000000E+02  0.51100000000E-03 0. -1.
    9900012    2    1    2    0    0  0.42033626500E+02 -0.87492316022E+01  0.63441566054E+01  0.47787272663E+02  0.20000007379E+02 0.  0.
         12    1    1    2    0    0 -0.42033626500E+02  0.87492316022E+01 -0.63441566054E+01  0.43400727337E+02  0.00000000000E+00 0. -1.
         11    1    3    3    0    0  0.32550017749E+02 -0.19954801799E+01 -0.20405387512E+01  0.32674904672E+02  0.51100000000E-03 0. -1.
        -11    1    3    3    0    0  0.68523953481E+01 -0.64893724331E+01  0.46094367906E+01  0.10503055954E+02  0.51100000000E-03 0.  1.
         12    1    3    3    0    0  0.26312134022E+01 -0.26437898911E+00  0.37752585660E+01  0.46093120374E+01  0.00000000000E+00 0. -1.
</event>
<event>
 7    1  0.4876728E-009  0.4778727E+02  0.7816164E-02  0.1312668E+00
        -11   -1    0    0    0    0  0.00000000000E+00  0.00000000000E+00  0.45593999997E+02  0.45594000000E+02  0.51100000000E-03 0.  1.
         11   -1    0    0    0    0 -0.00000000000E+00 -0.00000000000E+00 -0.45593999997E+02  0.45594000000E+02  0.51100000000E-03 0. -1.
    9900012    2    1    2    0    0 -0.23448797947E+02  0.30089364732E+02  0.20698000623E+02  0.47787271608E+02  0.20000002572E+02 0.  0.
         12    1    1    2    0    0  0.23448797947E+02 -0.30089364732E+02 -0.20698000623E+02  0.43400728392E+02  0.00000000000E+00 0. -1.
         11    1    3    3    0    0 -0.13991940768E+01  0.62879642309E+00 -0.20078726215E+01  0.25267927757E+01  0.51100000000E-03 0. -1.
        -11    1    3    3    0    0 -0.18992761072E+02  0.30492838867E+02  0.20973151433E+02  0.41598212421E+02  0.51100000000E-03 0.  1.
        -12    1    3    3    0    0 -0.30568427979E+01 -0.10322705581E+01  0.17327218114E+01  0.36622664119E+01  0.00000000000E+00 0.  1.
</event>
<event>
 7    1  0.4876728E-009  0.4778727E+02  0.7816164E-02  0.1312668E+00
        -11   -1    0    0    0    0  0.00000000000E+00  0.00000000000E+00  0.45593999997E+02  0.45594000000E+02  0.51100000000E-03 0.  1.
         11   -1    0    0    0    0 -0.00000000000E+00 -0.00000000000E+00 -0.45593999997E+02  0.45594000000E+02  0.51100000000E-03 0. -1.
    9900012    2    1    2    0    0 -0.26925417197E+02  0.26886390885E+02  0.20875033791E+02  0.47787272566E+02  0.20000006937E+02 0.  0.
         12    1    1    2    0    0  0.26925417197E+02 -0.26886390885E+02 -0.20875033791E+02  0.43400727434E+02  0.00000000000E+00 0. -1.
         11    1    3    3    0    0 -0.20657720315E+02  0.11551814397E+02  0.16840913376E+02  0.29048273410E+02  0.51100000000E-03 0.  1.
        -11    1    3    3    0    0 -0.32044447794E+01  0.45871604147E+01  0.50236815147E+01  0.75198326602E+01  0.51100000000E-03 0. -1.
         12    1    3    3    0    0 -0.30632521018E+01  0.10747416073E+02 -0.98956110030E+00  0.11219166496E+02  0.00000000000E+00 0. -1.
</event>
<event>
 7    1  0.4876728E-009  0.4778727E+02  0.7816164E-02  0.1312668E+00
        -11   -1    0    0    0    0  0.00000000000E+00  0.00000000000E+00  0.45593999997E+02  0.45594000000E+02  0.51100000000E-03 0.  1.
         11   -1    0    0    0    0 -0.00000000000E+00 -0.00000000000E+00 -0.45593999997E+02  0.45594000000E+02  0.51100000000E-03 0. -1.
    9900012    2    1    2    0    0 -0.22876924253E+02  0.60976635991E+01  0.36374274904E+02  0.47787273745E+02  0.20000012315E+02 0.  0.
         12    1    1    2    0    0  0.22876924253E+02 -0.60976635991E+01 -0.36374274904E+02  0.43400726255E+02  0.00000000000E+00 0. -1.
         11    1    3    3    0    0 -0.12301012332E+02 -0.30473100179E+01  0.13850190633E+02  0.18773086682E+02  0.51100000000E-03 0. -1.
        -11    1    3    3    0    0 -0.91316327709E+01  0.89480894183E+01  0.23839108360E+02  0.27051027873E+02  0.51100000000E-03 0.  1.
        -12    1    3    3    0    0 -0.14442791500E+01  0.19688419882E+00 -0.13150240897E+01  0.19631591905E+01  0.00000000000E+00 0.  1.
</event>
<event>
 7    1  0.4876728E-009  0.4778726E+02  0.7816164E-02  0.1312668E+00
        -11   -1    0    0    0    0  0.00000000000E+00  0.00000000000E+00  0.45593999997E+02  0.45594000000E+02  0.51100000000E-03 0.  1.
         11   -1    0    0    0    0 -0.00000000000E+00 -0.00000000000E+00 -0.45593999997E+02  0.45594000000E+02  0.51100000000E-03 0. -1.
    9900012    2    1    2    0    0 -0.19434330318E+02  0.32607767895E+02  0.21039598886E+02  0.47787257572E+02  0.19999938572E+02 0.  0.
         12    1    1    2    0    0  0.19434330318E+02 -0.32607767895E+02 -0.21039598886E+02  0.43400742428E+02  0.00000000000E+00 0. -1.
         11    1    3    3    0    0 -0.29139778259E+01  0.25391971071E+01 -0.91071762204E+00  0.39709187308E+01  0.51100000000E-03 0. -1.
        -11    1    3    3    0    0 -0.34096480393E+01  0.22010797712E+02  0.10438037516E+02  0.24597836147E+02  0.51100000000E-03 0.  1.
        -12    1    3    3    0    0 -0.13110704453E+02  0.80577730768E+01  0.11512278992E+02  0.19218502694E+02  0.00000000000E+00 0.  1.
</event>
<event>
 7    1  0.4876728E-009  0.4778726E+02  0.7816164E-02  0.1312668E+00
        -11   -1    0    0    0    0  0.00000000000E+00  0.00000000000E+00  0.45593999997E+02  0.45594000000E+02  0.51100000000E-03 0.  1.
         11   -1    0    0    0    0 -0.00000000000E+00 -0.00000000000E+00 -0.45593999997E+02  0.45594000000E+02  0.51100000000E-03 0. -1.
    9900012    2    1    2    0    0 -0.23393247421E+02  0.29627131776E+02  0.21415261436E+02  0.47787258249E+02  0.19999941660E+02 0.  0.
         12    1    1    2    0    0  0.23393247421E+02 -0.29627131776E+02 -0.21415261436E+02  0.43400741751E+02  0.00000000000E+00 0. -1.
         11    1    3    3    0    0 -0.65565704494E+01  0.14246157544E+02  0.67260523710E+00  0.15696942979E+02  0.51100000000E-03 0. -1.
        -11    1    3    3    0    0 -0.13200347132E+02  0.14587046635E+02  0.13234968303E+02  0.23710661741E+02  0.51100000000E-03 0.  1.
         12    1    3    3    0    0 -0.36363298399E+01  0.79392759691E+00  0.75076878953E+01  0.83796535291E+01  0.00000000000E+00 0. -1.
</event>
<event>
 7    1  0.4876728E-009  0.4778727E+02  0.7816164E-02  0.1312668E+00
        -11   -1    0    0    0    0  0.00000000000E+00  0.00000000000E+00  0.45593999997E+02  0.45594000000E+02  0.51100000000E-03 0. -1.
         11   -1    0    0    0    0 -0.00000000000E+00 -0.00000000000E+00 -0.45593999997E+02  0.45594000000E+02  0.51100000000E-03 0.  1.
    9900012    2    1    2    0    0 -0.29777094383E+02  0.30947092264E+02 -0.62630168712E+01  0.47787271322E+02  0.20000001264E+02 0.  0.
         12    1    1    2    0    0  0.29777094383E+02 -0.30947092264E+02  0.62630168712E+01  0.43400728678E+02  0.00000000000E+00 0. -1.
         11    1    3    3    0    0 -0.10954075605E+02  0.39086255949E+01 -0.68290990522E+01  0.13487242881E+02  0.51100000000E-03 0. -1.
        -11    1    3    3    0    0 -0.18081328729E+02  0.23269688608E+02  0.32008249695E+01  0.29642168228E+02  0.51100000000E-03 0.  1.
        -12    1    3    3    0    0 -0.74169004904E+00  0.37687780602E+01 -0.26347427884E+01  0.46578602123E+01  0.00000000000E+00 0.  1.
</event>
<event>
 7    1  0.4876728E-009  0.4778727E+02  0.7816164E-02  0.1312668E+00
        -11   -1    0    0    0    0  0.00000000000E+00  0.00000000000E+00  0.45593999997E+02  0.45594000000E+02  0.51100000000E-03 0.  1.
         11   -1    0    0    0    0 -0.00000000000E+00 -0.00000000000E+00 -0.45593999997E+02  0.45594000000E+02  0.51100000000E-03 0. -1.
    9900012    2    1    2    0    0 -0.15198899759E+01 -0.37071926129E+02  0.22516343208E+02  0.47787268625E+02  0.19999988968E+02 0.  0.
         12    1    1    2    0    0  0.15198899759E+01  0.37071926129E+02 -0.22516343208E+02  0.43400731375E+02  0.00000000000E+00 0. -1.
         11    1    3    3    0    0 -0.27603173123E+01 -0.16385253638E+02 -0.26092559614E+00  0.16618181937E+02  0.51100000000E-03 0. -1.
        -11    1    3    3    0    0  0.22638501529E+00 -0.15836519033E+02  0.14242028682E+02  0.21299811419E+02  0.51100000000E-03 0.  1.
         12    1    3    3    0    0  0.10140423211E+01 -0.48501534582E+01  0.85352401218E+01  0.98692752689E+01  0.00000000000E+00 0. -1.
</event>
<event>
 7    1  0.4876728E-009  0.4778727E+02  0.7816164E-02  0.1312668E+00
        -11   -1    0    0    0    0  0.00000000000E+00  0.00000000000E+00  0.45593999997E+02  0.45594000000E+02  0.51100000000E-03 0. -1.
         11   -1    0    0    0    0 -0.00000000000E+00 -0.00000000000E+00 -0.45593999997E+02  0.45594000000E+02  0.51100000000E-03 0.  1.
    9900012    2    1    2    0    0  0.33439913126E+02 -0.27411489154E+02 -0.37424015450E+01  0.47787273084E+02  0.20000009301E+02 0.  0.
         12    1    1    2    0    0 -0.33439913126E+02  0.27411489154E+02  0.37424015450E+01  0.43400726916E+02  0.00000000000E+00 0. -1.
         11    1    3    3    0    0  0.19949938285E+02 -0.64384257263E+01  0.46801499651E+00  0.20968366692E+02  0.51100000000E-03 0.  1.
        -11    1    3    3    0    0  0.68192312532E+01 -0.17600927444E+02 -0.17820430979E+01  0.18959700410E+02  0.51100000000E-03 0. -1.
        -12    1    3    3    0    0  0.66707435871E+01 -0.33721359837E+01 -0.24283734436E+01  0.78592059827E+01  0.00000000000E+00 0.  1.
</event>
<event>
 7    1  0.4876728E-009  0.4778727E+02  0.7816164E-02  0.1312668E+00
        -11   -1    0    0    0    0  0.00000000000E+00  0.00000000000E+00  0.45593999997E+02  0.45594000000E+02  0.51100000000E-03 0.  1.
         11   -1    0    0    0    0 -0.00000000000E+00 -0.00000000000E+00 -0.45593999997E+02  0.45594000000E+02  0.51100000000E-03 0. -1.
    9900012    2    1    2    0    0 -0.20423967858E+02  0.35138477482E+01  0.38133154210E+02  0.47787273750E+02  0.20000012336E+02 0.  0.
         12    1    1    2    0    0  0.20423967858E+02 -0.35138477482E+01 -0.38133154210E+02  0.43400726250E+02  0.00000000000E+00 0. -1.
         11    1    3    3    0    0 -0.32284354021E+01  0.47068560870E+01  0.20699742798E+01  0.60714152509E+01  0.51100000000E-03 0. -1.
        -11    1    3    3    0    0 -0.16368445081E+02  0.20331014267E+01  0.34022543490E+02  0.37809958497E+02  0.51100000000E-03 0.  1.
        -12    1    3    3    0    0 -0.82708737456E+00 -0.32261097655E+01  0.20406364402E+01  0.39059000020E+01  0.00000000000E+00 0.  1.
</event>
<event>
 7    1  0.4876728E-009  0.4778727E+02  0.7816164E-02  0.1312668E+00
        -11   -1    0    0    0    0  0.00000000000E+00  0.00000000000E+00  0.45593999997E+02  0.45594000000E+02  0.51100000000E-03 0.  1.
         11   -1    0    0    0    0 -0.00000000000E+00 -0.00000000000E+00 -0.45593999997E+02  0.45594000000E+02  0.51100000000E-03 0. -1.
    9900012    2    1    2    0    0 -0.30829813132E+01 -0.85273059962E+01  0.42442943886E+02  0.47787271814E+02  0.20000003509E+02 0.  0.
         12    1    1    2    0    0  0.30829813132E+01  0.85273059962E+01 -0.42442943886E+02  0.43400728186E+02  0.00000000000E+00 0. -1.
         11    1    3    3    0    0 -0.36323139795E+01 -0.70771308071E+01  0.15824110812E+02  0.17711069097E+02  0.51100000000E-03 0. -1.
        -11    1    3    3    0    0  0.63631083793E+01 -0.35371089832E+01  0.18453583447E+02  0.19837717371E+02  0.51100000000E-03 0.  1.
        -12    1    3    3    0    0 -0.58137757130E+01  0.20869337940E+01  0.81652496276E+01  0.10238485346E+02  0.00000000000E+00 0.  1.
</event>
<event>
 7    1  0.4876728E-009  0.4778727E+02  0.7816164E-02  0.1312668E+00
        -11   -1    0    0    0    0  0.00000000000E+00  0.00000000000E+00  0.45593999997E+02  0.45594000000E+02  0.51100000000E-03 0.  1.
         11   -1    0    0    0    0 -0.00000000000E+00 -0.00000000000E+00 -0.45593999997E+02  0.45594000000E+02  0.51100000000E-03 0. -1.
    9900012    2    1    2    0    0  0.13739025972E+02 -0.30788361154E+02  0.27330192376E+02  0.47787269217E+02  0.19999991667E+02 0.  0.
         12    1    1    2    0    0 -0.13739025972E+02  0.30788361154E+02 -0.27330192376E+02  0.43400730783E+02  0.00000000000E+00 0. -1.
         11    1    3    3    0    0  0.58984794545E+01 -0.72230989932E+01 -0.37048015531E+00  0.93328706596E+01  0.51100000000E-03 0. -1.
        -11    1    3    3    0    0  0.78963465207E+01 -0.13605415415E+02  0.21782172186E+02  0.26868618170E+02  0.51100000000E-03 0.  1.
         12    1    3    3    0    0 -0.55800002799E-01 -0.99598467454E+01  0.59185003455E+01  0.11585780387E+02  0.00000000000E+00 0. -1.
</event>
<event>
 7    1  0.4876728E-009  0.4778727E+02  0.7816164E-02  0.1312668E+00
        -11   -1    0    0    0    0  0.00000000000E+00  0.00000000000E+00  0.45593999997E+02  0.45594000000E+02  0.51100000000E-03 0.  1.
         11   -1    0    0    0    0 -0.00000000000E+00 -0.00000000000E+00 -0.45593999997E+02  0.45594000000E+02  0.51100000000E-03 0. -1.
    9900012    2    1    2    0    0 -0.27028177245E+02  0.33133511398E+02  0.74344537828E+01  0.47787273672E+02  0.20000011980E+02 0.  0.
         12    1    1    2    0    0  0.27028177245E+02 -0.33133511398E+02 -0.74344537828E+01  0.43400726328E+02  0.00000000000E+00 0. -1.
         11    1    3    3    0    0 -0.47016043737E+01  0.14641266973E+02  0.67956687612E+01  0.16812284093E+02  0.51100000000E-03 0. -1.
        -11    1    3    3    0    0 -0.93441930898E+01  0.18838656243E+01 -0.19706252412E+01  0.97337689664E+01  0.51100000000E-03 0.  1.
        -12    1    3    3    0    0 -0.12982379782E+02  0.16608378801E+02  0.26094102627E+01  0.21241220612E+02  0.00000000000E+00 0.  1.
</event>
<event>
 7    1  0.4876728E-009  0.4778727E+02  0.7816164E-02  0.1312668E+00
        -11   -1    0    0    0    0  0.00000000000E+00  0.00000000000E+00  0.45593999997E+02  0.45594000000E+02  0.51100000000E-03 0. -1.
         11   -1    0    0    0    0 -0.00000000000E+00 -0.00000000000E+00 -0.45593999997E+02  0.45594000000E+02  0.51100000000E-03 0.  1.
    9900012    2    1    2    0    0  0.31325377987E+02  0.17510192278E+02  0.24407731772E+02  0.47787268326E+02  0.19999987604E+02 0.  0.
         12    1    1    2    0    0 -0.31325377987E+02 -0.17510192278E+02 -0.24407731772E+02  0.43400731674E+02  0.00000000000E+00 0. -1.
         11    1    3    3    0    0 -0.95933115156E+00  0.46876726605E+01  0.77074478969E+01  0.90718986201E+01  0.51100000000E-03 0. -1.
        -11    1    3    3    0    0  0.14281887529E+02  0.55633941610E+01  0.93803043656E+01  0.17969801786E+02  0.51100000000E-03 0.  1.
         12    1    3    3    0    0  0.18002821609E+02  0.72591254562E+01  0.73199795097E+01  0.20745567919E+02  0.00000000000E+00 0. -1.
</event>
<event>
 7    1  0.4876728E-009  0.4778727E+02  0.7816164E-02  0.1312668E+00
        -11   -1    0    0    0    0  0.00000000000E+00  0.00000000000E+00  0.45593999997E+02  0.45594000000E+02  0.51100000000E-03 0.  1.
         11   -1    0    0    0    0 -0.00000000000E+00 -0.00000000000E+00 -0.45593999997E+02  0.45594000000E+02  0.51100000000E-03 0. -1.
    9900012    2    1    2    0    0  0.17788379143E+02 -0.38603997662E+02 -0.87708884540E+01  0.47787267837E+02  0.19999985375E+02 0.  0.
         12    1    1    2    0    0 -0.17788379143E+02  0.38603997662E+02  0.87708884540E+01  0.43400732163E+02  0.00000000000E+00 0. -1.
         11    1    3    3    0    0  0.26794372446E+01 -0.83596645738E+01 -0.59684919338E+01  0.10615379030E+02  0.51100000000E-03 0. -1.
        -11    1    3    3    0    0  0.63340898807E+01 -0.11379644031E+02  0.62937727973E+01  0.14464735365E+02  0.51100000000E-03 0.  1.
        -12    1    3    3    0    0  0.87748520175E+01 -0.18864689058E+02 -0.90961693176E+01  0.22707153442E+02  0.00000000000E+00 0.  1.
</event>
<event>
 7    1  0.4876728E-009  0.4778727E+02  0.7816164E-02  0.1312668E+00
        -11   -1    0    0    0    0  0.00000000000E+00  0.00000000000E+00  0.45593999997E+02  0.45594000000E+02  0.51100000000E-03 0.  1.
         11   -1    0    0    0    0 -0.00000000000E+00 -0.00000000000E+00 -0.45593999997E+02  0.45594000000E+02  0.51100000000E-03 0. -1.
    9900012    2    1    2    0    0  0.28937746402E+02  0.31294322313E+02  0.81789735669E+01  0.47787269770E+02  0.19999994192E+02 0.  0.
         12    1    1    2    0    0 -0.28937746402E+02 -0.31294322313E+02 -0.81789735669E+01  0.43400730230E+02  0.00000000000E+00 0. -1.
         11    1    3    3    0    0  0.46132239179E+01  0.12335812283E+01  0.27878853649E+01  0.55295445231E+01  0.51100000000E-03 0. -1.
        -11    1    3    3    0    0 -0.18382860724E+01  0.60816420181E+01  0.17006444832E+01  0.65770705668E+01  0.51100000000E-03 0.  1.
        -12    1    3    3    0    0  0.26162808556E+02  0.23979099067E+02  0.36904437188E+01  0.35680654681E+02  0.00000000000E+00 0.  1.
</event>
<event>
 7    1  0.4876728E-009  0.4778729E+02  0.7816164E-02  0.1312668E+00
        -11   -1    0    0    0    0  0.00000000000E+00  0.00000000000E+00  0.45593999997E+02  0.45594000000E+02  0.51100000000E-03 0.  1.
         11   -1    0    0    0    0 -0.00000000000E+00 -0.00000000000E+00 -0.45593999997E+02  0.45594000000E+02  0.51100000000E-03 0. -1.
    9900012    2    1    2    0    0  0.29280545991E+02 -0.30466184979E+02 -0.99036782493E+01  0.47787289826E+02  0.20000085633E+02 0.  0.
         12    1    1    2    0    0 -0.29280545991E+02  0.30466184979E+02  0.99036782493E+01  0.43400710174E+02  0.00000000000E+00 0. -1.
         11    1    3    3    0    0  0.18872724096E+02 -0.23293969747E+02 -0.31827159656E+01  0.30148273956E+02  0.51100000000E-03 0. -1.
        -11    1    3    3    0    0  0.10348460184E+02 -0.89336251278E+01 -0.37357398494E+01  0.14172368842E+02  0.51100000000E-03 0.  1.
         12    1    3    3    0    0  0.59361710987E-01  0.17614098957E+01 -0.29852224342E+01  0.34666470278E+01  0.00000000000E+00 0. -1.
</event>
<event>
 7    1  0.4876728E-009  0.4778727E+02  0.7816164E-02  0.1312668E+00
        -11   -1    0    0    0    0  0.00000000000E+00  0.00000000000E+00  0.45593999997E+02  0.45594000000E+02  0.51100000000E-03 0.  1.
         11   -1    0    0    0    0 -0.00000000000E+00 -0.00000000000E+00 -0.45593999997E+02  0.45594000000E+02  0.51100000000E-03 0. -1.
    9900012    2    1    2    0    0 -0.34651629717E+02  0.26055421091E+02 -0.20007323380E+01  0.47787270281E+02  0.19999996518E+02 0.  0.
         12    1    1    2    0    0  0.34651629717E+02 -0.26055421091E+02  0.20007323380E+01  0.43400729719E+02  0.00000000000E+00 0. -1.
         11    1    3    3    0    0 -0.16278859818E+02  0.15565049543E+02 -0.98662212286E+01  0.24588907374E+02  0.51100000000E-03 0. -1.
        -11    1    3    3    0    0 -0.51255503958E+01  0.40345818142E+00  0.13243868220E+01  0.53092415729E+01  0.51100000000E-03 0.  1.
         12    1    3    3    0    0 -0.13247219503E+02  0.10086913366E+02  0.65411020685E+01  0.17889121333E+02  0.00000000000E+00 0. -1.
</event>
<event>
 7    1  0.4876728E-009  0.4778727E+02  0.7816164E-02  0.1312668E+00
        -11   -1    0    0    0    0  0.00000000000E+00  0.00000000000E+00  0.45593999997E+02  0.45594000000E+02  0.51100000000E-03 0.  1.
         11   -1    0    0    0    0 -0.00000000000E+00 -0.00000000000E+00 -0.45593999997E+02  0.45594000000E+02  0.51100000000E-03 0. -1.
    9900012    2    1    2    0    0  0.66833189417E+00  0.16916767643E+02  0.39962475288E+02  0.47787272746E+02  0.20000007758E+02 0.  0.
         12    1    1    2    0    0 -0.66833189417E+00 -0.16916767643E+02 -0.39962475288E+02  0.43400727254E+02  0.00000000000E+00 0. -1.
         11    1    3    3    0    0  0.15537427612E+00 -0.49868180412E+00  0.75849611639E+01  0.76029244917E+01  0.51100000000E-03 0.  1.
        -11    1    3    3    0    0 -0.28901816122E+01  0.40305045067E+01 -0.26748861822E-01  0.49597209692E+01  0.51100000000E-03 0. -1.
        -12    1    3    3    0    0  0.34031392302E+01  0.13384944941E+02  0.32404262986E+02  0.35224627285E+02  0.00000000000E+00 0.  1.
</event>
<event>
 7    1  0.4876728E-009  0.4778728E+02  0.7816164E-02  0.1312668E+00
        -11   -1    0    0    0    0  0.00000000000E+00  0.00000000000E+00  0.45593999997E+02  0.45594000000E+02  0.51100000000E-03 0.  1.
         11   -1    0    0    0    0 -0.00000000000E+00 -0.00000000000E+00 -0.45593999997E+02  0.45594000000E+02  0.51100000000E-03 0. -1.
    9900012    2    1    2    0    0  0.11313071344E+02  0.41207707681E+02 -0.75869671639E+01  0.47787276200E+02  0.20000023508E+02 0.  0.
         12    1    1    2    0    0 -0.11313071344E+02 -0.41207707681E+02  0.75869671639E+01  0.43400723800E+02  0.00000000000E+00 0. -1.
         11    1    3    3    0    0  0.51114363295E+01  0.35292329113E+02 -0.10736832860E+02  0.37241842807E+02  0.51100000000E-03 0. -1.
        -11    1    3    3    0    0  0.63721086499E+01  0.63996430150E+01  0.37297973077E+01  0.97709051567E+01  0.51100000000E-03 0.  1.
         12    1    3    3    0    0 -0.17047363523E+00 -0.48426444646E+00 -0.57993161181E+00  0.77452823627E+00  0.00000000000E+00 0. -1.
</event>
<event>
 7    1  0.4876728E-009  0.4778727E+02  0.7816164E-02  0.1312668E+00
        -11   -1    0    0    0    0  0.00000000000E+00  0.00000000000E+00  0.45593999997E+02  0.45594000000E+02  0.51100000000E-03 0.  1.
         11   -1    0    0    0    0 -0.00000000000E+00 -0.00000000000E+00 -0.45593999997E+02  0.45594000000E+02  0.51100000000E-03 0. -1.
    9900012    2    1    2    0    0 -0.25508087441E+02 -0.12727762997E+02  0.32725594993E+02  0.47787273699E+02  0.20000012105E+02 0.  0.
         12    1    1    2    0    0  0.25508087441E+02  0.12727762997E+02 -0.32725594993E+02  0.43400726301E+02  0.00000000000E+00 0. -1.
         11    1    3    3    0    0 -0.22059070379E+01 -0.20277691485E+01 -0.22547029880E+01  0.37498745851E+01  0.51100000000E-03 0. -1.
        -11    1    3    3    0    0 -0.17469399481E+02 -0.98109539983E+01  0.31031983356E+02  0.36938039036E+02  0.51100000000E-03 0.  1.
         12    1    3    3    0    0 -0.58327809224E+01 -0.88903984970E+00  0.39483146249E+01  0.70993600782E+01  0.00000000000E+00 0. -1.
</event>
<event>
 7    1  0.4876728E-009  0.4778726E+02  0.7816164E-02  0.1312668E+00
        -11   -1    0    0    0    0  0.00000000000E+00  0.00000000000E+00  0.45593999997E+02  0.45594000000E+02  0.51100000000E-03 0.  1.
         11   -1    0    0    0    0 -0.00000000000E+00 -0.00000000000E+00 -0.45593999997E+02  0.45594000000E+02  0.51100000000E-03 0. -1.
    9900012    2    1    2    0    0  0.21815720074E+02  0.12485399681E+02  0.35380979133E+02  0.47787256551E+02  0.19999933917E+02 0.  0.
         12    1    1    2    0    0 -0.21815720074E+02 -0.12485399681E+02 -0.35380979133E+02  0.43400743449E+02  0.00000000000E+00 0. -1.
         11    1    3    3    0    0 -0.23037798586E+01  0.17506398451E+01 -0.54098131726E+00  0.29436036674E+01  0.51100000000E-03 0. -1.
        -11    1    3    3    0    0  0.23879985180E+02  0.10633369067E+02  0.33915281497E+02  0.42820188570E+02  0.51100000000E-03 0.  1.
        -12    1    3    3    0    0  0.23951475346E+00  0.10139076914E+00  0.20066789537E+01  0.20234643136E+01  0.00000000000E+00 0.  1.
</event>
<event>
 7    1  0.4876728E-009  0.4778727E+02  0.7816164E-02  0.1312668E+00
        -11   -1    0    0    0    0  0.00000000000E+00  0.00000000000E+00  0.45593999997E+02  0.45594000000E+02  0.51100000000E-03 0.  1.
         11   -1    0    0    0    0 -0.00000000000E+00 -0.00000000000E+00 -0.45593999997E+02  0.45594000000E+02  0.51100000000E-03 0. -1.
    9900012    2    1    2    0    0  0.27818234106E+02 -0.21710823061E+01  0.33242374937E+02  0.47787271450E+02  0.20000001850E+02 0.  0.
         12    1    1    2    0    0 -0.27818234106E+02  0.21710823061E+01 -0.33242374937E+02  0.43400728550E+02  0.00000000000E+00 0. -1.
         11    1    3    3    0    0  0.44691904492E+01  0.58153895318E+01  0.12421453266E+02  0.14425148879E+02  0.51100000000E-03 0. -1.
        -11    1    3    3    0    0  0.83630336029E+01 -0.51204046010E+01  0.12800554266E+02  0.16124920592E+02  0.51100000000E-03 0.  1.
         12    1    3    3    0    0  0.14986010054E+02 -0.28660672369E+01  0.80203674046E+01  0.17237201979E+02  0.00000000000E+00 0. -1.
</event>
<event>
 7    1  0.4876728E-009  0.4778727E+02  0.7816164E-02  0.1312668E+00
        -11   -1    0    0    0    0  0.00000000000E+00  0.00000000000E+00  0.45593999997E+02  0.45594000000E+02  0.51100000000E-03 0.  1.
         11   -1    0    0    0    0 -0.00000000000E+00 -0.00000000000E+00 -0.45593999997E+02  0.45594000000E+02  0.51100000000E-03 0. -1.
    9900012    2    1    2    0    0  0.43636176816E+01 -0.40002911976E+02  0.16258820681E+02  0.47787269870E+02  0.19999994647E+02 0.  0.
         12    1    1    2    0    0 -0.43636176816E+01  0.40002911976E+02 -0.16258820681E+02  0.43400730130E+02  0.00000000000E+00 0. -1.
         11    1    3    3    0    0 -0.56983675940E+01 -0.11356477400E+02  0.34424915244E+01  0.13164031310E+02  0.51100000000E-03 0. -1.
        -11    1    3    3    0    0  0.62237385459E+01 -0.11041310376E+02  0.10494886111E+02  0.16455640098E+02  0.51100000000E-03 0.  1.
        -12    1    3    3    0    0  0.38382467296E+01 -0.17605124201E+02  0.23214430454E+01  0.18167598462E+02  0.00000000000E+00 0.  1.
</event>
<event>
 7    1  0.4876728E-009  0.4778727E+02  0.7816164E-02  0.1312668E+00
        -11   -1    0    0    0    0  0.00000000000E+00  0.00000000000E+00  0.45593999997E+02  0.45594000000E+02  0.51100000000E-03 0. -1.
         11   -1    0    0    0    0 -0.00000000000E+00 -0.00000000000E+00 -0.45593999997E+02  0.45594000000E+02  0.51100000000E-03 0.  1.
    9900012    2    1    2    0    0 -0.13660418389E+01 -0.24124664843E+02 -0.36052156694E+02  0.47787268136E+02  0.19999986738E+02 0.  0.
         12    1    1    2    0    0  0.13660418389E+01  0.24124664843E+02  0.36052156694E+02  0.43400731864E+02  0.00000000000E+00 0. -1.
         11    1    3    3    0    0 -0.36244994764E+01  0.18583006130E+01 -0.47327951981E+01  0.62441675402E+01  0.51100000000E-03 0. -1.
        -11    1    3    3    0    0  0.38985988770E+01 -0.14614642027E+02 -0.13123860828E+02  0.20025547635E+02  0.51100000000E-03 0.  1.
        -12    1    3    3    0    0 -0.16401412394E+01 -0.11368323429E+02 -0.18195500667E+02  0.21517552960E+02  0.00000000000E+00 0.  1.
</event>
<event>
 7    1  0.4876728E-009  0.4778728E+02  0.7816164E-02  0.1312668E+00
        -11   -1    0    0    0    0  0.00000000000E+00  0.00000000000E+00  0.45593999997E+02  0.45594000000E+02  0.51100000000E-03 0.  1.
         11   -1    0    0    0    0 -0.00000000000E+00 -0.00000000000E+00 -0.45593999997E+02  0.45594000000E+02  0.51100000000E-03 0. -1.
    9900012    2    1    2    0    0 -0.55811671204E+01 -0.28805123530E+02  0.31980274738E+02  0.47787279496E+02  0.20000038534E+02 0.  0.
         12    1    1    2    0    0  0.55811671204E+01  0.28805123530E+02 -0.31980274738E+02  0.43400720504E+02  0.00000000000E+00 0. -1.
         11    1    3    3    0    0  0.31973503248E+01 -0.11885171106E+02  0.96490720344E+01  0.15639211383E+02  0.51100000000E-03 0. -1.
        -11    1    3    3    0    0 -0.11493200522E+02 -0.13849990708E+02  0.21369426328E+02  0.27938652127E+02  0.51100000000E-03 0.  1.
        -12    1    3    3    0    0  0.27146830764E+01 -0.30699617159E+01  0.96177637552E+00  0.42094159854E+01  0.00000000000E+00 0.  1.
</event>
<event>
 7    1  0.4876728E-009  0.4778727E+02  0.7816164E-02  0.1312668E+00
        -11   -1    0    0    0    0  0.00000000000E+00  0.00000000000E+00  0.45593999997E+02  0.45594000000E+02  0.51100000000E-03 0.  1.
         11   -1    0    0    0    0 -0.00000000000E+00 -0.00000000000E+00 -0.45593999997E+02  0.45594000000E+02  0.51100000000E-03 0. -1.
    9900012    2    1    2    0    0  0.23443618140E+02  0.72452451466E+01  0.35798412631E+02  0.47787272407E+02  0.20000006212E+02 0.  0.
         12    1    1    2    0    0 -0.23443618140E+02 -0.72452451466E+01 -0.35798412631E+02  0.43400727593E+02  0.00000000000E+00 0. -1.
         11    1    3    3    0    0  0.12585145204E+02 -0.23469659974E+01  0.11372201203E+02  0.17123699649E+02  0.51100000000E-03 0. -1.
        -11    1    3    3    0    0  0.89565119008E+01  0.90702534069E+00  0.82792630298E+01  0.12230617195E+02  0.51100000000E-03 0.  1.
         12    1    3    3    0    0  0.19019610349E+01  0.86851858033E+01  0.16146948398E+02  0.18432955563E+02  0.00000000000E+00 0. -1.
</event>
<event>
 7    1  0.4876728E-009  0.4778728E+02  0.7816164E-02  0.1312668E+00
        -11   -1    0    0    0    0  0.00000000000E+00  0.00000000000E+00  0.45593999997E+02  0.45594000000E+02  0.51100000000E-03 0. -1.
         11   -1    0    0    0    0 -0.00000000000E+00 -0.00000000000E+00 -0.45593999997E+02  0.45594000000E+02  0.51100000000E-03 0.  1.
    9900012    2    1    2    0    0 -0.25010052964E+02 -0.32997682383E+02 -0.13010472337E+02  0.47787283620E+02  0.20000057337E+02 0.  0.
         12    1    1    2    0    0  0.25010052964E+02  0.32997682383E+02  0.13010472337E+02  0.43400716380E+02  0.00000000000E+00 0. -1.
         11    1    3    3    0    0 -0.16103617144E+02 -0.29916581280E+02 -0.14357194535E+02  0.36884378208E+02  0.51100000000E-03 0. -1.
        -11    1    3    3    0    0 -0.35849885461E+01 -0.40158777379E+01  0.24519092409E+00  0.53888343574E+01  0.51100000000E-03 0.  1.
         12    1    3    3    0    0 -0.53214472734E+01  0.93477663576E+00  0.11015312746E+01  0.55140710543E+01  0.00000000000E+00 0. -1.
</event>
<event>
 7    1  0.4876728E-009  0.4778728E+02  0.7816164E-02  0.1312668E+00
        -11   -1    0    0    0    0  0.00000000000E+00  0.00000000000E+00  0.45593999997E+02  0.45594000000E+02  0.51100000000E-03 0.  1.
         11   -1    0    0    0    0 -0.00000000000E+00 -0.00000000000E+00 -0.45593999997E+02  0.45594000000E+02  0.51100000000E-03 0. -1.
    9900012    2    1    2    0    0  0.19244475816E+02 -0.12680700599E+02  0.36775982406E+02  0.47787275362E+02  0.20000019688E+02 0.  0.
         12    1    1    2    0    0 -0.19244475816E+02  0.12680700599E+02 -0.36775982406E+02  0.43400724638E+02  0.00000000000E+00 0. -1.
         11    1    3    3    0    0  0.10038130515E+02 -0.25960594445E+01  0.65891279188E+01  0.12284958114E+02  0.51100000000E-03 0.  1.
        -11    1    3    3    0    0  0.51029689132E+01 -0.12620613176E+02  0.19549461663E+02  0.23822292506E+02  0.51100000000E-03 0. -1.
        -12    1    3    3    0    0  0.41033763886E+01  0.25359720221E+01  0.10637392824E+02  0.11680024742E+02  0.00000000000E+00 0.  1.
</event>
<event>
 7    1  0.4876728E-009  0.4778727E+02  0.7816164E-02  0.1312668E+00
        -11   -1    0    0    0    0  0.00000000000E+00  0.00000000000E+00  0.45593999997E+02  0.45594000000E+02  0.51100000000E-03 0. -1.
         11   -1    0    0    0    0 -0.00000000000E+00 -0.00000000000E+00 -0.45593999997E+02  0.45594000000E+02  0.51100000000E-03 0.  1.
    9900012    2    1    2    0    0  0.42435428592E+02 -0.88042832821E+01 -0.23112914969E+01  0.47787273367E+02  0.20000010590E+02 0.  0.
         12    1    1    2    0    0 -0.42435428592E+02  0.88042832821E+01  0.23112914969E+01  0.43400726633E+02  0.00000000000E+00 0. -1.
         11    1    3    3    0    0  0.45219743982E+01 -0.53931527833E+01  0.72399269731E+00  0.70752042436E+01  0.51100000000E-03 0. -1.
        -11    1    3    3    0    0  0.84797948769E+01  0.32682343710E+01 -0.51685264887E+01  0.10454756974E+02  0.51100000000E-03 0.  1.
        -12    1    3    3    0    0  0.29433659317E+02 -0.66793648698E+01  0.21332422945E+01  0.30257312150E+02  0.00000000000E+00 0.  1.
</event>
<event>
 7    1  0.4876728E-009  0.4778727E+02  0.7816164E-02  0.1312668E+00
        -11   -1    0    0    0    0  0.00000000000E+00  0.00000000000E+00  0.45593999997E+02  0.45594000000E+02  0.51100000000E-03 0.  1.
         11   -1    0    0    0    0 -0.00000000000E+00 -0.00000000000E+00 -0.45593999997E+02  0.45594000000E+02  0.51100000000E-03 0. -1.
    9900012    2    1    2    0    0 -0.12689645278E+02  0.36421888850E+02  0.19900803941E+02  0.47787273253E+02  0.20000010070E+02 0.  0.
         12    1    1    2    0    0  0.12689645278E+02 -0.36421888850E+02 -0.19900803941E+02  0.43400726747E+02  0.00000000000E+00 0. -1.
         11    1    3    3    0    0 -0.97609461973E+01  0.11966189886E+02  0.12940909839E+02  0.20147777018E+02  0.51100000000E-03 0. -1.
        -11    1    3    3    0    0  0.37407019666E+01  0.70150906487E+01  0.86213099960E+00  0.79967254632E+01  0.51100000000E-03 0.  1.
        -12    1    3    3    0    0 -0.66694010470E+01  0.17440608315E+02  0.60977631025E+01  0.19642770772E+02  0.00000000000E+00 0.  1.
</event>
<event>
 7    1  0.4876728E-009  0.4778732E+02  0.7816164E-02  0.1312668E+00
        -11   -1    0    0    0    0  0.00000000000E+00  0.00000000000E+00  0.45593999997E+02  0.45594000000E+02  0.51100000000E-03 0.  1.
         11   -1    0    0    0    0 -0.00000000000E+00 -0.00000000000E+00 -0.45593999997E+02  0.45594000000E+02  0.51100000000E-03 0. -1.
    9900012    2    1    2    0    0 -0.14839605753E+02  0.29222742581E+02  0.28450595082E+02  0.47787320934E+02  0.20000227464E+02 0.  0.
         12    1    1    2    0    0  0.14839605753E+02 -0.29222742581E+02 -0.28450595082E+02  0.43400679066E+02  0.00000000000E+00 0. -1.
         11    1    3    3    0    0 -0.58963856474E+01  0.83957049492E+00  0.79897731429E+01  0.99653759314E+01  0.51100000000E-03 0. -1.
        -11    1    3    3    0    0 -0.13233355757E+01 -0.30881653471E+00  0.32130718881E+01  0.34886123197E+01  0.51100000000E-03 0.  1.
         12    1    3    3    0    0 -0.76198845304E+01  0.28691988621E+02  0.17247750051E+02  0.34333332683E+02  0.00000000000E+00 0. -1.
</event>
<event>
 7    1  0.4876728E-009  0.4778727E+02  0.7816164E-02  0.1312668E+00
        -11   -1    0    0    0    0  0.00000000000E+00  0.00000000000E+00  0.45593999997E+02  0.45594000000E+02  0.51100000000E-03 0.  1.
         11   -1    0    0    0    0 -0.00000000000E+00 -0.00000000000E+00 -0.45593999997E+02  0.45594000000E+02  0.51100000000E-03 0. -1.
    9900012    2    1    2    0    0 -0.33286457815E+02  0.67863943478E+01 -0.27010736169E+02  0.47787270853E+02  0.19999999128E+02 0.  0.
         12    1    1    2    0    0  0.33286457815E+02 -0.67863943478E+01  0.27010736169E+02  0.43400729147E+02  0.00000000000E+00 0. -1.
         11    1    3    3    0    0 -0.27493768851E+02  0.11818911564E+02 -0.23678339618E+02  0.38160945528E+02  0.51100000000E-03 0. -1.
        -11    1    3    3    0    0 -0.18706527332E+00 -0.12536294823E+01  0.98472057299E+00  0.16050717004E+01  0.51100000000E-03 0.  1.
         12    1    3    3    0    0 -0.56056236899E+01 -0.37788877343E+01 -0.43171171234E+01  0.80212536251E+01  0.00000000000E+00 0. -1.
</event>
<event>
 7    1  0.4876728E-009  0.4778727E+02  0.7816164E-02  0.1312668E+00
        -11   -1    0    0    0    0  0.00000000000E+00  0.00000000000E+00  0.45593999997E+02  0.45594000000E+02  0.51100000000E-03 0.  1.
         11   -1    0    0    0    0 -0.00000000000E+00 -0.00000000000E+00 -0.45593999997E+02  0.45594000000E+02  0.51100000000E-03 0. -1.
    9900012    2    1    2    0    0  0.25852982675E+02 -0.12152685647E+02  0.32673513025E+02  0.47787274948E+02  0.20000017798E+02 0.  0.
         12    1    1    2    0    0 -0.25852982675E+02  0.12152685647E+02 -0.32673513025E+02  0.43400725052E+02  0.00000000000E+00 0. -1.
         11    1    3    3    0    0  0.51390828403E+01  0.18400407017E+01  0.44457893158E+01  0.70399549093E+01  0.51100000000E-03 0. -1.
        -11    1    3    3    0    0  0.20559216155E+02 -0.71556868654E+01  0.25106810952E+02  0.33230064397E+02  0.51100000000E-03 0.  1.
        -12    1    3    3    0    0  0.15468368026E+00 -0.68370394835E+01  0.31209127576E+01  0.75172556416E+01  0.00000000000E+00 0.  1.
</event>
<event>
 7    1  0.4876728E-009  0.4778727E+02  0.7816164E-02  0.1312668E+00
        -11   -1    0    0    0    0  0.00000000000E+00  0.00000000000E+00  0.45593999997E+02  0.45594000000E+02  0.51100000000E-03 0. -1.
         11   -1    0    0    0    0 -0.00000000000E+00 -0.00000000000E+00 -0.45593999997E+02  0.45594000000E+02  0.51100000000E-03 0.  1.
    9900012    2    1    2    0    0  0.29256464650E+02  0.22682730621E+02 -0.22653400902E+02  0.47787267694E+02  0.19999984725E+02 0.  0.
         12    1    1    2    0    0 -0.29256464650E+02 -0.22682730621E+02  0.22653400902E+02  0.43400732306E+02  0.00000000000E+00 0. -1.
         11    1    3    3    0    0 -0.57599922297E+00  0.18383566260E+01  0.10253509971E+01  0.21823554059E+01  0.51100000000E-03 0. -1.
        -11    1    3    3    0    0  0.29503436351E+02  0.22206727740E+02 -0.24154114500E+02  0.44124967547E+02  0.51100000000E-03 0.  1.
        -12    1    3    3    0    0  0.32902752195E+00 -0.13623537449E+01  0.47536260106E+00  0.14799447419E+01  0.00000000000E+00 0.  1.
</event>
<event>
 7    1  0.4876728E-009  0.4778727E+02  0.7816164E-02  0.1312668E+00
        -11   -1    0    0    0    0  0.00000000000E+00  0.00000000000E+00  0.45593999997E+02  0.45594000000E+02  0.51100000000E-03 0.  1.
         11   -1    0    0    0    0 -0.00000000000E+00 -0.00000000000E+00 -0.45593999997E+02  0.45594000000E+02  0.51100000000E-03 0. -1.
    9900012    2    1    2    0    0  0.23476804740E+02 -0.37246450025E+01  0.36312398934E+02  0.47787266624E+02  0.19999979846E+02 0.  0.
         12    1    1    2    0    0 -0.23476804740E+02  0.37246450025E+01 -0.36312398934E+02  0.43400733376E+02  0.00000000000E+00 0. -1.
         11    1    3    3    0    0 -0.22431529240E+00 -0.23886805884E+00  0.11218005179E+01  0.11686795810E+01  0.51100000000E-03 0. -1.
        -11    1    3    3    0    0  0.15113055238E+02  0.72365149727E+01  0.17624874190E+02  0.24318876990E+02  0.51100000000E-03 0.  1.
        -12    1    3    3    0    0  0.85880647943E+01 -0.10722291916E+02  0.17565724226E+02  0.22299710053E+02  0.00000000000E+00 0.  1.
</event>
<event>
 7    1  0.4876728E-009  0.4778727E+02  0.7816164E-02  0.1312668E+00
        -11   -1    0    0    0    0  0.00000000000E+00  0.00000000000E+00  0.45593999997E+02  0.45594000000E+02  0.51100000000E-03 0.  1.
         11   -1    0    0    0    0 -0.00000000000E+00 -0.00000000000E+00 -0.45593999997E+02  0.45594000000E+02  0.51100000000E-03 0. -1.
    9900012    2    1    2    0    0 -0.37659225965E+02  0.17535951080E+01  0.21501884707E+02  0.47787269107E+02  0.19999991165E+02 0.  0.
         12    1    1    2    0    0  0.37659225965E+02 -0.17535951080E+01 -0.21501884707E+02  0.43400730893E+02  0.00000000000E+00 0. -1.
         11    1    3    3    0    0 -0.17110819178E+02 -0.54908876032E+01  0.78107049416E+01  0.19594312735E+02  0.51100000000E-03 0.  1.
        -11    1    3    3    0    0 -0.34058871035E+01  0.58237466074E+01  0.70393427248E+01  0.97503044962E+01  0.51100000000E-03 0. -1.
         12    1    3    3    0    0 -0.17142519684E+02  0.14207361037E+01  0.66518370406E+01  0.18442651876E+02  0.00000000000E+00 0. -1.
</event>
<event>
 7    1  0.5673487E-009  0.4778727E+02  0.7816164E-02  0.1312668E+00
        -11   -1    0    0    0    0  0.00000000000E+00  0.00000000000E+00  0.45593999997E+02  0.45594000000E+02  0.51100000000E-03 0.  1.
         11   -1    0    0    0    0 -0.00000000000E+00 -0.00000000000E+00 -0.45593999997E+02  0.45594000000E+02  0.51100000000E-03 0. -1.
    9900012    2    1    2    0    0 -0.38830396569E+02  0.12176788226E+02  0.15084752414E+02  0.47787267004E+02  0.19999981577E+02 0.  0.
         12    1    1    2    0    0  0.38830396569E+02 -0.12176788226E+02 -0.15084752414E+02  0.43400732996E+02  0.00000000000E+00 0. -1.
         11    1    3    3    0    0 -0.47851283157E+00 -0.30417999835E+01  0.48253578333E+00  0.31167872422E+01  0.51100000000E-03 0. -1.
        -11    1    3    3    0    0 -0.13595889249E+02  0.11092931699E+01  0.34431101838E+01  0.14068892772E+02  0.51100000000E-03 0.  1.
         12    1    3    3    0    0 -0.24755994488E+02  0.14109295040E+02  0.11159106447E+02  0.30601586990E+02  0.00000000000E+00 0. -1.
</event>
<event>
 7    1  0.4876728E-009  0.4778727E+02  0.7816164E-02  0.1312668E+00
        -11   -1    0    0    0    0  0.00000000000E+00  0.00000000000E+00  0.45593999997E+02  0.45594000000E+02  0.51100000000E-03 0.  1.
         11   -1    0    0    0    0 -0.00000000000E+00 -0.00000000000E+00 -0.45593999997E+02  0.45594000000E+02  0.51100000000E-03 0. -1.
    9900012    2    1    2    0    0  0.37173983458E+02  0.93160875227E+00  0.22379679811E+02  0.47787274091E+02  0.20000013890E+02 0.  0.
         12    1    1    2    0    0 -0.37173983458E+02 -0.93160875227E+00 -0.22379679811E+02  0.43400725909E+02  0.00000000000E+00 0. -1.
         11    1    3    3    0    0  0.11744756708E+02 -0.53798409076E+01  0.96087482554E-01  0.12918638914E+02  0.51100000000E-03 0. -1.
        -11    1    3    3    0    0  0.11687542604E+02  0.34989572366E+01  0.14035674500E+02  0.18596814588E+02  0.51100000000E-03 0.  1.
        -12    1    3    3    0    0  0.13741684146E+02  0.28124924233E+01  0.82479178283E+01  0.16271820589E+02  0.00000000000E+00 0.  1.
</event>
<event>
 7    1  0.4876728E-009  0.4778727E+02  0.7816164E-02  0.1312668E+00
        -11   -1    0    0    0    0  0.00000000000E+00  0.00000000000E+00  0.45593999997E+02  0.45594000000E+02  0.51100000000E-03 0.  1.
         11   -1    0    0    0    0 -0.00000000000E+00 -0.00000000000E+00 -0.45593999997E+02  0.45594000000E+02  0.51100000000E-03 0. -1.
    9900012    2    1    2    0    0 -0.31150549454E+02  0.27686523899E+02  0.12112933290E+02  0.47787268557E+02  0.19999988660E+02 0.  0.
         12    1    1    2    0    0  0.31150549454E+02 -0.27686523899E+02 -0.12112933290E+02  0.43400731443E+02  0.00000000000E+00 0. -1.
         11    1    3    3    0    0 -0.13800133402E+02  0.21007314454E+02  0.69484500650E+01  0.26077421288E+02  0.51100000000E-03 0. -1.
        -11    1    3    3    0    0 -0.25235715620E+01  0.56856993127E+01  0.17597574554E+01  0.64646992711E+01  0.51100000000E-03 0.  1.
         12    1    3    3    0    0 -0.14826844490E+02  0.99351013188E+00  0.34047257701E+01  0.15245147998E+02  0.00000000000E+00 0. -1.
</event>
<event>
 7    1  0.4876728E-009  0.4778727E+02  0.7816164E-02  0.1312668E+00
        -11   -1    0    0    0    0  0.00000000000E+00  0.00000000000E+00  0.45593999997E+02  0.45594000000E+02  0.51100000000E-03 0.  1.
         11   -1    0    0    0    0 -0.00000000000E+00 -0.00000000000E+00 -0.45593999997E+02  0.45594000000E+02  0.51100000000E-03 0. -1.
    9900012    2    1    2    0    0  0.36606958773E+02 -0.22308267983E+02  0.67745787290E+01  0.47787272264E+02  0.20000005563E+02 0.  0.
         12    1    1    2    0    0 -0.36606958773E+02  0.22308267983E+02 -0.67745787290E+01  0.43400727736E+02  0.00000000000E+00 0. -1.
         11    1    3    3    0    0 -0.22654899332E+00  0.20946275078E+01  0.17461121198E+01  0.27363655894E+01  0.51100000000E-03 0. -1.
        -11    1    3    3    0    0  0.26841818136E+02 -0.14857999541E+02  0.11602500729E+01  0.30701620995E+02  0.51100000000E-03 0.  1.
        -12    1    3    3    0    0  0.99916896304E+01 -0.95448959502E+01  0.38682165362E+01  0.14349285681E+02  0.00000000000E+00 0.  1.
</event>
<event>
 7    1  0.4876728E-009  0.4778727E+02  0.7816164E-02  0.1312668E+00
        -11   -1    0    0    0    0  0.00000000000E+00  0.00000000000E+00  0.45593999997E+02  0.45594000000E+02  0.51100000000E-03 0.  1.
         11   -1    0    0    0    0 -0.00000000000E+00 -0.00000000000E+00 -0.45593999997E+02  0.45594000000E+02  0.51100000000E-03 0. -1.
    9900012    2    1    2    0    0 -0.10905219151E+02  0.29603425111E+02  0.29804979665E+02  0.47787269640E+02  0.19999993595E+02 0.  0.
         12    1    1    2    0    0  0.10905219151E+02 -0.29603425111E+02 -0.29804979665E+02  0.43400730360E+02  0.00000000000E+00 0. -1.
         11    1    3    3    0    0 -0.37765561900E+01 -0.88295446797E+00  0.21586984463E+00  0.38844028240E+01  0.51100000000E-03 0. -1.
        -11    1    3    3    0    0  0.39574805334E+00  0.28482569994E+01  0.65139978871E+01  0.71204882691E+01  0.51100000000E-03 0.  1.
         12    1    3    3    0    0 -0.75244110141E+01  0.27638122579E+02  0.23075111933E+02  0.36782378546E+02  0.00000000000E+00 0. -1.
</event>
<event>
 7    1  0.4876728E-009  0.4778727E+02  0.7816164E-02  0.1312668E+00
        -11   -1    0    0    0    0  0.00000000000E+00  0.00000000000E+00  0.45593999997E+02  0.45594000000E+02  0.51100000000E-03 0.  1.
         11   -1    0    0    0    0 -0.00000000000E+00 -0.00000000000E+00 -0.45593999997E+02  0.45594000000E+02  0.51100000000E-03 0. -1.
    9900012    2    1    2    0    0  0.66246166706E+01  0.20762856858E+02  0.37531872052E+02  0.47787272003E+02  0.20000004370E+02 0.  0.
         12    1    1    2    0    0 -0.66246166706E+01 -0.20762856858E+02 -0.37531872052E+02  0.43400727997E+02  0.00000000000E+00 0. -1.
         11    1    3    3    0    0  0.88263114190E+01  0.68446924877E+01  0.69395868972E+01  0.13149580034E+02  0.51100000000E-03 0. -1.
        -11    1    3    3    0    0 -0.28716675951E+01  0.11463204253E+02  0.29660042047E+02  0.31927568354E+02  0.51100000000E-03 0.  1.
        -12    1    3    3    0    0  0.66997284677E+00  0.24549601175E+01  0.93224310805E+00  0.27101236146E+01  0.00000000000E+00 0.  1.
</event>
<event>
 7    1  0.4876728E-009  0.4778728E+02  0.7816164E-02  0.1312668E+00
        -11   -1    0    0    0    0  0.00000000000E+00  0.00000000000E+00  0.45593999997E+02  0.45594000000E+02  0.51100000000E-03 0. -1.
         11   -1    0    0    0    0 -0.00000000000E+00 -0.00000000000E+00 -0.45593999997E+02  0.45594000000E+02  0.51100000000E-03 0.  1.
    9900012    2    1    2    0    0  0.37488422984E+02 -0.40355287382E+01 -0.21493149769E+02  0.47787276077E+02  0.20000022945E+02 0.  0.
         12    1    1    2    0    0 -0.37488422984E+02  0.40355287382E+01  0.21493149769E+02  0.43400723923E+02  0.00000000000E+00 0. -1.
         11    1    3    3    0    0  0.22316697960E+02 -0.50641353875E+00 -0.17462756820E+02  0.28341477352E+02  0.51100000000E-03 0. -1.
        -11    1    3    3    0    0  0.15963973425E+02 -0.19530955932E+01 -0.12219634034E+01  0.16129359092E+02  0.51100000000E-03 0.  1.
         12    1    3    3    0    0 -0.79224839974E+00 -0.15760196063E+01 -0.28084295452E+01  0.33164396326E+01  0.00000000000E+00 0. -1.
</event>
<event>
 7    1  0.4876728E-009  0.4778726E+02  0.7816164E-02  0.1312668E+00
        -11   -1    0    0    0    0  0.00000000000E+00  0.00000000000E+00  0.45593999997E+02  0.45594000000E+02  0.51100000000E-03 0. -1.
         11   -1    0    0    0    0 -0.00000000000E+00 -0.00000000000E+00 -0.45593999997E+02  0.45594000000E+02  0.51100000000E-03 0.  1.
    9900012    2    1    2    0    0 -0.37155276986E+02  0.16746802067E+02  0.14921592798E+02  0.47787263612E+02  0.19999966115E+02 0.  0.
         12    1    1    2    0    0  0.37155276986E+02 -0.16746802067E+02 -0.14921592798E+02  0.43400736388E+02  0.00000000000E+00 0. -1.
         11    1    3    3    0    0 -0.66075041481E+01  0.11408915217E+02  0.29387940226E+01  0.13507737341E+02  0.51100000000E-03 0.  1.
        -11    1    3    3    0    0 -0.28677261497E+02  0.46500782897E+01  0.13236400003E+02  0.31925081681E+02  0.51100000000E-03 0. -1.
         12    1    3    3    0    0 -0.18705113409E+01  0.68780855997E+00 -0.12536012276E+01  0.23544445905E+01  0.00000000000E+00 0. -1.
</event>
<event>
 7    1  0.4876728E-009  0.4778727E+02  0.7816164E-02  0.1312668E+00
        -11   -1    0    0    0    0  0.00000000000E+00  0.00000000000E+00  0.45593999997E+02  0.45594000000E+02  0.51100000000E-03 0.  1.
         11   -1    0    0    0    0 -0.00000000000E+00 -0.00000000000E+00 -0.45593999997E+02  0.45594000000E+02  0.51100000000E-03 0. -1.
    9900012    2    1    2    0    0  0.80487428811E+01 -0.31845375315E+02  0.28367466412E+02  0.47787270264E+02  0.19999996444E+02 0.  0.
         12    1    1    2    0    0 -0.80487428811E+01  0.31845375315E+02 -0.28367466412E+02  0.43400729736E+02  0.00000000000E+00 0. -1.
         11    1    3    3    0    0  0.65690127741E+01 -0.21164117784E+02  0.13641027643E+02  0.26022095339E+02  0.51100000000E-03 0. -1.
        -11    1    3    3    0    0  0.48735225305E+01 -0.51977457298E+00  0.70472135018E+01  0.85839737805E+01  0.51100000000E-03 0.  1.
        -12    1    3    3    0    0 -0.33937924235E+01 -0.10161482958E+02  0.76792252680E+01  0.13181201145E+02  0.00000000000E+00 0.  1.
</event>
<event>
 7    1  0.4876728E-009  0.4778728E+02  0.7816164E-02  0.1312668E+00
        -11   -1    0    0    0    0  0.00000000000E+00  0.00000000000E+00  0.45593999997E+02  0.45594000000E+02  0.51100000000E-03 0.  1.
         11   -1    0    0    0    0 -0.00000000000E+00 -0.00000000000E+00 -0.45593999997E+02  0.45594000000E+02  0.51100000000E-03 0. -1.
    9900012    2    1    2    0    0  0.42116232194E+02 -0.56287705371E+00  0.10465573673E+02  0.47787284831E+02  0.20000062860E+02 0.  0.
         12    1    1    2    0    0 -0.42116232194E+02  0.56287705371E+00 -0.10465573673E+02  0.43400715169E+02  0.00000000000E+00 0. -1.
         11    1    3    3    0    0  0.15866942555E+02  0.29549593100E+01  0.30360570304E+00  0.16142609059E+02  0.51100000000E-03 0. -1.
        -11    1    3    3    0    0  0.24009963506E+02 -0.48112852734E+01  0.13066800634E+02  0.27755505627E+02  0.51100000000E-03 0.  1.
         12    1    3    3    0    0  0.22393261336E+01  0.12934489097E+01 -0.29048326634E+01  0.38891701450E+01  0.00000000000E+00 0. -1.
</event>
<event>
 7    1  0.4876728E-009  0.4778727E+02  0.7816164E-02  0.1312668E+00
        -11   -1    0    0    0    0  0.00000000000E+00  0.00000000000E+00  0.45593999997E+02  0.45594000000E+02  0.51100000000E-03 0. -1.
         11   -1    0    0    0    0 -0.00000000000E+00 -0.00000000000E+00 -0.45593999997E+02  0.45594000000E+02  0.51100000000E-03 0.  1.
    9900012    2    1    2    0    0 -0.32262548198E+02 -0.17517046840E+02 -0.23149605143E+02  0.47787272304E+02  0.20000005744E+02 0.  0.
         12    1    1    2    0    0  0.32262548198E+02  0.17517046840E+02  0.23149605143E+02  0.43400727696E+02  0.00000000000E+00 0. -1.
         11    1    3    3    0    0 -0.84819621632E+01 -0.11090927729E+02 -0.28955142014E+01  0.14259605983E+02  0.51100000000E-03 0. -1.
        -11    1    3    3    0    0 -0.22757902916E+02 -0.85669942248E+01 -0.17991046610E+02  0.30248856071E+02  0.51100000000E-03 0.  1.
         12    1    3    3    0    0 -0.10226831185E+01  0.21408751138E+01 -0.22630443317E+01  0.32788102508E+01  0.00000000000E+00 0. -1.
</event>
<event>
 7    1  0.4876728E-009  0.4778726E+02  0.7816164E-02  0.1312668E+00
        -11   -1    0    0    0    0  0.00000000000E+00  0.00000000000E+00  0.45593999997E+02  0.45594000000E+02  0.51100000000E-03 0.  1.
         11   -1    0    0    0    0 -0.00000000000E+00 -0.00000000000E+00 -0.45593999997E+02  0.45594000000E+02  0.51100000000E-03 0. -1.
    9900012    2    1    2    0    0  0.16834232306E+02  0.35568610946E+01  0.39844463995E+02  0.47787263264E+02  0.19999964525E+02 0.  0.
         12    1    1    2    0    0 -0.16834232306E+02 -0.35568610946E+01 -0.39844463995E+02  0.43400736736E+02  0.00000000000E+00 0. -1.
         11    1    3    3    0    0  0.10299073198E+02  0.24230658184E+01  0.68969122489E+01  0.12629709241E+02  0.51100000000E-03 0. -1.
        -11    1    3    3    0    0  0.67832816339E+01 -0.26700710693E+01  0.27874287598E+02  0.28811770140E+02  0.51100000000E-03 0.  1.
        -12    1    3    3    0    0 -0.24812252542E+00  0.38038663455E+01  0.50732641479E+01  0.63457838819E+01  0.00000000000E+00 0.  1.
</event>
<event>
 7    1  0.4876728E-009  0.4778723E+02  0.7816164E-02  0.1312668E+00
        -11   -1    0    0    0    0  0.00000000000E+00  0.00000000000E+00  0.45593999997E+02  0.45594000000E+02  0.51100000000E-03 0. -1.
         11   -1    0    0    0    0 -0.00000000000E+00 -0.00000000000E+00 -0.45593999997E+02  0.45594000000E+02  0.51100000000E-03 0.  1.
    9900012    2    1    2    0    0 -0.43124087213E+02  0.31952652424E+01 -0.37054811127E+01  0.47787225719E+02  0.19999793344E+02 0.  0.
         12    1    1    2    0    0  0.43124087213E+02 -0.31952652424E+01  0.37054811127E+01  0.43400774281E+02  0.00000000000E+00 0. -1.
         11    1    3    3    0    0 -0.34594929347E+01  0.41515970440E+01  0.31549647033E+01  0.62576075238E+01  0.51100000000E-03 0. -1.
        -11    1    3    3    0    0 -0.27409462764E+02  0.40733337548E+01 -0.48055722634E+01  0.28124086153E+02  0.51100000000E-03 0.  1.
         12    1    3    3    0    0 -0.12255131514E+02 -0.50296655565E+01 -0.20548735527E+01  0.13405532043E+02  0.00000000000E+00 0. -1.
</event>
<event>
 7    1  0.4876728E-009  0.4778727E+02  0.7816164E-02  0.1312668E+00
        -11   -1    0    0    0    0  0.00000000000E+00  0.00000000000E+00  0.45593999997E+02  0.45594000000E+02  0.51100000000E-03 0.  1.
         11   -1    0    0    0    0 -0.00000000000E+00 -0.00000000000E+00 -0.45593999997E+02  0.45594000000E+02  0.51100000000E-03 0. -1.
    9900012    2    1    2    0    0 -0.37909235428E+02  0.20754636949E+02 -0.39696343800E+01  0.47787273247E+02  0.20000010040E+02 0.  0.
         12    1    1    2    0    0  0.37909235428E+02 -0.20754636949E+02  0.39696343800E+01  0.43400726753E+02  0.00000000000E+00 0. -1.
         11    1    3    3    0    0 -0.18528995962E+02  0.18287293949E+02 -0.26142003413E+00  0.26034921779E+02  0.51100000000E-03 0. -1.
        -11    1    3    3    0    0 -0.59114931925E+01  0.37565035988E+01  0.16565247204E+01  0.71973012625E+01  0.51100000000E-03 0.  1.
         12    1    3    3    0    0 -0.13468746274E+02 -0.12891605984E+01 -0.53647390663E+01  0.14555050205E+02  0.00000000000E+00 0. -1.
</event>
<event>
 7    1  0.4876728E-009  0.4778729E+02  0.7816164E-02  0.1312668E+00
        -11   -1    0    0    0    0  0.00000000000E+00  0.00000000000E+00  0.45593999997E+02  0.45594000000E+02  0.51100000000E-03 0.  1.
         11   -1    0    0    0    0 -0.00000000000E+00 -0.00000000000E+00 -0.45593999997E+02  0.45594000000E+02  0.51100000000E-03 0. -1.
    9900012    2    1    2    0    0 -0.33191716512E+01  0.63147456733E+01  0.42810385321E+02  0.47787285666E+02  0.20000066666E+02 0.  0.
         12    1    1    2    0    0  0.33191716512E+01 -0.63147456733E+01 -0.42810385321E+02  0.43400714334E+02  0.00000000000E+00 0. -1.
         11    1    3    3    0    0 -0.31711229169E+01  0.94977347768E+01  0.19901562530E+02  0.22278581145E+02  0.51100000000E-03 0. -1.
        -11    1    3    3    0    0 -0.39416679979E+01 -0.30842618419E+01  0.45573436300E+01  0.67689584825E+01  0.51100000000E-03 0.  1.
        -12    1    3    3    0    0  0.37936192636E+01 -0.98727261659E-01  0.18351479161E+02  0.18739746038E+02  0.00000000000E+00 0.  1.
</event>
<event>
 7    1  0.4876728E-009  0.4778727E+02  0.7816164E-02  0.1312668E+00
        -11   -1    0    0    0    0  0.00000000000E+00  0.00000000000E+00  0.45593999997E+02  0.45594000000E+02  0.51100000000E-03 0.  1.
         11   -1    0    0    0    0 -0.00000000000E+00 -0.00000000000E+00 -0.45593999997E+02  0.45594000000E+02  0.51100000000E-03 0. -1.
    9900012    2    1    2    0    0 -0.27686656259E+02  0.26288226344E+02  0.20639811342E+02  0.47787267387E+02  0.19999983323E+02 0.  0.
         12    1    1    2    0    0  0.27686656259E+02 -0.26288226344E+02 -0.20639811342E+02  0.43400732613E+02  0.00000000000E+00 0. -1.
         11    1    3    3    0    0  0.11679355025E+01 -0.18294360922E+00  0.44097570100E+01  0.45654680867E+01  0.51100000000E-03 0. -1.
        -11    1    3    3    0    0 -0.22431897593E+02  0.23116073863E+02  0.10178057086E+02  0.33780700803E+02  0.51100000000E-03 0.  1.
        -12    1    3    3    0    0 -0.64226941686E+01  0.33550960905E+01  0.60519972457E+01  0.94410984965E+01  0.00000000000E+00 0.  1.
</event>
<event>
 7    1  0.4876728E-009  0.4778727E+02  0.7816164E-02  0.1312668E+00
        -11   -1    0    0    0    0  0.00000000000E+00  0.00000000000E+00  0.45593999997E+02  0.45594000000E+02  0.51100000000E-03 0. -1.
         11   -1    0    0    0    0 -0.00000000000E+00 -0.00000000000E+00 -0.45593999997E+02  0.45594000000E+02  0.51100000000E-03 0.  1.
    9900012    2    1    2    0    0  0.21562000657E+02 -0.32910984412E+02 -0.18318585372E+02  0.47787270313E+02  0.19999996666E+02 0.  0.
         12    1    1    2    0    0 -0.21562000657E+02  0.32910984412E+02  0.18318585372E+02  0.43400729687E+02  0.00000000000E+00 0. -1.
         11    1    3    3    0    0 -0.99614375098E+00 -0.38253466631E+01  0.31826822970E+01  0.50749429879E+01  0.51100000000E-03 0. -1.
        -11    1    3    3    0    0  0.16401591987E+02 -0.19117809508E+02 -0.14791685735E+02  0.29211244877E+02  0.51100000000E-03 0.  1.
         12    1    3    3    0    0  0.61565524211E+01 -0.99678282412E+01 -0.67095819336E+01  0.13501082449E+02  0.00000000000E+00 0. -1.
</event>
<event>
 7    1  0.4876728E-009  0.4778727E+02  0.7816164E-02  0.1312668E+00
        -11   -1    0    0    0    0  0.00000000000E+00  0.00000000000E+00  0.45593999997E+02  0.45594000000E+02  0.51100000000E-03 0.  1.
         11   -1    0    0    0    0 -0.00000000000E+00 -0.00000000000E+00 -0.45593999997E+02  0.45594000000E+02  0.51100000000E-03 0. -1.
    9900012    2    1    2    0    0 -0.44358228727E+01 -0.74540737265E+01  0.42525089512E+02  0.47787274457E+02  0.20000015557E+02 0.  0.
         12    1    1    2    0    0  0.44358228727E+01  0.74540737265E+01 -0.42525089512E+02  0.43400725543E+02  0.00000000000E+00 0. -1.
         11    1    3    3    0    0  0.40069538356E+01 -0.88013573294E+01  0.13586342003E+02  0.16676578161E+02  0.51100000000E-03 0. -1.
        -11    1    3    3    0    0 -0.82148793672E+01 -0.14815984310E+01  0.24055311544E+02  0.25462470239E+02  0.51100000000E-03 0.  1.
         12    1    3    3    0    0 -0.22789734105E+00  0.28288820339E+01  0.48834359643E+01  0.56482260558E+01  0.00000000000E+00 0. -1.
</event>
<event>
 7    1  0.4876728E-009  0.4778728E+02  0.7816164E-02  0.1312668E+00
        -11   -1    0    0    0    0  0.00000000000E+00  0.00000000000E+00  0.45593999997E+02  0.45594000000E+02  0.51100000000E-03 0. -1.
         11   -1    0    0    0    0 -0.00000000000E+00 -0.00000000000E+00 -0.45593999997E+02  0.45594000000E+02  0.51100000000E-03 0.  1.
    9900012    2    1    2    0    0  0.30916437778E+02 -0.29847062989E+02 -0.60786166374E+01  0.47787275649E+02  0.20000020996E+02 0.  0.
         12    1    1    2    0    0 -0.30916437778E+02  0.29847062989E+02  0.60786166374E+01  0.43400724351E+02  0.00000000000E+00 0. -1.
         11    1    3    3    0    0  0.19501860192E+02 -0.23066853734E+02 -0.19002710814E+01  0.30265711996E+02  0.51100000000E-03 0. -1.
        -11    1    3    3    0    0  0.46354323852E+01  0.79176510826E+00 -0.55408385502E+01  0.72673941331E+01  0.51100000000E-03 0.  1.
        -12    1    3    3    0    0  0.67791452007E+01 -0.75719743627E+01  0.13624929942E+01  0.10254169521E+02  0.00000000000E+00 0.  1.
</event>
<event>
 7    1  0.4876728E-009  0.4778727E+02  0.7816164E-02  0.1312668E+00
        -11   -1    0    0    0    0  0.00000000000E+00  0.00000000000E+00  0.45593999997E+02  0.45594000000E+02  0.51100000000E-03 0. -1.
         11   -1    0    0    0    0 -0.00000000000E+00 -0.00000000000E+00 -0.45593999997E+02  0.45594000000E+02  0.51100000000E-03 0.  1.
    9900012    2    1    2    0    0  0.29329752961E+02 -0.31973650344E+02 -0.10365238769E+01  0.47787272969E+02  0.20000008775E+02 0.  0.
         12    1    1    2    0    0 -0.29329752961E+02  0.31973650344E+02  0.10365238769E+01  0.43400727031E+02  0.00000000000E+00 0. -1.
         11    1    3    3    0    0 -0.21834772203E+01 -0.54128296261E+01 -0.62216552823E+00  0.58697008048E+01  0.51100000000E-03 0. -1.
        -11    1    3    3    0    0  0.54207220048E+01 -0.25489821857E+01 -0.22787893757E+01  0.64089327127E+01  0.51100000000E-03 0.  1.
         12    1    3    3    0    0  0.26092508177E+02 -0.24011838532E+02  0.18644310270E+01  0.35508639451E+02  0.00000000000E+00 0. -1.
</event>
<event>
 7    1  0.4876728E-009  0.4778728E+02  0.7816164E-02  0.1312668E+00
        -11   -1    0    0    0    0  0.00000000000E+00  0.00000000000E+00  0.45593999997E+02  0.45594000000E+02  0.51100000000E-03 0.  1.
         11   -1    0    0    0    0 -0.00000000000E+00 -0.00000000000E+00 -0.45593999997E+02  0.45594000000E+02  0.51100000000E-03 0. -1.
    9900012    2    1    2    0    0  0.12266140392E+02  0.23568826192E+02  0.34317271619E+02  0.47787275357E+02  0.20000019663E+02 0.  0.
         12    1    1    2    0    0 -0.12266140392E+02 -0.23568826192E+02 -0.34317271619E+02  0.43400724643E+02  0.00000000000E+00 0. -1.
         11    1    3    3    0    0 -0.38542258688E+01  0.10497749222E+01  0.50064458081E+01  0.64048094683E+01  0.51100000000E-03 0. -1.
        -11    1    3    3    0    0  0.14192164875E+02  0.21363414014E+02  0.22188340563E+02  0.33913647096E+02  0.51100000000E-03 0.  1.
        -12    1    3    3    0    0  0.19282013854E+01  0.11556372555E+01  0.71224852481E+01  0.74688187927E+01  0.00000000000E+00 0.  1.
</event>
<event>
 7    1  0.4876728E-009  0.4778727E+02  0.7816164E-02  0.1312668E+00
        -11   -1    0    0    0    0  0.00000000000E+00  0.00000000000E+00  0.45593999997E+02  0.45594000000E+02  0.51100000000E-03 0.  1.
         11   -1    0    0    0    0 -0.00000000000E+00 -0.00000000000E+00 -0.45593999997E+02  0.45594000000E+02  0.51100000000E-03 0. -1.
    9900012    2    1    2    0    0  0.53078735073E+01  0.31026302791E+01  0.42963044247E+02  0.47787274121E+02  0.20000014028E+02 0.  0.
         12    1    1    2    0    0 -0.53078735073E+01 -0.31026302791E+01 -0.42963044247E+02  0.43400725879E+02  0.00000000000E+00 0. -1.
         11    1    3    3    0    0 -0.15351458135E+01  0.72086256639E+01  0.70456855429E+01  0.10196207219E+02  0.51100000000E-03 0. -1.
        -11    1    3    3    0    0  0.41400380669E+01 -0.19208383742E+01  0.63492497444E+01  0.78193674829E+01  0.51100000000E-03 0.  1.
         12    1    3    3    0    0  0.27029812539E+01 -0.21851570106E+01  0.29568108960E+02  0.29771699419E+02  0.00000000000E+00 0. -1.
</event>
<event>
 7    1  0.4876728E-009  0.4778727E+02  0.7816164E-02  0.1312668E+00
        -11   -1    0    0    0    0  0.00000000000E+00  0.00000000000E+00  0.45593999997E+02  0.45594000000E+02  0.51100000000E-03 0.  1.
         11   -1    0    0    0    0 -0.00000000000E+00 -0.00000000000E+00 -0.45593999997E+02  0.45594000000E+02  0.51100000000E-03 0. -1.
    9900012    2    1    2    0    0  0.55730967690E+01 -0.18261086398E+02  0.38975592814E+02  0.47787268218E+02  0.19999987111E+02 0.  0.
         12    1    1    2    0    0 -0.55730967690E+01  0.18261086398E+02 -0.38975592814E+02  0.43400731782E+02  0.00000000000E+00 0. -1.
         11    1    3    3    0    0  0.10204585352E+02 -0.84392034015E+01  0.14135047422E+02  0.19368874054E+02  0.51100000000E-03 0. -1.
        -11    1    3    3    0    0 -0.23468821551E+01 -0.18442418052E+01  0.16067728697E+02  0.16342612687E+02  0.51100000000E-03 0.  1.
        -12    1    3    3    0    0 -0.22846064275E+01 -0.79776411908E+01  0.87728166952E+01  0.12075781476E+02  0.00000000000E+00 0.  1.
</event>
<event>
 7    1  0.4876728E-009  0.4778727E+02  0.7816164E-02  0.1312668E+00
        -11   -1    0    0    0    0  0.00000000000E+00  0.00000000000E+00  0.45593999997E+02  0.45594000000E+02  0.51100000000E-03 0.  1.
         11   -1    0    0    0    0 -0.00000000000E+00 -0.00000000000E+00 -0.45593999997E+02  0.45594000000E+02  0.51100000000E-03 0. -1.
    9900012    2    1    2    0    0  0.38904148622E+01  0.22079800427E+02  0.37161409947E+02  0.47787270698E+02  0.19999998421E+02 0.  0.
         12    1    1    2    0    0 -0.38904148622E+01 -0.22079800427E+02 -0.37161409947E+02  0.43400729302E+02  0.00000000000E+00 0. -1.
         11    1    3    3    0    0  0.13415043034E+01  0.77663818087E+01  0.12423654715E+01  0.79787086937E+01  0.51100000000E-03 0. -1.
        -11    1    3    3    0    0 -0.27277795499E+01  0.98471779771E+01  0.22588598183E+02  0.24792185533E+02  0.51100000000E-03 0.  1.
         12    1    3    3    0    0  0.52766901087E+01  0.44662406412E+01  0.13330446293E+02  0.15016376471E+02  0.00000000000E+00 0. -1.
</event>
<event>
 7    1  0.4876728E-009  0.4778727E+02  0.7816164E-02  0.1312668E+00
        -11   -1    0    0    0    0  0.00000000000E+00  0.00000000000E+00  0.45593999997E+02  0.45594000000E+02  0.51100000000E-03 0.  1.
         11   -1    0    0    0    0 -0.00000000000E+00 -0.00000000000E+00 -0.45593999997E+02  0.45594000000E+02  0.51100000000E-03 0. -1.
    9900012    2    1    2    0    0  0.62485556460E+01 -0.10371174255E+02  0.41677542461E+02  0.47787271335E+02  0.20000001324E+02 0.  0.
         12    1    1    2    0    0 -0.62485556460E+01  0.10371174255E+02 -0.41677542461E+02  0.43400728665E+02  0.00000000000E+00 0. -1.
         11    1    3    3    0    0  0.79213785238E+01 -0.22418214314E+01  0.15077376469E+02  0.17178512232E+02  0.51100000000E-03 0. -1.
        -11    1    3    3    0    0 -0.50270091209E+01 -0.54173180274E+01  0.58794440508E+01  0.94438349159E+01  0.51100000000E-03 0.  1.
        -12    1    3    3    0    0  0.33541862432E+01 -0.27120347963E+01  0.20720721941E+02  0.21164924187E+02  0.00000000000E+00 0.  1.
</event>
<event>
 7    1  0.4876728E-009  0.4778727E+02  0.7816164E-02  0.1312668E+00
        -11   -1    0    0    0    0  0.00000000000E+00  0.00000000000E+00  0.45593999997E+02  0.45594000000E+02  0.51100000000E-03 0. -1.
         11   -1    0    0    0    0 -0.00000000000E+00 -0.00000000000E+00 -0.45593999997E+02  0.45594000000E+02  0.51100000000E-03 0.  1.
    9900012    2    1    2    0    0  0.40459223809E+02 -0.15386690654E+02 -0.31502890447E+01  0.47787270034E+02  0.19999995394E+02 0.  0.
         12    1    1    2    0    0 -0.40459223809E+02  0.15386690654E+02  0.31502890447E+01  0.43400729966E+02  0.00000000000E+00 0. -1.
         11    1    3    3    0    0  0.46500520756E+01 -0.84765164375E+01 -0.32889812107E+01  0.10212331413E+02  0.51100000000E-03 0.  1.
        -11    1    3    3    0    0  0.13225024795E+02  0.10384018151E+01  0.25608395380E+01  0.13510642419E+02  0.51100000000E-03 0. -1.
        -12    1    3    3    0    0  0.22584146938E+02 -0.79485760313E+01 -0.24221473721E+01  0.24064296203E+02  0.00000000000E+00 0.  1.
</event>
<event>
 7    1  0.4876728E-009  0.4778727E+02  0.7816164E-02  0.1312668E+00
        -11   -1    0    0    0    0  0.00000000000E+00  0.00000000000E+00  0.45593999997E+02  0.45594000000E+02  0.51100000000E-03 0.  1.
         11   -1    0    0    0    0 -0.00000000000E+00 -0.00000000000E+00 -0.45593999997E+02  0.45594000000E+02  0.51100000000E-03 0. -1.
    9900012    2    1    2    0    0 -0.30948063651E+02 -0.28766382214E+02  0.99164286563E+01  0.47787274813E+02  0.20000017183E+02 0.  0.
         12    1    1    2    0    0  0.30948063651E+02  0.28766382214E+02 -0.99164286563E+01  0.43400725187E+02  0.00000000000E+00 0. -1.
         11    1    3    3    0    0 -0.74489578047E+01 -0.17896518907E+02  0.67979549642E+01  0.20542262615E+02  0.51100000000E-03 0. -1.
        -11    1    3    3    0    0 -0.91544082400E+01 -0.17398668798E+00  0.60556012257E+00  0.91760647838E+01  0.51100000000E-03 0.  1.
         12    1    3    3    0    0 -0.14344697606E+02 -0.10695876619E+02  0.25129135695E+01  0.18068947415E+02  0.00000000000E+00 0. -1.
</event>
<event>
 7    1  0.4876728E-009  0.4778728E+02  0.7816164E-02  0.1312668E+00
        -11   -1    0    0    0    0  0.00000000000E+00  0.00000000000E+00  0.45593999997E+02  0.45594000000E+02  0.51100000000E-03 0.  1.
         11   -1    0    0    0    0 -0.00000000000E+00 -0.00000000000E+00 -0.45593999997E+02  0.45594000000E+02  0.51100000000E-03 0. -1.
    9900012    2    1    2    0    0  0.21186577650E+02  0.25431078161E+02  0.28071542036E+02  0.47787282480E+02  0.20000052141E+02 0.  0.
         12    1    1    2    0    0 -0.21186577650E+02 -0.25431078161E+02 -0.28071542036E+02  0.43400717520E+02  0.00000000000E+00 0. -1.
         11    1    3    3    0    0  0.43553652266E+01 -0.16686080879E+01  0.12022011960E+00  0.46656095365E+01  0.51100000000E-03 0. -1.
        -11    1    3    3    0    0  0.15738172121E+02  0.21382959441E+02  0.25478854709E+02  0.36798003393E+02  0.51100000000E-03 0.  1.
         12    1    3    3    0    0  0.10930403019E+01  0.57167268080E+01  0.24724672071E+01  0.63236695509E+01  0.00000000000E+00 0. -1.
</event>
<event>
 7    1  0.4876728E-009  0.4778727E+02  0.7816164E-02  0.1312668E+00
        -11   -1    0    0    0    0  0.00000000000E+00  0.00000000000E+00  0.45593999997E+02  0.45594000000E+02  0.51100000000E-03 0.  1.
         11   -1    0    0    0    0 -0.00000000000E+00 -0.00000000000E+00 -0.45593999997E+02  0.45594000000E+02  0.51100000000E-03 0. -1.
    9900012    2    1    2    0    0  0.16708961573E+02 -0.29415286405E+02  0.27187771560E+02  0.47787269666E+02  0.19999993714E+02 0.  0.
         12    1    1    2    0    0 -0.16708961573E+02  0.29415286405E+02 -0.27187771560E+02  0.43400730334E+02  0.00000000000E+00 0. -1.
         11    1    3    3    0    0  0.10790610685E+02 -0.82648979963E+01  0.30248102015E+01  0.13924629075E+02  0.51100000000E-03 0. -1.
        -11    1    3    3    0    0  0.61382518643E+01 -0.94817202792E+01  0.76508704451E+01  0.13642469506E+02  0.51100000000E-03 0.  1.
         12    1    3    3    0    0 -0.21990097633E+00 -0.11668668130E+02  0.16512090913E+02  0.20220171085E+02  0.00000000000E+00 0. -1.
</event>
<event>
 7    1  0.4876728E-009  0.4778727E+02  0.7816164E-02  0.1312668E+00
        -11   -1    0    0    0    0  0.00000000000E+00  0.00000000000E+00  0.45593999997E+02  0.45594000000E+02  0.51100000000E-03 0.  1.
         11   -1    0    0    0    0 -0.00000000000E+00 -0.00000000000E+00 -0.45593999997E+02  0.45594000000E+02  0.51100000000E-03 0. -1.
    9900012    2    1    2    0    0 -0.31626135028E+01  0.96056305549E+01  0.42206076674E+02  0.47787272233E+02  0.20000005419E+02 0.  0.
         12    1    1    2    0    0  0.31626135028E+01 -0.96056305549E+01 -0.42206076674E+02  0.43400727767E+02  0.00000000000E+00 0. -1.
         11    1    3    3    0    0  0.14538948394E+01  0.13452760645E+01  0.17476466067E+01  0.26415614353E+01  0.51100000000E-03 0. -1.
        -11    1    3    3    0    0  0.37051573236E+01  0.60480278386E+01  0.50538988080E+01  0.87091173463E+01  0.51100000000E-03 0.  1.
        -12    1    3    3    0    0 -0.83216656658E+01  0.22123266519E+01  0.35404531259E+02  0.36436593451E+02  0.00000000000E+00 0.  1.
</event>
<event>
 7    1  0.4876728E-009  0.4778728E+02  0.7816164E-02  0.1312668E+00
        -11   -1    0    0    0    0  0.00000000000E+00  0.00000000000E+00  0.45593999997E+02  0.45594000000E+02  0.51100000000E-03 0.  1.
         11   -1    0    0    0    0 -0.00000000000E+00 -0.00000000000E+00 -0.45593999997E+02  0.45594000000E+02  0.51100000000E-03 0. -1.
    9900012    2    1    2    0    0  0.23190712748E+02  0.62126815073E+01  0.36155446193E+02  0.47787275828E+02  0.20000021809E+02 0.  0.
         12    1    1    2    0    0 -0.23190712748E+02 -0.62126815073E+01 -0.36155446193E+02  0.43400724172E+02  0.00000000000E+00 0. -1.
         11    1    3    3    0    0  0.14530212971E+02 -0.21611024686E+01  0.18545390018E+02  0.23658591337E+02  0.51100000000E-03 0.  1.
        -11    1    3    3    0    0  0.25223324358E+01  0.85221781702E+01  0.52366290554E+01  0.10315617568E+02  0.51100000000E-03 0. -1.
         12    1    3    3    0    0  0.61381673409E+01 -0.14839419428E+00  0.12373427119E+02  0.13813066923E+02  0.00000000000E+00 0. -1.
</event>
<event>
 7    1  0.4876728E-009  0.4778726E+02  0.7816164E-02  0.1312668E+00
        -11   -1    0    0    0    0  0.00000000000E+00  0.00000000000E+00  0.45593999997E+02  0.45594000000E+02  0.51100000000E-03 0.  1.
         11   -1    0    0    0    0 -0.00000000000E+00 -0.00000000000E+00 -0.45593999997E+02  0.45594000000E+02  0.51100000000E-03 0. -1.
    9900012    2    1    2    0    0 -0.20628565674E+02 -0.44518667109E+01  0.37924492533E+02  0.47787262992E+02  0.19999963284E+02 0.  0.
         12    1    1    2    0    0  0.20628565674E+02  0.44518667109E+01 -0.37924492533E+02  0.43400737008E+02  0.00000000000E+00 0. -1.
         11    1    3    3    0    0 -0.97698782310E+01  0.44402221284E+01  0.65813101562E+01  0.12588873533E+02  0.51100000000E-03 0. -1.
        -11    1    3    3    0    0 -0.11602162698E+02 -0.89814869188E+01  0.31138426216E+02  0.34422069578E+02  0.51100000000E-03 0.  1.
        -12    1    3    3    0    0  0.74347525504E+00  0.89398079588E-01  0.20475616072E+00  0.77631988049E+00  0.00000000000E+00 0.  1.
</event>
<event>
 7    1  0.4876728E-009  0.4778727E+02  0.7816164E-02  0.1312668E+00
        -11   -1    0    0    0    0  0.00000000000E+00  0.00000000000E+00  0.45593999997E+02  0.45594000000E+02  0.51100000000E-03 0.  1.
         11   -1    0    0    0    0 -0.00000000000E+00 -0.00000000000E+00 -0.45593999997E+02  0.45594000000E+02  0.51100000000E-03 0. -1.
    9900012    2    1    2    0    0  0.13704657342E+02 -0.14709721869E+02  0.38463356609E+02  0.47787270145E+02  0.19999995898E+02 0.  0.
         12    1    1    2    0    0 -0.13704657342E+02  0.14709721869E+02 -0.38463356609E+02  0.43400729855E+02  0.00000000000E+00 0. -1.
         11    1    3    3    0    0  0.50913261149E+01 -0.71702317243E+01  0.52369149781E+01  0.10235189463E+02  0.51100000000E-03 0. -1.
        -11    1    3    3    0    0  0.89601939074E+01 -0.47513484161E+01  0.33229159842E+02  0.34742444512E+02  0.51100000000E-03 0.  1.
        -12    1    3    3    0    0 -0.34686268017E+00 -0.27881417288E+01 -0.27182109138E-02  0.28096361699E+01  0.00000000000E+00 0.  1.
</event>
<event>
 7    1  0.4876728E-009  0.4778727E+02  0.7816164E-02  0.1312668E+00
        -11   -1    0    0    0    0  0.00000000000E+00  0.00000000000E+00  0.45593999997E+02  0.45594000000E+02  0.51100000000E-03 0.  1.
         11   -1    0    0    0    0 -0.00000000000E+00 -0.00000000000E+00 -0.45593999997E+02  0.45594000000E+02  0.51100000000E-03 0. -1.
    9900012    2    1    2    0    0  0.40784398277E+02 -0.12934019249E+02  0.72778701825E+01  0.47787269693E+02  0.19999993840E+02 0.  0.
         12    1    1    2    0    0 -0.40784398277E+02  0.12934019249E+02 -0.72778701825E+01  0.43400730307E+02  0.00000000000E+00 0. -1.
         11    1    3    3    0    0  0.32579979413E+02 -0.61953986411E+01 -0.48386090336E+00  0.33167335505E+02  0.51100000000E-03 0. -1.
        -11    1    3    3    0    0  0.14635958221E+01 -0.93843187625E+00 -0.11066327964E+01  0.20609229787E+01  0.51100000000E-03 0.  1.
         12    1    3    3    0    0  0.67408230414E+01 -0.58001887321E+01  0.88683638823E+01  0.12559011209E+02  0.00000000000E+00 0. -1.
</event>
<event>
 7    1  0.4876728E-009  0.4778728E+02  0.7816164E-02  0.1312668E+00
        -11   -1    0    0    0    0  0.00000000000E+00  0.00000000000E+00  0.45593999997E+02  0.45594000000E+02  0.51100000000E-03 0.  1.
         11   -1    0    0    0    0 -0.00000000000E+00 -0.00000000000E+00 -0.45593999997E+02  0.45594000000E+02  0.51100000000E-03 0. -1.
    9900012    2    1    2    0    0  0.22547589420E+02  0.14845809835E+02  0.33982797281E+02  0.47787281465E+02  0.20000047513E+02 0.  0.
         12    1    1    2    0    0 -0.22547589420E+02 -0.14845809835E+02 -0.33982797281E+02  0.43400718535E+02  0.00000000000E+00 0. -1.
         11    1    3    3    0    0  0.76069559317E+00  0.71921388103E+01  0.99211487735E+01  0.12277406554E+02  0.51100000000E-03 0.  1.
        -11    1    3    3    0    0  0.19736206160E+02  0.21030657568E+01  0.15913277875E+02  0.25439597720E+02  0.51100000000E-03 0. -1.
         12    1    3    3    0    0  0.20506876669E+01  0.55506052677E+01  0.81483706317E+01  0.10070277191E+02  0.00000000000E+00 0. -1.
</event>
<event>
 7    1  0.4876728E-009  0.4778728E+02  0.7816164E-02  0.1312668E+00
        -11   -1    0    0    0    0  0.00000000000E+00  0.00000000000E+00  0.45593999997E+02  0.45594000000E+02  0.51100000000E-03 0.  1.
         11   -1    0    0    0    0 -0.00000000000E+00 -0.00000000000E+00 -0.45593999997E+02  0.45594000000E+02  0.51100000000E-03 0. -1.
    9900012    2    1    2    0    0  0.16428673017E+01 -0.27914771206E+01  0.43279686707E+02  0.47787278359E+02  0.20000033349E+02 0.  0.
         12    1    1    2    0    0 -0.16428673017E+01  0.27914771206E+01 -0.43279686707E+02  0.43400721641E+02  0.00000000000E+00 0. -1.
         11    1    3    3    0    0 -0.37457109599E+01 -0.56942681729E+01  0.24583588913E+02  0.25510936571E+02  0.51100000000E-03 0. -1.
        -11    1    3    3    0    0  0.10253563391E+01 -0.24891273087E+01  0.13072688437E+02  0.13346995678E+02  0.51100000000E-03 0.  1.
         12    1    3    3    0    0  0.43632219224E+01  0.53919183610E+01  0.56234093570E+01  0.89293461100E+01  0.00000000000E+00 0. -1.
</event>
<event>
 7    1  0.4876728E-009  0.4778727E+02  0.7816164E-02  0.1312668E+00
        -11   -1    0    0    0    0  0.00000000000E+00  0.00000000000E+00  0.45593999997E+02  0.45594000000E+02  0.51100000000E-03 0. -1.
         11   -1    0    0    0    0 -0.00000000000E+00 -0.00000000000E+00 -0.45593999997E+02  0.45594000000E+02  0.51100000000E-03 0.  1.
    9900012    2    1    2    0    0  0.38732997447E+02  0.18459452843E+02  0.65289077636E+01  0.47787272735E+02  0.20000007709E+02 0.  0.
         12    1    1    2    0    0 -0.38732997447E+02 -0.18459452843E+02 -0.65289077636E+01  0.43400727265E+02  0.00000000000E+00 0. -1.
         11    1    3    3    0    0  0.48027864230E+01  0.32302269627E+00  0.52361460120E+01  0.71125471111E+01  0.51100000000E-03 0. -1.
        -11    1    3    3    0    0  0.17178609535E+02  0.94526049377E+01 -0.59087524967E+01  0.20478518549E+02  0.51100000000E-03 0.  1.
        -12    1    3    3    0    0  0.16751601490E+02  0.86838252095E+01  0.72015142483E+01  0.20196207075E+02  0.00000000000E+00 0.  1.
</event>
<event>
 7    1  0.4876728E-009  0.4778727E+02  0.7816164E-02  0.1312668E+00
        -11   -1    0    0    0    0  0.00000000000E+00  0.00000000000E+00  0.45593999997E+02  0.45594000000E+02  0.51100000000E-03 0.  1.
         11   -1    0    0    0    0 -0.00000000000E+00 -0.00000000000E+00 -0.45593999997E+02  0.45594000000E+02  0.51100000000E-03 0. -1.
    9900012    2    1    2    0    0  0.22049576392E+02  0.43569197055E+01  0.37127574024E+02  0.47787270498E+02  0.19999997509E+02 0.  0.
         12    1    1    2    0    0 -0.22049576392E+02 -0.43569197055E+01 -0.37127574024E+02  0.43400729502E+02  0.00000000000E+00 0. -1.
         11    1    3    3    0    0 -0.30830469308E+01  0.23605253720E+01  0.17805094836E+01  0.42717060634E+01  0.51100000000E-03 0. -1.
        -11    1    3    3    0    0  0.96865841691E+01 -0.59006242216E+00  0.14261396979E+02  0.17250087843E+02  0.51100000000E-03 0.  1.
         12    1    3    3    0    0  0.15446039154E+02  0.25864567556E+01  0.21085667561E+02  0.26265476592E+02  0.00000000000E+00 0. -1.
</event>
<event>
 7    1  0.4876728E-009  0.4778727E+02  0.7816164E-02  0.1312668E+00
        -11   -1    0    0    0    0  0.00000000000E+00  0.00000000000E+00  0.45593999997E+02  0.45594000000E+02  0.51100000000E-03 0.  1.
         11   -1    0    0    0    0 -0.00000000000E+00 -0.00000000000E+00 -0.45593999997E+02  0.45594000000E+02  0.51100000000E-03 0. -1.
    9900012    2    1    2    0    0  0.25214705172E+02  0.11727854435E+02  0.33321150541E+02  0.47787274200E+02  0.20000014389E+02 0.  0.
         12    1    1    2    0    0 -0.25214705172E+02 -0.11727854435E+02 -0.33321150541E+02  0.43400725800E+02  0.00000000000E+00 0. -1.
         11    1    3    3    0    0  0.30403225832E+01  0.65108790386E+00  0.17293334087E+02  0.17570625515E+02  0.51100000000E-03 0. -1.
        -11    1    3    3    0    0  0.13242683562E+02  0.37025601448E+01  0.64551983232E+01  0.15190365539E+02  0.51100000000E-03 0.  1.
        -12    1    3    3    0    0  0.89316990261E+01  0.73742063859E+01  0.95726181310E+01  0.15026283146E+02  0.00000000000E+00 0.  1.
</event>
<event>
 7    1  0.4876728E-009  0.4778727E+02  0.7816164E-02  0.1312668E+00
        -11   -1    0    0    0    0  0.00000000000E+00  0.00000000000E+00  0.45593999997E+02  0.45594000000E+02  0.51100000000E-03 0. -1.
         11   -1    0    0    0    0 -0.00000000000E+00 -0.00000000000E+00 -0.45593999997E+02  0.45594000000E+02  0.51100000000E-03 0.  1.
    9900012    2    1    2    0    0  0.17533650513E+02 -0.25439810530E+02 -0.30479670675E+02  0.47787272074E+02  0.20000004692E+02 0.  0.
         12    1    1    2    0    0 -0.17533650513E+02  0.25439810530E+02  0.30479670675E+02  0.43400727926E+02  0.00000000000E+00 0. -1.
         11    1    3    3    0    0 -0.24403303784E+01 -0.10945996017E+02 -0.98027656582E+01  0.14895108458E+02  0.51100000000E-03 0. -1.
        -11    1    3    3    0    0  0.13704218603E+02 -0.10779817259E+02 -0.10426965599E+02  0.20315798767E+02  0.51100000000E-03 0.  1.
         12    1    3    3    0    0  0.62697622884E+01 -0.37139972533E+01 -0.10249939417E+02  0.12576364849E+02  0.00000000000E+00 0. -1.
</event>
<event>
 7    1  0.4876728E-009  0.4778728E+02  0.7816164E-02  0.1312668E+00
        -11   -1    0    0    0    0  0.00000000000E+00  0.00000000000E+00  0.45593999997E+02  0.45594000000E+02  0.51100000000E-03 0.  1.
         11   -1    0    0    0    0 -0.00000000000E+00 -0.00000000000E+00 -0.45593999997E+02  0.45594000000E+02  0.51100000000E-03 0. -1.
    9900012    2    1    2    0    0 -0.41243090809E+02  0.38414259027E+01  0.12956604725E+02  0.47787277674E+02  0.20000030226E+02 0.  0.
         12    1    1    2    0    0  0.41243090809E+02 -0.38414259027E+01 -0.12956604725E+02  0.43400722326E+02  0.00000000000E+00 0. -1.
         11    1    3    3    0    0 -0.22675316846E+00 -0.14084476206E+01 -0.23016160963E+01  0.27078734489E+01  0.51100000000E-03 0. -1.
        -11    1    3    3    0    0 -0.15126149789E+02  0.52368691565E+01  0.24472728621E+01  0.16193034018E+02  0.51100000000E-03 0.  1.
         12    1    3    3    0    0 -0.25890187851E+02  0.13004366838E-01  0.12810947959E+02  0.28886370206E+02  0.00000000000E+00 0. -1.
</event>
<event>
 7    1  0.4876728E-009  0.4778727E+02  0.7816164E-02  0.1312668E+00
        -11   -1    0    0    0    0  0.00000000000E+00  0.00000000000E+00  0.45593999997E+02  0.45594000000E+02  0.51100000000E-03 0.  1.
         11   -1    0    0    0    0 -0.00000000000E+00 -0.00000000000E+00 -0.45593999997E+02  0.45594000000E+02  0.51100000000E-03 0. -1.
    9900012    2    1    2    0    0  0.19399633490E+02  0.45814608227E+01  0.38552401179E+02  0.47787271902E+02  0.20000003909E+02 0.  0.
         12    1    1    2    0    0 -0.19399633490E+02 -0.45814608227E+01 -0.38552401179E+02  0.43400728098E+02  0.00000000000E+00 0. -1.
         11    1    3    3    0    0 -0.27030399318E+01  0.23742179535E+01  0.49271189148E+00  0.36312671387E+01  0.51100000000E-03 0. -1.
        -11    1    3    3    0    0  0.17874864041E+02  0.17625872927E+01  0.32771340245E+02  0.37370820437E+02  0.51100000000E-03 0.  1.
         12    1    3    3    0    0  0.42278093807E+01  0.44465557658E+00  0.52883490425E+01  0.67851843259E+01  0.00000000000E+00 0. -1.
</event>
<event>
 7    1  0.4876728E-009  0.4778727E+02  0.7816164E-02  0.1312668E+00
        -11   -1    0    0    0    0  0.00000000000E+00  0.00000000000E+00  0.45593999997E+02  0.45594000000E+02  0.51100000000E-03 0.  1.
         11   -1    0    0    0    0 -0.00000000000E+00 -0.00000000000E+00 -0.45593999997E+02  0.45594000000E+02  0.51100000000E-03 0. -1.
    9900012    2    1    2    0    0 -0.12491713154E+01 -0.12806238338E+02  0.41449529301E+02  0.47787266727E+02  0.19999980317E+02 0.  0.
         12    1    1    2    0    0  0.12491713154E+01  0.12806238338E+02 -0.41449529301E+02  0.43400733273E+02  0.00000000000E+00 0. -1.
         11    1    3    3    0    0  0.43906461487E+01 -0.64972425895E+01  0.61682902921E+01  0.99769604720E+01  0.51100000000E-03 0. -1.
        -11    1    3    3    0    0 -0.59072332735E+01 -0.25292288248E+01  0.32450143120E+02  0.33080268925E+02  0.51100000000E-03 0.  1.
        -12    1    3    3    0    0  0.26741580942E+00 -0.37797669238E+01  0.28310958884E+01  0.47300373299E+01  0.00000000000E+00 0.  1.
</event>
<event>
 7    1  0.4876728E-009  0.4778727E+02  0.7816164E-02  0.1312668E+00
        -11   -1    0    0    0    0  0.00000000000E+00  0.00000000000E+00  0.45593999997E+02  0.45594000000E+02  0.51100000000E-03 0.  1.
         11   -1    0    0    0    0 -0.00000000000E+00 -0.00000000000E+00 -0.45593999997E+02  0.45594000000E+02  0.51100000000E-03 0. -1.
    9900012    2    1    2    0    0  0.59161140861E+01  0.24484312761E+02  0.35343191495E+02  0.47787272330E+02  0.20000005860E+02 0.  0.
         12    1    1    2    0    0 -0.59161140861E+01 -0.24484312761E+02 -0.35343191495E+02  0.43400727670E+02  0.00000000000E+00 0. -1.
         11    1    3    3    0    0  0.33542062587E+01  0.78555456944E+01  0.14970271657E+01  0.86718734065E+01  0.51100000000E-03 0. -1.
        -11    1    3    3    0    0  0.64433271296E+01  0.93295200646E+01  0.19291058237E+02  0.22376356659E+02  0.51100000000E-03 0.  1.
         12    1    3    3    0    0 -0.38814193022E+01  0.72992470024E+01  0.14555106092E+02  0.16739042265E+02  0.00000000000E+00 0. -1.
</event>
<event>
 7    1  0.4876728E-009  0.4778727E+02  0.7816164E-02  0.1312668E+00
        -11   -1    0    0    0    0  0.00000000000E+00  0.00000000000E+00  0.45593999997E+02  0.45594000000E+02  0.51100000000E-03 0.  1.
         11   -1    0    0    0    0 -0.00000000000E+00 -0.00000000000E+00 -0.45593999997E+02  0.45594000000E+02  0.51100000000E-03 0. -1.
    9900012    2    1    2    0    0 -0.33785993063E+02  0.42000242991E+01  0.26916345543E+02  0.47787272025E+02  0.20000004472E+02 0.  0.
         12    1    1    2    0    0  0.33785993063E+02 -0.42000242991E+01 -0.26916345543E+02  0.43400727975E+02  0.00000000000E+00 0. -1.
         11    1    3    3    0    0  0.13557136282E+01  0.17246299029E+01  0.26197420224E+00  0.22092846099E+01  0.51100000000E-03 0. -1.
        -11    1    3    3    0    0 -0.23890215055E+02 -0.13373428588E+01  0.12169605437E+02  0.26844555464E+02  0.51100000000E-03 0.  1.
        -12    1    3    3    0    0 -0.11251491636E+02  0.38127372549E+01  0.14484765903E+02  0.18733431951E+02  0.00000000000E+00 0.  1.
</event>
<event>
 7    1  0.4876728E-009  0.4778727E+02  0.7816164E-02  0.1312668E+00
        -11   -1    0    0    0    0  0.00000000000E+00  0.00000000000E+00  0.45593999997E+02  0.45594000000E+02  0.51100000000E-03 0. -1.
         11   -1    0    0    0    0 -0.00000000000E+00 -0.00000000000E+00 -0.45593999997E+02  0.45594000000E+02  0.51100000000E-03 0.  1.
    9900012    2    1    2    0    0  0.42844777652E+02  0.48323856797E+01 -0.49594487712E+01  0.47787273560E+02  0.20000011471E+02 0.  0.
         12    1    1    2    0    0 -0.42844777652E+02 -0.48323856797E+01  0.49594487712E+01  0.43400726440E+02  0.00000000000E+00 0. -1.
         11    1    3    3    0    0  0.64769743388E+01  0.13469865805E+01 -0.76823770174E+01  0.10138268409E+02  0.51100000000E-03 0.  1.
        -11    1    3    3    0    0  0.10745523952E+02  0.17432521277E+01  0.47718800648E+01  0.11885960314E+02  0.51100000000E-03 0. -1.
         12    1    3    3    0    0  0.25622279361E+02  0.17421469715E+01 -0.20489518186E+01  0.25763044837E+02  0.00000000000E+00 0. -1.
</event>
<event>
 7    1  0.4876728E-009  0.4778727E+02  0.7816164E-02  0.1312668E+00
        -11   -1    0    0    0    0  0.00000000000E+00  0.00000000000E+00  0.45593999997E+02  0.45594000000E+02  0.51100000000E-03 0. -1.
         11   -1    0    0    0    0 -0.00000000000E+00 -0.00000000000E+00 -0.45593999997E+02  0.45594000000E+02  0.51100000000E-03 0.  1.
    9900012    2    1    2    0    0  0.25308284839E+02  0.28532166095E+02  0.20713033190E+02  0.47787268123E+02  0.19999986678E+02 0.  0.
         12    1    1    2    0    0 -0.25308284839E+02 -0.28532166095E+02 -0.20713033190E+02  0.43400731877E+02  0.00000000000E+00 0. -1.
         11    1    3    3    0    0  0.67548817616E+01  0.14764205779E+02  0.50647088895E+00  0.16243974665E+02  0.51100000000E-03 0. -1.
        -11    1    3    3    0    0  0.90874285086E+01  0.10836384740E+02  0.10023257429E+02  0.17334193979E+02  0.51100000000E-03 0.  1.
         12    1    3    3    0    0  0.94659745686E+01  0.29315755761E+01  0.10183304872E+02  0.14209099479E+02  0.00000000000E+00 0. -1.
</event>
<event>
 7    1  0.4876728E-009  0.4778727E+02  0.7816164E-02  0.1312668E+00
        -11   -1    0    0    0    0  0.00000000000E+00  0.00000000000E+00  0.45593999997E+02  0.45594000000E+02  0.51100000000E-03 0.  1.
         11   -1    0    0    0    0 -0.00000000000E+00 -0.00000000000E+00 -0.45593999997E+02  0.45594000000E+02  0.51100000000E-03 0. -1.
    9900012    2    1    2    0    0  0.39861102310E+02  0.12158016240E+02  0.12120182906E+02  0.47787266481E+02  0.19999979193E+02 0.  0.
         12    1    1    2    0    0 -0.39861102310E+02 -0.12158016240E+02 -0.12120182906E+02  0.43400733519E+02  0.00000000000E+00 0. -1.
         11    1    3    3    0    0  0.17119085934E+02  0.42798674561E+00  0.11884151836E+02  0.20844168034E+02  0.51100000000E-03 0.  1.
        -11    1    3    3    0    0  0.16782084436E+02  0.70471287117E+01 -0.34323343850E+01  0.18522453960E+02  0.51100000000E-03 0. -1.
         12    1    3    3    0    0  0.59599319396E+01  0.46829007831E+01  0.36683654550E+01  0.84206444873E+01  0.00000000000E+00 0. -1.
</event>
<event>
 7    1  0.4876728E-009  0.4778727E+02  0.7816164E-02  0.1312668E+00
        -11   -1    0    0    0    0  0.00000000000E+00  0.00000000000E+00  0.45593999997E+02  0.45594000000E+02  0.51100000000E-03 0.  1.
         11   -1    0    0    0    0 -0.00000000000E+00 -0.00000000000E+00 -0.45593999997E+02  0.45594000000E+02  0.51100000000E-03 0. -1.
    9900012    2    1    2    0    0  0.19106710043E+02 -0.36424233772E+02  0.13850354846E+02  0.47787268394E+02  0.19999987917E+02 0.  0.
         12    1    1    2    0    0 -0.19106710043E+02  0.36424233772E+02 -0.13850354846E+02  0.43400731606E+02  0.00000000000E+00 0. -1.
         11    1    3    3    0    0 -0.54740821294E-01  0.14783578754E+01 -0.62104020542E+00  0.16044406387E+01  0.51100000000E-03 0. -1.
        -11    1    3    3    0    0  0.88838715621E+01 -0.28441011220E+02  0.11228939658E+02  0.31841849495E+02  0.51100000000E-03 0.  1.
        -12    1    3    3    0    0  0.10277579302E+02 -0.94615804275E+01  0.32424553943E+01  0.14340978261E+02  0.00000000000E+00 0.  1.
</event>
<event>
 7    1  0.4876728E-009  0.4778727E+02  0.7816164E-02  0.1312668E+00
        -11   -1    0    0    0    0  0.00000000000E+00  0.00000000000E+00  0.45593999997E+02  0.45594000000E+02  0.51100000000E-03 0.  1.
         11   -1    0    0    0    0 -0.00000000000E+00 -0.00000000000E+00 -0.45593999997E+02  0.45594000000E+02  0.51100000000E-03 0. -1.
    9900012    2    1    2    0    0  0.49619081298E+01 -0.39490408852E+02  0.17306364018E+02  0.47787272366E+02  0.20000006026E+02 0.  0.
         12    1    1    2    0    0 -0.49619081298E+01  0.39490408852E+02 -0.17306364018E+02  0.43400727634E+02  0.00000000000E+00 0. -1.
         11    1    3    3    0    0 -0.69834794580E+00 -0.87925132715E+00 -0.78505863093E+00  0.13700693650E+01  0.51100000000E-03 0. -1.
        -11    1    3    3    0    0 -0.44665545452E+00 -0.18215387321E+01 -0.30261468367E+01  0.35602063685E+01  0.51100000000E-03 0.  1.
        -12    1    3    3    0    0  0.61069115301E+01 -0.36789618793E+02  0.21117569486E+02  0.42856996633E+02  0.00000000000E+00 0.  1.
</event>
<event>
 7    1  0.4876728E-009  0.4778727E+02  0.7816164E-02  0.1312668E+00
        -11   -1    0    0    0    0  0.00000000000E+00  0.00000000000E+00  0.45593999997E+02  0.45594000000E+02  0.51100000000E-03 0.  1.
         11   -1    0    0    0    0 -0.00000000000E+00 -0.00000000000E+00 -0.45593999997E+02  0.45594000000E+02  0.51100000000E-03 0. -1.
    9900012    2    1    2    0    0 -0.37831396706E+02  0.10363262477E+00  0.21269653791E+02  0.47787268568E+02  0.19999988710E+02 0.  0.
         12    1    1    2    0    0  0.37831396706E+02 -0.10363262477E+00 -0.21269653791E+02  0.43400731432E+02  0.00000000000E+00 0. -1.
         11    1    3    3    0    0 -0.38134623713E+01  0.44297321246E+01  0.78826371186E+01  0.98133067901E+01  0.51100000000E-03 0. -1.
        -11    1    3    3    0    0 -0.14995780439E+02 -0.65260613208E+01  0.53546356311E+01  0.17208574326E+02  0.51100000000E-03 0.  1.
        -12    1    3    3    0    0 -0.19022153895E+02  0.21999618210E+01  0.80323810410E+01  0.20765387452E+02  0.00000000000E+00 0.  1.
</event>
<event>
 7    1  0.4876728E-009  0.4778727E+02  0.7816164E-02  0.1312668E+00
        -11   -1    0    0    0    0  0.00000000000E+00  0.00000000000E+00  0.45593999997E+02  0.45594000000E+02  0.51100000000E-03 0. -1.
         11   -1    0    0    0    0 -0.00000000000E+00 -0.00000000000E+00 -0.45593999997E+02  0.45594000000E+02  0.51100000000E-03 0.  1.
    9900012    2    1    2    0    0  0.14315670841E+02  0.29522710697E+02 -0.28409406120E+02  0.47787271497E+02  0.20000002062E+02 0.  0.
         12    1    1    2    0    0 -0.14315670841E+02 -0.29522710697E+02  0.28409406120E+02  0.43400728503E+02  0.00000000000E+00 0. -1.
         11    1    3    3    0    0 -0.21414462166E+01  0.61859255357E+01  0.89615725893E-01  0.65467165718E+01  0.51100000000E-03 0. -1.
        -11    1    3    3    0    0  0.17322925443E+02  0.21528663162E+02 -0.27558671220E+02  0.39026240443E+02  0.51100000000E-03 0.  1.
        -12    1    3    3    0    0 -0.86580838538E+00  0.18081219995E+01 -0.94035062530E+00  0.22143144817E+01  0.00000000000E+00 0.  1.
</event>
<event>
 7    1  0.4876728E-009  0.4778727E+02  0.7816164E-02  0.1312668E+00
        -11   -1    0    0    0    0  0.00000000000E+00  0.00000000000E+00  0.45593999997E+02  0.45594000000E+02  0.51100000000E-03 0.  1.
         11   -1    0    0    0    0 -0.00000000000E+00 -0.00000000000E+00 -0.45593999997E+02  0.45594000000E+02  0.51100000000E-03 0. -1.
    9900012    2    1    2    0    0  0.42968771153E+02  0.37692902568E+00  0.60964110262E+01  0.47787267319E+02  0.19999983014E+02 0.  0.
         12    1    1    2    0    0 -0.42968771153E+02 -0.37692902568E+00 -0.60964110262E+01  0.43400732681E+02  0.00000000000E+00 0. -1.
         11    1    3    3    0    0 -0.10527261460E+01 -0.14102645426E+01  0.92730973378E+00  0.19892164342E+01  0.51100000000E-03 0. -1.
        -11    1    3    3    0    0  0.32574848800E+02 -0.19241279339E+01  0.76391715121E+01  0.33513877488E+02  0.51100000000E-03 0.  1.
        -12    1    3    3    0    0  0.11446648499E+02  0.37113215022E+01 -0.24700702197E+01  0.12284173397E+02  0.00000000000E+00 0.  1.
</event>
<event>
 7    1  0.4876728E-009  0.4778727E+02  0.7816164E-02  0.1312668E+00
        -11   -1    0    0    0    0  0.00000000000E+00  0.00000000000E+00  0.45593999997E+02  0.45594000000E+02  0.51100000000E-03 0.  1.
         11   -1    0    0    0    0 -0.00000000000E+00 -0.00000000000E+00 -0.45593999997E+02  0.45594000000E+02  0.51100000000E-03 0. -1.
    9900012    2    1    2    0    0 -0.12102024346E+02  0.67553158583E+01  0.41128215723E+02  0.47787269428E+02  0.19999992630E+02 0.  0.
         12    1    1    2    0    0  0.12102024346E+02 -0.67553158583E+01 -0.41128215723E+02  0.43400730572E+02  0.00000000000E+00 0. -1.
         11    1    3    3    0    0 -0.80287754248E+01  0.75653817436E+01  0.95457303442E+01  0.14588255681E+02  0.51100000000E-03 0. -1.
        -11    1    3    3    0    0 -0.61875577167E+01  0.15615046454E+01  0.14780967471E+02  0.16099725678E+02  0.51100000000E-03 0.  1.
         12    1    3    3    0    0  0.21143087953E+01 -0.23715705308E+01  0.16801517908E+02  0.17099288069E+02  0.00000000000E+00 0. -1.
</event>
<event>
 7    1  0.4876728E-009  0.4778727E+02  0.7816164E-02  0.1312668E+00
        -11   -1    0    0    0    0  0.00000000000E+00  0.00000000000E+00  0.45593999997E+02  0.45594000000E+02  0.51100000000E-03 0. -1.
         11   -1    0    0    0    0 -0.00000000000E+00 -0.00000000000E+00 -0.45593999997E+02  0.45594000000E+02  0.51100000000E-03 0.  1.
    9900012    2    1    2    0    0  0.39051750570E+02 -0.16708947027E+02  0.89103766841E+01  0.47787274822E+02  0.20000017223E+02 0.  0.
         12    1    1    2    0    0 -0.39051750570E+02  0.16708947027E+02 -0.89103766841E+01  0.43400725178E+02  0.00000000000E+00 0. -1.
         11    1    3    3    0    0  0.25482354911E+02 -0.50039363244E+01  0.67030604959E+01  0.26820156801E+02  0.51100000000E-03 0. -1.
        -11    1    3    3    0    0  0.50221756613E+01  0.72550313798E+00  0.29387958448E+01  0.58638830526E+01  0.51100000000E-03 0.  1.
         12    1    3    3    0    0  0.85472199978E+01 -0.12430513840E+02 -0.73147965663E+00  0.15103234968E+02  0.00000000000E+00 0. -1.
</event>
<event>
 7    1  0.4876728E-009  0.4778727E+02  0.7816164E-02  0.1312668E+00
        -11   -1    0    0    0    0  0.00000000000E+00  0.00000000000E+00  0.45593999997E+02  0.45594000000E+02  0.51100000000E-03 0.  1.
         11   -1    0    0    0    0 -0.00000000000E+00 -0.00000000000E+00 -0.45593999997E+02  0.45594000000E+02  0.51100000000E-03 0. -1.
    9900012    2    1    2    0    0  0.22544726358E+02 -0.19720801590E+01  0.37033352913E+02  0.47787274030E+02  0.20000013613E+02 0.  0.
         12    1    1    2    0    0 -0.22544726358E+02  0.19720801590E+01 -0.37033352913E+02  0.43400725970E+02  0.00000000000E+00 0. -1.
         11    1    3    3    0    0 -0.16459058960E+01 -0.15302702920E+01  0.81932891924E+01  0.84959238130E+01  0.51100000000E-03 0. -1.
        -11    1    3    3    0    0  0.12080347922E+02  0.39748613688E+01  0.88067661631E+01  0.15469113075E+02  0.51100000000E-03 0.  1.
        -12    1    3    3    0    0  0.12110284332E+02 -0.44166712358E+01  0.20033297558E+02  0.23822237142E+02  0.00000000000E+00 0.  1.
</event>
<event>
 7    1  0.4876728E-009  0.4778727E+02  0.7816164E-02  0.1312668E+00
        -11   -1    0    0    0    0  0.00000000000E+00  0.00000000000E+00  0.45593999997E+02  0.45594000000E+02  0.51100000000E-03 0. -1.
         11   -1    0    0    0    0 -0.00000000000E+00 -0.00000000000E+00 -0.45593999997E+02  0.45594000000E+02  0.51100000000E-03 0.  1.
    9900012    2    1    2    0    0 -0.33484411854E+02 -0.26815010201E+02  0.65857843970E+01  0.47787272294E+02  0.20000005697E+02 0.  0.
         12    1    1    2    0    0  0.33484411854E+02  0.26815010201E+02 -0.65857843970E+01  0.43400727706E+02  0.00000000000E+00 0. -1.
         11    1    3    3    0    0 -0.55213438094E+00 -0.33331157108E+00  0.15533045465E+01  0.16818752194E+01  0.51100000000E-03 0. -1.
        -11    1    3    3    0    0 -0.58828945412E+00 -0.68213191339E+01 -0.28950777510E+01  0.74335694423E+01  0.51100000000E-03 0.  1.
        -12    1    3    3    0    0 -0.32343988019E+02 -0.19660379496E+02  0.79275576015E+01  0.38671827632E+02  0.00000000000E+00 0.  1.
</event>
<event>
 7    1  0.4876728E-009  0.4778727E+02  0.7816164E-02  0.1312668E+00
        -11   -1    0    0    0    0  0.00000000000E+00  0.00000000000E+00  0.45593999997E+02  0.45594000000E+02  0.51100000000E-03 0.  1.
         11   -1    0    0    0    0 -0.00000000000E+00 -0.00000000000E+00 -0.45593999997E+02  0.45594000000E+02  0.51100000000E-03 0. -1.
    9900012    2    1    2    0    0  0.26142082265E+02 -0.54896469999E+01  0.34206408797E+02  0.47787273138E+02  0.20000009547E+02 0.  0.
         12    1    1    2    0    0 -0.26142082265E+02  0.54896469999E+01 -0.34206408797E+02  0.43400726862E+02  0.00000000000E+00 0. -1.
         11    1    3    3    0    0  0.21774190929E+01 -0.47657998748E+01  0.12778747231E+01  0.53932333921E+01  0.51100000000E-03 0. -1.
        -11    1    3    3    0    0  0.18819743299E+02  0.11042053240E+01  0.16400747461E+02  0.24987727484E+02  0.51100000000E-03 0.  1.
        -12    1    3    3    0    0  0.51449198722E+01 -0.18280524491E+01  0.16527786613E+02  0.17406312262E+02  0.00000000000E+00 0.  1.
</event>
<event>
 7    1  0.4876728E-009  0.4778725E+02  0.7816164E-02  0.1312668E+00
        -11   -1    0    0    0    0  0.00000000000E+00  0.00000000000E+00  0.45593999997E+02  0.45594000000E+02  0.51100000000E-03 0.  1.
         11   -1    0    0    0    0 -0.00000000000E+00 -0.00000000000E+00 -0.45593999997E+02  0.45594000000E+02  0.51100000000E-03 0. -1.
    9900012    2    1    2    0    0  0.10615116272E+02  0.38187214962E+02  0.17682789509E+02  0.47787249720E+02  0.19999902775E+02 0.  0.
         12    1    1    2    0    0 -0.10615116272E+02 -0.38187214962E+02 -0.17682789509E+02  0.43400750280E+02  0.00000000000E+00 0. -1.
         11    1    3    3    0    0 -0.10173910662E+01  0.75213612316E+01  0.11404620398E+02  0.13699318452E+02  0.51100000000E-03 0. -1.
        -11    1    3    3    0    0  0.75642332465E+01  0.25865286472E+02  0.67390802251E+01  0.27778514564E+02  0.51100000000E-03 0.  1.
         12    1    3    3    0    0  0.40682740915E+01  0.48005672589E+01 -0.46091111478E+00  0.63094167041E+01  0.00000000000E+00 0. -1.
</event>
<event>
 7    1  0.4876728E-009  0.4778727E+02  0.7816164E-02  0.1312668E+00
        -11   -1    0    0    0    0  0.00000000000E+00  0.00000000000E+00  0.45593999997E+02  0.45594000000E+02  0.51100000000E-03 0. -1.
         11   -1    0    0    0    0 -0.00000000000E+00 -0.00000000000E+00 -0.45593999997E+02  0.45594000000E+02  0.51100000000E-03 0.  1.
    9900012    2    1    2    0    0 -0.16705000701E+02 -0.39695951319E+02  0.53663584942E+01  0.47787269556E+02  0.19999993215E+02 0.  0.
         12    1    1    2    0    0  0.16705000701E+02  0.39695951319E+02 -0.53663584942E+01  0.43400730444E+02  0.00000000000E+00 0. -1.
         11    1    3    3    0    0 -0.50382846639E+01 -0.78609696287E+01  0.95148698586E+01  0.13330862858E+02  0.51100000000E-03 0. -1.
        -11    1    3    3    0    0 -0.87097011472E+00 -0.34312107911E+01  0.90245447530E+00  0.36532479760E+01  0.51100000000E-03 0.  1.
         12    1    3    3    0    0 -0.10795745923E+02 -0.28403770899E+02 -0.50509658398E+01  0.30803158722E+02  0.00000000000E+00 0. -1.
</event>
<event>
 7    1  0.4876728E-009  0.4778727E+02  0.7816164E-02  0.1312668E+00
        -11   -1    0    0    0    0  0.00000000000E+00  0.00000000000E+00  0.45593999997E+02  0.45594000000E+02  0.51100000000E-03 0.  1.
         11   -1    0    0    0    0 -0.00000000000E+00 -0.00000000000E+00 -0.45593999997E+02  0.45594000000E+02  0.51100000000E-03 0. -1.
    9900012    2    1    2    0    0 -0.12345510644E+02  0.40349879443E+02 -0.10153767270E+02  0.47787269662E+02  0.19999993696E+02 0.  0.
         12    1    1    2    0    0  0.12345510644E+02 -0.40349879443E+02  0.10153767270E+02  0.43400730338E+02  0.00000000000E+00 0. -1.
         11    1    3    3    0    0 -0.94166814855E+00  0.10216296600E+00  0.53265984832E+00  0.10866935855E+01  0.51100000000E-03 0. -1.
        -11    1    3    3    0    0  0.14529673371E-01  0.23878493058E+02  0.37618276384E+00  0.23881460499E+02  0.51100000000E-03 0.  1.
        -12    1    3    3    0    0 -0.11418372169E+02  0.16369223418E+02 -0.11062609882E+02  0.22819115577E+02  0.00000000000E+00 0.  1.
</event>
<event>
 7    1  0.4876728E-009  0.4778727E+02  0.7816164E-02  0.1312668E+00
        -11   -1    0    0    0    0  0.00000000000E+00  0.00000000000E+00  0.45593999997E+02  0.45594000000E+02  0.51100000000E-03 0.  1.
         11   -1    0    0    0    0 -0.00000000000E+00 -0.00000000000E+00 -0.45593999997E+02  0.45594000000E+02  0.51100000000E-03 0. -1.
    9900012    2    1    2    0    0  0.30474920262E+02 -0.30570087138E+02  0.45135568308E+01  0.47787272035E+02  0.20000004518E+02 0.  0.
         12    1    1    2    0    0 -0.30474920262E+02  0.30570087138E+02 -0.45135568308E+01  0.43400727965E+02  0.00000000000E+00 0. -1.
         11    1    3    3    0    0  0.12975556361E+02 -0.19926668466E+01 -0.18134535742E+01  0.13252335574E+02  0.51100000000E-03 0. -1.
        -11    1    3    3    0    0  0.13095724196E+02 -0.19369002129E+02  0.66974235577E+01  0.24321013923E+02  0.51100000000E-03 0.  1.
         12    1    3    3    0    0  0.44036397048E+01 -0.92084181626E+01 -0.37041315273E+00  0.10213922538E+02  0.00000000000E+00 0. -1.
</event>
<event>
 7    1  0.4876728E-009  0.4778727E+02  0.7816164E-02  0.1312668E+00
        -11   -1    0    0    0    0  0.00000000000E+00  0.00000000000E+00  0.45593999997E+02  0.45594000000E+02  0.51100000000E-03 0.  1.
         11   -1    0    0    0    0 -0.00000000000E+00 -0.00000000000E+00 -0.45593999997E+02  0.45594000000E+02  0.51100000000E-03 0. -1.
    9900012    2    1    2    0    0 -0.18536720700E+02 -0.17432137287E+02  0.35158695087E+02  0.47787271147E+02  0.20000000469E+02 0.  0.
         12    1    1    2    0    0  0.18536720700E+02  0.17432137287E+02 -0.35158695087E+02  0.43400728853E+02  0.00000000000E+00 0. -1.
         11    1    3    3    0    0 -0.86081824300E+01  0.57067994346E+00  0.11849077054E+02  0.14656981532E+02  0.51100000000E-03 0. -1.
        -11    1    3    3    0    0 -0.12272772296E+02 -0.17010880489E+02  0.21212519041E+02  0.29832230208E+02  0.51100000000E-03 0.  1.
        -12    1    3    3    0    0  0.23442340262E+01 -0.99193674107E+00  0.20970989930E+01  0.32980594073E+01  0.00000000000E+00 0.  1.
</event>
<event>
 7    1  0.4876728E-009  0.4778727E+02  0.7816164E-02  0.1312668E+00
        -11   -1    0    0    0    0  0.00000000000E+00  0.00000000000E+00  0.45593999997E+02  0.45594000000E+02  0.51100000000E-03 0. -1.
         11   -1    0    0    0    0 -0.00000000000E+00 -0.00000000000E+00 -0.45593999997E+02  0.45594000000E+02  0.51100000000E-03 0.  1.
    9900012    2    1    2    0    0  0.46671319748E+01  0.30477350077E+02 -0.30544594774E+02  0.47787271221E+02  0.20000000806E+02 0.  0.
         12    1    1    2    0    0 -0.46671319748E+01 -0.30477350077E+02  0.30544594774E+02  0.43400728779E+02  0.00000000000E+00 0. -1.
         11    1    3    3    0    0  0.20693812268E+01 -0.22124289202E+01 -0.11360504941E+01  0.32353966333E+01  0.51100000000E-03 0. -1.
        -11    1    3    3    0    0  0.10355099255E+01  0.16933808047E+02 -0.10766387665E+02  0.20093313300E+02  0.51100000000E-03 0.  1.
         12    1    3    3    0    0  0.15622408226E+01  0.15755970951E+02 -0.18642156615E+02  0.24458561288E+02  0.00000000000E+00 0. -1.
</event>
<event>
 7    1  0.4876728E-009  0.4778727E+02  0.7816164E-02  0.1312668E+00
        -11   -1    0    0    0    0  0.00000000000E+00  0.00000000000E+00  0.45593999997E+02  0.45594000000E+02  0.51100000000E-03 0. -1.
         11   -1    0    0    0    0 -0.00000000000E+00 -0.00000000000E+00 -0.45593999997E+02  0.45594000000E+02  0.51100000000E-03 0.  1.
    9900012    2    1    2    0    0 -0.41154502985E+02 -0.13742772722E+02  0.10326394558E+01  0.47787271178E+02  0.20000000609E+02 0.  0.
         12    1    1    2    0    0  0.41154502985E+02  0.13742772722E+02 -0.10326394558E+01  0.43400728822E+02  0.00000000000E+00 0. -1.
         11    1    3    3    0    0 -0.21655025909E+00 -0.42668800214E+01 -0.30439934649E+01  0.52458608071E+01  0.51100000000E-03 0. -1.
        -11    1    3    3    0    0 -0.28908563600E+02 -0.87382450368E+01  0.16350274215E+01  0.30244591098E+02  0.51100000000E-03 0.  1.
         12    1    3    3    0    0 -0.12029389126E+02 -0.73764766339E+00  0.24416054992E+01  0.12296819273E+02  0.00000000000E+00 0. -1.
</event>
<event>
 7    1  0.4876728E-009  0.4778727E+02  0.7816164E-02  0.1312668E+00
        -11   -1    0    0    0    0  0.00000000000E+00  0.00000000000E+00  0.45593999997E+02  0.45594000000E+02  0.51100000000E-03 0. -1.
         11   -1    0    0    0    0 -0.00000000000E+00 -0.00000000000E+00 -0.45593999997E+02  0.45594000000E+02  0.51100000000E-03 0.  1.
    9900012    2    1    2    0    0  0.41625734164E+02 -0.73139415317E+01  0.98705527081E+01  0.47787270787E+02  0.19999998829E+02 0.  0.
         12    1    1    2    0    0 -0.41625734164E+02  0.73139415317E+01 -0.98705527081E+01  0.43400729213E+02  0.00000000000E+00 0. -1.
         11    1    3    3    0    0  0.92520026009E+01  0.46777527580E+00  0.36183940576E+01  0.99454080687E+01  0.51100000000E-03 0. -1.
        -11    1    3    3    0    0  0.24727047890E+02 -0.53389855424E+01 -0.31350673319E+01  0.25490396455E+02  0.51100000000E-03 0.  1.
        -12    1    3    3    0    0  0.76466836727E+01 -0.24427312651E+01  0.93872259824E+01  0.12351466264E+02  0.00000000000E+00 0.  1.
</event>
<event>
 7    1  0.4876728E-009  0.4778727E+02  0.7816164E-02  0.1312668E+00
        -11   -1    0    0    0    0  0.00000000000E+00  0.00000000000E+00  0.45593999997E+02  0.45594000000E+02  0.51100000000E-03 0.  1.
         11   -1    0    0    0    0 -0.00000000000E+00 -0.00000000000E+00 -0.45593999997E+02  0.45594000000E+02  0.51100000000E-03 0. -1.
    9900012    2    1    2    0    0  0.24788865573E+02 -0.70864150492E+01  0.34913009883E+02  0.47787269664E+02  0.19999993705E+02 0.  0.
         12    1    1    2    0    0 -0.24788865573E+02  0.70864150492E+01 -0.34913009883E+02  0.43400730336E+02  0.00000000000E+00 0. -1.
         11    1    3    3    0    0  0.39689354217E+01  0.42166453328E+01  0.84298546191E+00  0.58517664849E+01  0.51100000000E-03 0. -1.
        -11    1    3    3    0    0  0.16843472920E+02 -0.62436455791E+01  0.23846473487E+02  0.29855317586E+02  0.51100000000E-03 0.  1.
         12    1    3    3    0    0  0.39764572312E+01 -0.50594148029E+01  0.10223550933E+02  0.12080185592E+02  0.00000000000E+00 0. -1.
</event>
<event>
 7    1  0.4876728E-009  0.4778725E+02  0.7816164E-02  0.1312668E+00
        -11   -1    0    0    0    0  0.00000000000E+00  0.00000000000E+00  0.45593999997E+02  0.45594000000E+02  0.51100000000E-03 0.  1.
         11   -1    0    0    0    0 -0.00000000000E+00 -0.00000000000E+00 -0.45593999997E+02  0.45594000000E+02  0.51100000000E-03 0. -1.
    9900012    2    1    2    0    0 -0.14582122569E+02  0.25867243159E+02  0.31652372708E+02  0.47787248102E+02  0.19999895395E+02 0.  0.
         12    1    1    2    0    0  0.14582122569E+02 -0.25867243159E+02 -0.31652372708E+02  0.43400751898E+02  0.00000000000E+00 0. -1.
         11    1    3    3    0    0  0.16288324029E+01  0.69402269596E+01  0.10368992877E+02  0.12583157743E+02  0.51100000000E-03 0. -1.
        -11    1    3    3    0    0 -0.16936876379E+02  0.12193232581E+02  0.18474788520E+02  0.27872038199E+02  0.51100000000E-03 0.  1.
        -12    1    3    3    0    0  0.72592140738E+00  0.67337836188E+01  0.28085913109E+01  0.73320521592E+01  0.00000000000E+00 0.  1.
</event>
<event>
 7    1  0.4876728E-009  0.4778727E+02  0.7816164E-02  0.1312668E+00
        -11   -1    0    0    0    0  0.00000000000E+00  0.00000000000E+00  0.45593999997E+02  0.45594000000E+02  0.51100000000E-03 0.  1.
         11   -1    0    0    0    0 -0.00000000000E+00 -0.00000000000E+00 -0.45593999997E+02  0.45594000000E+02  0.51100000000E-03 0. -1.
    9900012    2    1    2    0    0 -0.32259448503E+02  0.28298310958E+02 -0.64928636153E+01  0.47787266150E+02  0.19999977684E+02 0.  0.
         12    1    1    2    0    0  0.32259448503E+02 -0.28298310958E+02  0.64928636153E+01  0.43400733850E+02  0.00000000000E+00 0. -1.
         11    1    3    3    0    0 -0.11316849716E+01 -0.12124849547E+01 -0.25755655834E+01  0.30633917438E+01  0.51100000000E-03 0. -1.
        -11    1    3    3    0    0 -0.30262174871E+02  0.23695056857E+02 -0.49551687832E+01  0.38753175938E+02  0.51100000000E-03 0.  1.
        -12    1    3    3    0    0 -0.86558866038E+00  0.58157390562E+01  0.10378707514E+01  0.59706984679E+01  0.00000000000E+00 0.  1.
</event>
<event>
 7    1  0.4876728E-009  0.4778727E+02  0.7816164E-02  0.1312668E+00
        -11   -1    0    0    0    0  0.00000000000E+00  0.00000000000E+00  0.45593999997E+02  0.45594000000E+02  0.51100000000E-03 0.  1.
         11   -1    0    0    0    0 -0.00000000000E+00 -0.00000000000E+00 -0.45593999997E+02  0.45594000000E+02  0.51100000000E-03 0. -1.
    9900012    2    1    2    0    0  0.26093933370E+02 -0.28721669421E+02  0.19436960490E+02  0.47787273207E+02  0.20000009861E+02 0.  0.
         12    1    1    2    0    0 -0.26093933370E+02  0.28721669421E+02 -0.19436960490E+02  0.43400726793E+02  0.00000000000E+00 0. -1.
         11    1    3    3    0    0  0.16426395064E+02 -0.83132873875E+01  0.88672140173E+00  0.18431589109E+02  0.51100000000E-03 0. -1.
        -11    1    3    3    0    0  0.79943940758E+01 -0.14996074103E+02  0.15023682327E+02  0.22682671934E+02  0.51100000000E-03 0.  1.
         12    1    3    3    0    0  0.16731442305E+01 -0.54123079307E+01  0.35265567611E+01  0.66730121640E+01  0.00000000000E+00 0. -1.
</event>
<event>
 7    1  0.4876728E-009  0.4778727E+02  0.7816164E-02  0.1312668E+00
        -11   -1    0    0    0    0  0.00000000000E+00  0.00000000000E+00  0.45593999997E+02  0.45594000000E+02  0.51100000000E-03 0. -1.
         11   -1    0    0    0    0 -0.00000000000E+00 -0.00000000000E+00 -0.45593999997E+02  0.45594000000E+02  0.51100000000E-03 0.  1.
    9900012    2    1    2    0    0  0.39448646181E+02 -0.76021642344E+01 -0.16420563765E+02  0.47787268429E+02  0.19999988075E+02 0.  0.
         12    1    1    2    0    0 -0.39448646181E+02  0.76021642344E+01  0.16420563765E+02  0.43400731571E+02  0.00000000000E+00 0. -1.
         11    1    3    3    0    0  0.13354174328E+02  0.14409705632E+01 -0.93306214513E-01  0.13432016768E+02  0.51100000000E-03 0. -1.
        -11    1    3    3    0    0  0.18061276458E+02 -0.11594890013E+02 -0.93401586836E+01  0.23407044798E+02  0.51100000000E-03 0.  1.
         12    1    3    3    0    0  0.80331953954E+01  0.25517552151E+01 -0.69870988668E+01  0.10948206863E+02  0.00000000000E+00 0. -1.
</event>
<event>
 7    1  0.4876728E-009  0.4778727E+02  0.7816164E-02  0.1312668E+00
        -11   -1    0    0    0    0  0.00000000000E+00  0.00000000000E+00  0.45593999997E+02  0.45594000000E+02  0.51100000000E-03 0.  1.
         11   -1    0    0    0    0 -0.00000000000E+00 -0.00000000000E+00 -0.45593999997E+02  0.45594000000E+02  0.51100000000E-03 0. -1.
    9900012    2    1    2    0    0 -0.28374235784E+02 -0.16854046420E+02  0.28186295879E+02  0.47787269448E+02  0.19999992722E+02 0.  0.
         12    1    1    2    0    0  0.28374235784E+02  0.16854046420E+02 -0.28186295879E+02  0.43400730552E+02  0.00000000000E+00 0. -1.
         11    1    3    3    0    0 -0.12316258071E+02 -0.89106462502E+01  0.27337111030E+01  0.15445484975E+02  0.51100000000E-03 0. -1.
        -11    1    3    3    0    0 -0.82096956511E+01 -0.51155106910E+01  0.65551373482E+01  0.11684920977E+02  0.51100000000E-03 0.  1.
         12    1    3    3    0    0 -0.78482820618E+01 -0.28278894792E+01  0.18897447428E+02  0.20656863496E+02  0.00000000000E+00 0. -1.
</event>
<event>
 7    1  0.4876728E-009  0.4778727E+02  0.7816164E-02  0.1312668E+00
        -11   -1    0    0    0    0  0.00000000000E+00  0.00000000000E+00  0.45593999997E+02  0.45594000000E+02  0.51100000000E-03 0.  1.
         11   -1    0    0    0    0 -0.00000000000E+00 -0.00000000000E+00 -0.45593999997E+02  0.45594000000E+02  0.51100000000E-03 0. -1.
    9900012    2    1    2    0    0 -0.41584847326E+02 -0.43998608255E+01  0.11617453021E+02  0.47787268242E+02  0.19999987224E+02 0.  0.
         12    1    1    2    0    0  0.41584847326E+02  0.43998608255E+01 -0.11617453021E+02  0.43400731758E+02  0.00000000000E+00 0. -1.
         11    1    3    3    0    0 -0.10445668929E+02 -0.47822997053E+01  0.31725871573E+01  0.11918376541E+02  0.51100000000E-03 0. -1.
        -11    1    3    3    0    0 -0.15171742048E+02 -0.45018273110E+01  0.10578208191E+02  0.19035406344E+02  0.51100000000E-03 0.  1.
         12    1    3    3    0    0 -0.15967436349E+02  0.48842661909E+01 -0.21333423264E+01  0.16833485357E+02  0.00000000000E+00 0. -1.
</event>
<event>
 7    1  0.4876728E-009  0.4778727E+02  0.7816164E-02  0.1312668E+00
        -11   -1    0    0    0    0  0.00000000000E+00  0.00000000000E+00  0.45593999997E+02  0.45594000000E+02  0.51100000000E-03 0.  1.
         11   -1    0    0    0    0 -0.00000000000E+00 -0.00000000000E+00 -0.45593999997E+02  0.45594000000E+02  0.51100000000E-03 0. -1.
    9900012    2    1    2    0    0 -0.17977074396E+02 -0.98190371189E+01  0.38262701741E+02  0.47787273758E+02  0.20000012374E+02 0.  0.
         12    1    1    2    0    0  0.17977074396E+02  0.98190371189E+01 -0.38262701741E+02  0.43400726242E+02  0.00000000000E+00 0. -1.
         11    1    3    3    0    0  0.56621354319E-01 -0.33843356309E+01  0.10791446305E+02  0.11309829674E+02  0.51100000000E-03 0. -1.
        -11    1    3    3    0    0 -0.12203727183E+02  0.87284253155E+00  0.73048248268E+01  0.14249676391E+02  0.51100000000E-03 0.  1.
        -12    1    3    3    0    0 -0.58299685673E+01 -0.73075440195E+01  0.20166430609E+02  0.22227767693E+02  0.00000000000E+00 0.  1.
</event>
<event>
 7    1  0.4876728E-009  0.4778728E+02  0.7816164E-02  0.1312668E+00
        -11   -1    0    0    0    0  0.00000000000E+00  0.00000000000E+00  0.45593999997E+02  0.45594000000E+02  0.51100000000E-03 0.  1.
         11   -1    0    0    0    0 -0.00000000000E+00 -0.00000000000E+00 -0.45593999997E+02  0.45594000000E+02  0.51100000000E-03 0. -1.
    9900012    2    1    2    0    0  0.53207915229E+01  0.86189161481E+01  0.42202207796E+02  0.47787275572E+02  0.20000020643E+02 0.  0.
         12    1    1    2    0    0 -0.53207915229E+01 -0.86189161481E+01 -0.42202207796E+02  0.43400724428E+02  0.00000000000E+00 0. -1.
         11    1    3    3    0    0 -0.18808803870E+01 -0.32140373051E+01  0.32687723688E+01  0.49550600288E+01  0.51100000000E-03 0. -1.
        -11    1    3    3    0    0  0.82811707959E+01  0.57813892219E+01  0.32049515243E+02  0.33603179592E+02  0.51100000000E-03 0.  1.
        -12    1    3    3    0    0 -0.10794988860E+01  0.60515642313E+01  0.68839201844E+01  0.92290359516E+01  0.00000000000E+00 0.  1.
</event>
<event>
 7    1  0.4876728E-009  0.4778727E+02  0.7816164E-02  0.1312668E+00
        -11   -1    0    0    0    0  0.00000000000E+00  0.00000000000E+00  0.45593999997E+02  0.45594000000E+02  0.51100000000E-03 0.  1.
         11   -1    0    0    0    0 -0.00000000000E+00 -0.00000000000E+00 -0.45593999997E+02  0.45594000000E+02  0.51100000000E-03 0. -1.
    9900012    2    1    2    0    0  0.24174350291E+02  0.12495257786E+02  0.33809652459E+02  0.47787270991E+02  0.19999999756E+02 0.  0.
         12    1    1    2    0    0 -0.24174350291E+02 -0.12495257786E+02 -0.33809652459E+02  0.43400729009E+02  0.00000000000E+00 0. -1.
         11    1    3    3    0    0 -0.22756919850E+01 -0.26284321040E+00  0.42326671379E+01  0.48128299289E+01  0.51100000000E-03 0. -1.
        -11    1    3    3    0    0  0.19994918145E+02  0.41720185320E+01  0.18876124368E+02  0.27812057847E+02  0.51100000000E-03 0.  1.
         12    1    3    3    0    0  0.64551241311E+01  0.85860824645E+01  0.10700860952E+02  0.15162383215E+02  0.00000000000E+00 0. -1.
</event>
<event>
 7    1  0.4876728E-009  0.4778728E+02  0.7816164E-02  0.1312668E+00
        -11   -1    0    0    0    0  0.00000000000E+00  0.00000000000E+00  0.45593999997E+02  0.45594000000E+02  0.51100000000E-03 0. -1.
         11   -1    0    0    0    0 -0.00000000000E+00 -0.00000000000E+00 -0.45593999997E+02  0.45594000000E+02  0.51100000000E-03 0.  1.
    9900012    2    1    2    0    0  0.26441407072E+02  0.14034113957E+02 -0.31424807398E+02  0.47787275553E+02  0.20000020558E+02 0.  0.
         12    1    1    2    0    0 -0.26441407072E+02 -0.14034113957E+02  0.31424807398E+02  0.43400724447E+02  0.00000000000E+00 0. -1.
         11    1    3    3    0    0  0.36607378213E+01 -0.47391573567E+01 -0.71579147494E+01  0.93325429369E+01  0.51100000000E-03 0. -1.
        -11    1    3    3    0    0  0.18944851714E+02  0.13301509643E+02 -0.18745170066E+02  0.29786221081E+02  0.51100000000E-03 0.  1.
        -12    1    3    3    0    0  0.38358175370E+01  0.54717616707E+01 -0.55217225826E+01  0.86685115353E+01  0.00000000000E+00 0.  1.
</event>
<event>
 7    1  0.4876728E-009  0.4778727E+02  0.7816164E-02  0.1312668E+00
        -11   -1    0    0    0    0  0.00000000000E+00  0.00000000000E+00  0.45593999997E+02  0.45594000000E+02  0.51100000000E-03 0.  1.
         11   -1    0    0    0    0 -0.00000000000E+00 -0.00000000000E+00 -0.45593999997E+02  0.45594000000E+02  0.51100000000E-03 0. -1.
    9900012    2    1    2    0    0 -0.86149348063E+01 -0.36602118955E+02  0.21672365302E+02  0.47787266924E+02  0.19999981215E+02 0.  0.
         12    1    1    2    0    0  0.86149348063E+01  0.36602118955E+02 -0.21672365302E+02  0.43400733076E+02  0.00000000000E+00 0. -1.
         11    1    3    3    0    0 -0.96250932827E+01 -0.99751261875E+01  0.18367224406E+01  0.13982814908E+02  0.51100000000E-03 0. -1.
        -11    1    3    3    0    0 -0.92347193852E+00 -0.20469247736E+02  0.17482211775E+02  0.26934562037E+02  0.51100000000E-03 0.  1.
         12    1    3    3    0    0  0.19336304149E+01 -0.61577450316E+01  0.23534310857E+01  0.68698899795E+01  0.00000000000E+00 0. -1.
</event>
<event>
 7    1  0.4876728E-009  0.4778727E+02  0.7816164E-02  0.1312668E+00
        -11   -1    0    0    0    0  0.00000000000E+00  0.00000000000E+00  0.45593999997E+02  0.45594000000E+02  0.51100000000E-03 0. -1.
         11   -1    0    0    0    0 -0.00000000000E+00 -0.00000000000E+00 -0.45593999997E+02  0.45594000000E+02  0.51100000000E-03 0.  1.
    9900012    2    1    2    0    0 -0.37597074197E+02  0.21574801532E+02 -0.21473661090E+01  0.47787271544E+02  0.20000002277E+02 0.  0.
         12    1    1    2    0    0  0.37597074197E+02 -0.21574801532E+02  0.21473661090E+01  0.43400728456E+02  0.00000000000E+00 0. -1.
         11    1    3    3    0    0 -0.21896811952E+02  0.15998709285E+02  0.49554370287E+01  0.27567833227E+02  0.51100000000E-03 0. -1.
        -11    1    3    3    0    0 -0.54594609104E+01  0.63264444055E+01 -0.13969799428E+01  0.84723766128E+01  0.51100000000E-03 0.  1.
         12    1    3    3    0    0 -0.10240801335E+02 -0.75035215870E+00 -0.57058231949E+01  0.11747061704E+02  0.00000000000E+00 0. -1.
</event>
<event>
 7    1  0.4876728E-009  0.4778727E+02  0.7816164E-02  0.1312668E+00
        -11   -1    0    0    0    0  0.00000000000E+00  0.00000000000E+00  0.45593999997E+02  0.45594000000E+02  0.51100000000E-03 0. -1.
         11   -1    0    0    0    0 -0.00000000000E+00 -0.00000000000E+00 -0.45593999997E+02  0.45594000000E+02  0.51100000000E-03 0.  1.
    9900012    2    1    2    0    0 -0.16221896048E+02 -0.36947159017E+02  0.15980641690E+02  0.47787269826E+02  0.19999994443E+02 0.  0.
         12    1    1    2    0    0  0.16221896048E+02  0.36947159017E+02 -0.15980641690E+02  0.43400730174E+02  0.00000000000E+00 0. -1.
         11    1    3    3    0    0 -0.34974626844E+01 -0.12900179558E+02  0.10443733121E+02  0.16962265168E+02  0.51100000000E-03 0. -1.
        -11    1    3    3    0    0 -0.51052164324E+01 -0.10510639507E+02 -0.42862449170E+01  0.12446231294E+02  0.51100000000E-03 0.  1.
        -12    1    3    3    0    0 -0.76192169315E+01 -0.13536339952E+02  0.98231534861E+01  0.18378773364E+02  0.00000000000E+00 0.  1.
</event>
<event>
 7    1  0.4876728E-009  0.4778727E+02  0.7816164E-02  0.1312668E+00
        -11   -1    0    0    0    0  0.00000000000E+00  0.00000000000E+00  0.45593999997E+02  0.45594000000E+02  0.51100000000E-03 0.  1.
         11   -1    0    0    0    0 -0.00000000000E+00 -0.00000000000E+00 -0.45593999997E+02  0.45594000000E+02  0.51100000000E-03 0. -1.
    9900012    2    1    2    0    0 -0.39742742657E+01 -0.15508749207E+02  0.40339896768E+02  0.47787269255E+02  0.19999991842E+02 0.  0.
         12    1    1    2    0    0  0.39742742657E+01  0.15508749207E+02 -0.40339896768E+02  0.43400730745E+02  0.00000000000E+00 0. -1.
         11    1    3    3    0    0 -0.68349898160E+01 -0.10749937091E+02  0.86530574336E+01  0.15399793390E+02  0.51100000000E-03 0. -1.
        -11    1    3    3    0    0  0.37009412194E+01 -0.34214273284E+01  0.21783445148E+02  0.22358926934E+02  0.51100000000E-03 0.  1.
         12    1    3    3    0    0 -0.84022566912E+00 -0.13373847883E+01  0.99033941869E+01  0.10028548931E+02  0.00000000000E+00 0. -1.
</event>
<event>
 7    1  0.4876728E-009  0.4778727E+02  0.7816164E-02  0.1312668E+00
        -11   -1    0    0    0    0  0.00000000000E+00  0.00000000000E+00  0.45593999997E+02  0.45594000000E+02  0.51100000000E-03 0. -1.
         11   -1    0    0    0    0 -0.00000000000E+00 -0.00000000000E+00 -0.45593999997E+02  0.45594000000E+02  0.51100000000E-03 0.  1.
    9900012    2    1    2    0    0 -0.69080203954E+01 -0.37609996984E+02  0.20527798708E+02  0.47787272601E+02  0.20000007098E+02 0.  0.
         12    1    1    2    0    0  0.69080203954E+01  0.37609996984E+02 -0.20527798708E+02  0.43400727399E+02  0.00000000000E+00 0. -1.
         11    1    3    3    0    0  0.38860424643E+01 -0.21541187466E+02  0.12252565186E+02  0.25084844775E+02  0.51100000000E-03 0.  1.
        -11    1    3    3    0    0 -0.38072403437E+01 -0.12513947541E+02  0.35666406657E+01  0.13557834930E+02  0.51100000000E-03 0. -1.
         12    1    3    3    0    0 -0.69868225161E+01 -0.35548619773E+01  0.47085928562E+01  0.91445928960E+01  0.00000000000E+00 0. -1.
</event>
<event>
 7    1  0.4876728E-009  0.4778728E+02  0.7816164E-02  0.1312668E+00
        -11   -1    0    0    0    0  0.00000000000E+00  0.00000000000E+00  0.45593999997E+02  0.45594000000E+02  0.51100000000E-03 0.  1.
         11   -1    0    0    0    0 -0.00000000000E+00 -0.00000000000E+00 -0.45593999997E+02  0.45594000000E+02  0.51100000000E-03 0. -1.
    9900012    2    1    2    0    0 -0.20077548893E+02  0.29538484145E+00  0.38476326055E+02  0.47787275485E+02  0.20000020246E+02 0.  0.
         12    1    1    2    0    0  0.20077548893E+02 -0.29538484145E+00 -0.38476326055E+02  0.43400724515E+02  0.00000000000E+00 0. -1.
         11    1    3    3    0    0 -0.31445190562E+01 -0.66947282891E+01  0.18093576520E+02  0.19546992057E+02  0.51100000000E-03 0. -1.
        -11    1    3    3    0    0 -0.30564181567E+01 -0.21254566725E+00  0.70715624663E+01  0.77067414375E+01  0.51100000000E-03 0.  1.
         12    1    3    3    0    0 -0.13876611680E+02  0.72026587978E+01  0.13311187069E+02  0.20533541990E+02  0.00000000000E+00 0. -1.
</event>
<event>
 7    1  0.4876728E-009  0.4778727E+02  0.7816164E-02  0.1312668E+00
        -11   -1    0    0    0    0  0.00000000000E+00  0.00000000000E+00  0.45593999997E+02  0.45594000000E+02  0.51100000000E-03 0.  1.
         11   -1    0    0    0    0 -0.00000000000E+00 -0.00000000000E+00 -0.45593999997E+02  0.45594000000E+02  0.51100000000E-03 0. -1.
    9900012    2    1    2    0    0  0.41984846385E+02 -0.82515537448E+01  0.72668929335E+01  0.47787271918E+02  0.20000003983E+02 0.  0.
         12    1    1    2    0    0 -0.41984846385E+02  0.82515537448E+01 -0.72668929335E+01  0.43400728082E+02  0.00000000000E+00 0. -1.
         11    1    3    3    0    0  0.20706903021E+02  0.27278310427E+01 -0.66294170031E+00  0.20896324722E+02  0.51100000000E-03 0. -1.
        -11    1    3    3    0    0  0.55771905836E+01 -0.17329544618E+01  0.63100315505E+01  0.85979465224E+01  0.51100000000E-03 0.  1.
         12    1    3    3    0    0  0.15700752780E+02 -0.92464303256E+01  0.16198030833E+01  0.18293000674E+02  0.00000000000E+00 0. -1.
</event>
<event>
 7    1  0.4876728E-009  0.4778727E+02  0.7816164E-02  0.1312668E+00
        -11   -1    0    0    0    0  0.00000000000E+00  0.00000000000E+00  0.45593999997E+02  0.45594000000E+02  0.51100000000E-03 0. -1.
         11   -1    0    0    0    0 -0.00000000000E+00 -0.00000000000E+00 -0.45593999997E+02  0.45594000000E+02  0.51100000000E-03 0.  1.
    9900012    2    1    2    0    0 -0.99297788740E+01 -0.31630783391E+02 -0.28009224724E+02  0.47787266872E+02  0.19999980978E+02 0.  0.
         12    1    1    2    0    0  0.99297788740E+01  0.31630783391E+02  0.28009224724E+02  0.43400733128E+02  0.00000000000E+00 0. -1.
         11    1    3    3    0    0  0.35916328487E+01 -0.12890400441E+02 -0.48407372758E+01  0.14230073354E+02  0.51100000000E-03 0. -1.
        -11    1    3    3    0    0 -0.12415161718E+02 -0.12903835804E+02 -0.14462475633E+02  0.23017567652E+02  0.51100000000E-03 0.  1.
         12    1    3    3    0    0 -0.11062500042E+01 -0.58365471466E+01 -0.87060118150E+01  0.10539625866E+02  0.00000000000E+00 0. -1.
</event>
<event>
 7    1  0.4876728E-009  0.4778727E+02  0.7816164E-02  0.1312668E+00
        -11   -1    0    0    0    0  0.00000000000E+00  0.00000000000E+00  0.45593999997E+02  0.45594000000E+02  0.51100000000E-03 0.  1.
         11   -1    0    0    0    0 -0.00000000000E+00 -0.00000000000E+00 -0.45593999997E+02  0.45594000000E+02  0.51100000000E-03 0. -1.
    9900012    2    1    2    0    0 -0.33237392612E+02 -0.24537907107E+02  0.13296232196E+02  0.47787274851E+02  0.20000017356E+02 0.  0.
         12    1    1    2    0    0  0.33237392612E+02  0.24537907107E+02 -0.13296232196E+02  0.43400725149E+02  0.00000000000E+00 0. -1.
         11    1    3    3    0    0 -0.26259325343E+02 -0.16036603876E+02  0.17709108481E+02  0.35501230328E+02  0.51100000000E-03 0.  1.
        -11    1    3    3    0    0 -0.46160609529E+01 -0.69564991328E+01 -0.20291203116E+01  0.85917535117E+01  0.51100000000E-03 0. -1.
        -12    1    3    3    0    0 -0.23620063155E+01 -0.15448040990E+01 -0.23837559730E+01  0.36942910115E+01  0.00000000000E+00 0.  1.
</event>
<event>
 7    1  0.4876728E-009  0.4778727E+02  0.7816164E-02  0.1312668E+00
        -11   -1    0    0    0    0  0.00000000000E+00  0.00000000000E+00  0.45593999997E+02  0.45594000000E+02  0.51100000000E-03 0.  1.
         11   -1    0    0    0    0 -0.00000000000E+00 -0.00000000000E+00 -0.45593999997E+02  0.45594000000E+02  0.51100000000E-03 0. -1.
    9900012    2    1    2    0    0  0.38702023512E+02  0.35379027846E+01  0.19319930397E+02  0.47787273156E+02  0.20000009627E+02 0.  0.
         12    1    1    2    0    0 -0.38702023512E+02 -0.35379027846E+01 -0.19319930397E+02  0.43400726844E+02  0.00000000000E+00 0. -1.
         11    1    3    3    0    0 -0.12115152513E+01 -0.11303930839E+01  0.12459046601E+01  0.20731223822E+01  0.51100000000E-03 0. -1.
        -11    1    3    3    0    0  0.62709022792E+01 -0.18344896547E+01  0.72954610726E+01  0.97935346128E+01  0.51100000000E-03 0.  1.
         12    1    3    3    0    0  0.33642636484E+02  0.65027855232E+01  0.10778564664E+02  0.35920616161E+02  0.00000000000E+00 0. -1.
</event>
<event>
 7    1  0.4876728E-009  0.4778727E+02  0.7816164E-02  0.1312668E+00
        -11   -1    0    0    0    0  0.00000000000E+00  0.00000000000E+00  0.45593999997E+02  0.45594000000E+02  0.51100000000E-03 0. -1.
         11   -1    0    0    0    0 -0.00000000000E+00 -0.00000000000E+00 -0.45593999997E+02  0.45594000000E+02  0.51100000000E-03 0.  1.
    9900012    2    1    2    0    0  0.39986425368E+02 -0.13992079572E+01 -0.16815212744E+02  0.47787269865E+02  0.19999994624E+02 0.  0.
         12    1    1    2    0    0 -0.39986425368E+02  0.13992079572E+01  0.16815212744E+02  0.43400730135E+02  0.00000000000E+00 0. -1.
         11    1    3    3    0    0 -0.18865969445E+01 -0.97985220506E+00  0.76667056726E+00  0.22598987576E+01  0.51100000000E-03 0. -1.
        -11    1    3    3    0    0  0.22619253526E+01  0.37392971022E+00 -0.16516320551E+01  0.28256005443E+01  0.51100000000E-03 0.  1.
         12    1    3    3    0    0  0.39611096960E+02 -0.79328546233E+00 -0.15930251256E+02  0.42701770563E+02  0.00000000000E+00 0. -1.
</event>
<event>
 7    1  0.4876728E-009  0.4778727E+02  0.7816164E-02  0.1312668E+00
        -11   -1    0    0    0    0  0.00000000000E+00  0.00000000000E+00  0.45593999997E+02  0.45594000000E+02  0.51100000000E-03 0.  1.
         11   -1    0    0    0    0 -0.00000000000E+00 -0.00000000000E+00 -0.45593999997E+02  0.45594000000E+02  0.51100000000E-03 0. -1.
    9900012    2    1    2    0    0 -0.29165827710E+02  0.43814756307E+01  0.31839917381E+02  0.47787272200E+02  0.20000005270E+02 0.  0.
         12    1    1    2    0    0  0.29165827710E+02 -0.43814756307E+01 -0.31839917381E+02  0.43400727800E+02  0.00000000000E+00 0. -1.
         11    1    3    3    0    0 -0.24545171840E+02  0.16694063266E+01  0.19688015380E+02  0.31509844938E+02  0.51100000000E-03 0. -1.
        -11    1    3    3    0    0 -0.17641090937E+01  0.60083430431E+01  0.86774322830E+01  0.10700939132E+02  0.51100000000E-03 0.  1.
        -12    1    3    3    0    0 -0.28565467765E+01 -0.32962737390E+01  0.34744697173E+01  0.55764881301E+01  0.00000000000E+00 0.  1.
</event>
<event>
 7    1  0.4876728E-009  0.4778727E+02  0.7816164E-02  0.1312668E+00
        -11   -1    0    0    0    0  0.00000000000E+00  0.00000000000E+00  0.45593999997E+02  0.45594000000E+02  0.51100000000E-03 0.  1.
         11   -1    0    0    0    0 -0.00000000000E+00 -0.00000000000E+00 -0.45593999997E+02  0.45594000000E+02  0.51100000000E-03 0. -1.
    9900012    2    1    2    0    0  0.19671406904E+02  0.34092350004E+02  0.18285814637E+02  0.47787267341E+02  0.19999983115E+02 0.  0.
         12    1    1    2    0    0 -0.19671406904E+02 -0.34092350004E+02 -0.18285814637E+02  0.43400732659E+02  0.00000000000E+00 0. -1.
         11    1    3    3    0    0  0.37386710924E+01  0.22838728882E+02  0.69968219349E+01  0.24177276851E+02  0.51100000000E-03 0. -1.
        -11    1    3    3    0    0  0.89552556311E+01  0.52797818030E+01  0.98338108549E+01  0.14310015217E+02  0.51100000000E-03 0.  1.
        -12    1    3    3    0    0  0.69774801808E+01  0.59738393186E+01  0.14551818472E+01  0.92999752734E+01  0.00000000000E+00 0.  1.
</event>
<event>
 7    1  0.4876728E-009  0.4778727E+02  0.7816164E-02  0.1312668E+00
        -11   -1    0    0    0    0  0.00000000000E+00  0.00000000000E+00  0.45593999997E+02  0.45594000000E+02  0.51100000000E-03 0.  1.
         11   -1    0    0    0    0 -0.00000000000E+00 -0.00000000000E+00 -0.45593999997E+02  0.45594000000E+02  0.51100000000E-03 0. -1.
    9900012    2    1    2    0    0 -0.30467480388E+02 -0.71742037937E+01  0.30064709977E+02  0.47787270199E+02  0.19999996146E+02 0.  0.
         12    1    1    2    0    0  0.30467480388E+02  0.71742037937E+01 -0.30064709977E+02  0.43400729801E+02  0.00000000000E+00 0. -1.
         11    1    3    3    0    0 -0.59811085374E+01 -0.37632387489E+00 -0.10641949107E+01  0.60866895817E+01  0.51100000000E-03 0. -1.
        -11    1    3    3    0    0 -0.70872019917E+01 -0.64508764417E+01  0.15953535212E+02  0.18610683087E+02  0.51100000000E-03 0.  1.
        -12    1    3    3    0    0 -0.17399169859E+02 -0.34700347709E+00  0.15175369676E+02  0.23089897531E+02  0.00000000000E+00 0.  1.
</event>
<event>
 7    1  0.4876728E-009  0.4778727E+02  0.7816164E-02  0.1312668E+00
        -11   -1    0    0    0    0  0.00000000000E+00  0.00000000000E+00  0.45593999997E+02  0.45594000000E+02  0.51100000000E-03 0. -1.
         11   -1    0    0    0    0 -0.00000000000E+00 -0.00000000000E+00 -0.45593999997E+02  0.45594000000E+02  0.51100000000E-03 0.  1.
    9900012    2    1    2    0    0 -0.75238423333E+01  0.42739390927E+02  0.59963365942E+00  0.47787270734E+02  0.19999998586E+02 0.  0.
         12    1    1    2    0    0  0.75238423333E+01 -0.42739390927E+02 -0.59963365942E+00  0.43400729266E+02  0.00000000000E+00 0. -1.
         11    1    3    3    0    0 -0.89369439864E+01  0.67802237588E+01 -0.10120774737E+01  0.11263423241E+02  0.51100000000E-03 0. -1.
        -11    1    3    3    0    0  0.20742856658E+01  0.18826613767E+02 -0.18563975966E+01  0.19031296835E+02  0.51100000000E-03 0.  1.
         12    1    3    3    0    0 -0.66118401272E+00  0.17132553402E+02  0.34681087296E+01  0.17492550658E+02  0.00000000000E+00 0. -1.
</event>
<event>
 7    1  0.4876728E-009  0.4778726E+02  0.7816164E-02  0.1312668E+00
        -11   -1    0    0    0    0  0.00000000000E+00  0.00000000000E+00  0.45593999997E+02  0.45594000000E+02  0.51100000000E-03 0.  1.
         11   -1    0    0    0    0 -0.00000000000E+00 -0.00000000000E+00 -0.45593999997E+02  0.45594000000E+02  0.51100000000E-03 0. -1.
    9900012    2    1    2    0    0  0.36662897019E+02  0.17317052634E+02  0.15478234529E+02  0.47787261828E+02  0.19999957977E+02 0.  0.
         12    1    1    2    0    0 -0.36662897019E+02 -0.17317052634E+02 -0.15478234529E+02  0.43400738172E+02  0.00000000000E+00 0. -1.
         11    1    3    3    0    0 -0.71229815039E+00  0.10919531473E+01 -0.11269052802E+01  0.17232661148E+01  0.51100000000E-03 0. -1.
        -11    1    3    3    0    0  0.26738450126E+02  0.12288479256E+02  0.18215191119E+02  0.34608447312E+02  0.51100000000E-03 0.  1.
        -12    1    3    3    0    0  0.10636745043E+02  0.39366202305E+01 -0.16100513091E+01  0.11455548401E+02  0.00000000000E+00 0.  1.
</event>
<event>
 7    1  0.4876728E-009  0.4778729E+02  0.7816164E-02  0.1312668E+00
        -11   -1    0    0    0    0  0.00000000000E+00  0.00000000000E+00  0.45593999997E+02  0.45594000000E+02  0.51100000000E-03 0.  1.
         11   -1    0    0    0    0 -0.00000000000E+00 -0.00000000000E+00 -0.45593999997E+02  0.45594000000E+02  0.51100000000E-03 0. -1.
    9900012    2    1    2    0    0 -0.37845291790E+02 -0.19225151118E+02  0.90414983029E+01  0.47787294502E+02  0.20000106953E+02 0.  0.
         12    1    1    2    0    0  0.37845291790E+02  0.19225151118E+02 -0.90414983029E+01  0.43400705498E+02  0.00000000000E+00 0. -1.
         11    1    3    3    0    0 -0.84606543095E+01 -0.40091744747E+01 -0.43655011465E+01  0.10330234839E+02  0.51100000000E-03 0. -1.
        -11    1    3    3    0    0 -0.12455375426E+02 -0.20420260875E+01  0.91453647658E+01  0.15586659183E+02  0.51100000000E-03 0.  1.
         12    1    3    3    0    0 -0.16929262055E+02 -0.13173950556E+02  0.42616346837E+01  0.21870400480E+02  0.00000000000E+00 0. -1.
</event>
<event>
 7    1  0.4876728E-009  0.4778727E+02  0.7816164E-02  0.1312668E+00
        -11   -1    0    0    0    0  0.00000000000E+00  0.00000000000E+00  0.45593999997E+02  0.45594000000E+02  0.51100000000E-03 0.  1.
         11   -1    0    0    0    0 -0.00000000000E+00 -0.00000000000E+00 -0.45593999997E+02  0.45594000000E+02  0.51100000000E-03 0. -1.
    9900012    2    1    2    0    0 -0.19915286459E+02 -0.31279233410E+02  0.22552469872E+02  0.47787274490E+02  0.20000015708E+02 0.  0.
         12    1    1    2    0    0  0.19915286459E+02  0.31279233410E+02 -0.22552469872E+02  0.43400725510E+02  0.00000000000E+00 0. -1.
         11    1    3    3    0    0  0.22777367567E+01 -0.16039565922E+01  0.19585221828E+01  0.34053738244E+01  0.51100000000E-03 0. -1.
        -11    1    3    3    0    0 -0.13859502542E+02 -0.21447998087E+02  0.70791878876E+01  0.26499383655E+02  0.51100000000E-03 0.  1.
        -12    1    3    3    0    0 -0.83335206740E+01 -0.82272787309E+01  0.13514759802E+02  0.17882517011E+02  0.00000000000E+00 0.  1.
</event>
<event>
 7    1  0.4876728E-009  0.4778728E+02  0.7816164E-02  0.1312668E+00
        -11   -1    0    0    0    0  0.00000000000E+00  0.00000000000E+00  0.45593999997E+02  0.45594000000E+02  0.51100000000E-03 0.  1.
         11   -1    0    0    0    0 -0.00000000000E+00 -0.00000000000E+00 -0.45593999997E+02  0.45594000000E+02  0.51100000000E-03 0. -1.
    9900012    2    1    2    0    0 -0.94328785140E+01 -0.19612863299E+02  0.37549681864E+02  0.47787283279E+02  0.20000055780E+02 0.  0.
         12    1    1    2    0    0  0.94328785140E+01  0.19612863299E+02 -0.37549681864E+02  0.43400716721E+02  0.00000000000E+00 0. -1.
         11    1    3    3    0    0 -0.13507397776E+02 -0.16836789641E+02  0.20365861036E+02  0.29676515565E+02  0.51100000000E-03 0. -1.
        -11    1    3    3    0    0  0.27822431304E+01 -0.18781233915E+01  0.65392782230E+01  0.73505363239E+01  0.51100000000E-03 0.  1.
         12    1    3    3    0    0  0.12922761312E+01 -0.89795026566E+00  0.10644542605E+02  0.10760231390E+02  0.00000000000E+00 0. -1.
</event>
<event>
 7    1  0.4876728E-009  0.4778727E+02  0.7816164E-02  0.1312668E+00
        -11   -1    0    0    0    0  0.00000000000E+00  0.00000000000E+00  0.45593999997E+02  0.45594000000E+02  0.51100000000E-03 0.  1.
         11   -1    0    0    0    0 -0.00000000000E+00 -0.00000000000E+00 -0.45593999997E+02  0.45594000000E+02  0.51100000000E-03 0. -1.
    9900012    2    1    2    0    0 -0.29796663588E+02  0.35606184167E+01  0.31354492065E+02  0.47787270316E+02  0.19999996677E+02 0.  0.
         12    1    1    2    0    0  0.29796663588E+02 -0.35606184167E+01 -0.31354492065E+02  0.43400729684E+02  0.00000000000E+00 0. -1.
         11    1    3    3    0    0 -0.12681928486E+02  0.38672560707E+01  0.28961149044E+01  0.13571089177E+02  0.51100000000E-03 0. -1.
        -11    1    3    3    0    0 -0.95083261160E+01 -0.42658321242E+01  0.15617649234E+02  0.18775424285E+02  0.51100000000E-03 0.  1.
         12    1    3    3    0    0 -0.76064089857E+01  0.39591944702E+01  0.12840727927E+02  0.15440756853E+02  0.00000000000E+00 0. -1.
</event>
<event>
 7    1  0.4876728E-009  0.4778728E+02  0.7816164E-02  0.1312668E+00
        -11   -1    0    0    0    0  0.00000000000E+00  0.00000000000E+00  0.45593999997E+02  0.45594000000E+02  0.51100000000E-03 0.  1.
         11   -1    0    0    0    0 -0.00000000000E+00 -0.00000000000E+00 -0.45593999997E+02  0.45594000000E+02  0.51100000000E-03 0. -1.
    9900012    2    1    2    0    0 -0.28105137727E+02  0.99980495283E+01  0.31524006968E+02  0.47787276776E+02  0.20000026134E+02 0.  0.
         12    1    1    2    0    0  0.28105137727E+02 -0.99980495283E+01 -0.31524006968E+02  0.43400723224E+02  0.00000000000E+00 0. -1.
         11    1    3    3    0    0 -0.18165824370E+01  0.33930722612E+01  0.65764785338E+01  0.76199069080E+01  0.51100000000E-03 0. -1.
        -11    1    3    3    0    0 -0.24495081441E+02  0.90506883847E+01  0.26102172832E+02  0.36922180351E+02  0.51100000000E-03 0.  1.
        -12    1    3    3    0    0 -0.17934738488E+01 -0.24457111176E+01 -0.11546443982E+01  0.32451895174E+01  0.00000000000E+00 0.  1.
</event>
<event>
 7    1  0.4876728E-009  0.4778727E+02  0.7816164E-02  0.1312668E+00
        -11   -1    0    0    0    0  0.00000000000E+00  0.00000000000E+00  0.45593999997E+02  0.45594000000E+02  0.51100000000E-03 0.  1.
         11   -1    0    0    0    0 -0.00000000000E+00 -0.00000000000E+00 -0.45593999997E+02  0.45594000000E+02  0.51100000000E-03 0. -1.
    9900012    2    1    2    0    0  0.12448385864E+01 -0.25150488994E+02  0.35348644392E+02  0.47787269821E+02  0.19999994422E+02 0.  0.
         12    1    1    2    0    0 -0.12448385864E+01  0.25150488994E+02 -0.35348644392E+02  0.43400730179E+02  0.00000000000E+00 0. -1.
         11    1    3    3    0    0  0.19630852810E+01 -0.39411543720E+01 -0.21210486826E+00  0.44081050737E+01  0.51100000000E-03 0. -1.
        -11    1    3    3    0    0 -0.61901328311E+01 -0.92054627502E+01  0.20865954570E+02  0.23631469470E+02  0.51100000000E-03 0.  1.
        -12    1    3    3    0    0  0.54718861365E+01 -0.12003871872E+02  0.14694794690E+02  0.19747695278E+02  0.00000000000E+00 0.  1.
</event>
<event>
 7    1  0.4876728E-009  0.4778727E+02  0.7816164E-02  0.1312668E+00
        -11   -1    0    0    0    0  0.00000000000E+00  0.00000000000E+00  0.45593999997E+02  0.45594000000E+02  0.51100000000E-03 0.  1.
         11   -1    0    0    0    0 -0.00000000000E+00 -0.00000000000E+00 -0.45593999997E+02  0.45594000000E+02  0.51100000000E-03 0. -1.
    9900012    2    1    2    0    0  0.16195997956E+02 -0.22309538241E+02  0.33520104501E+02  0.47787271295E+02  0.20000001145E+02 0.  0.
         12    1    1    2    0    0 -0.16195997956E+02  0.22309538241E+02 -0.33520104501E+02  0.43400728705E+02  0.00000000000E+00 0. -1.
         11    1    3    3    0    0  0.11550965783E+02 -0.91776807066E+01  0.55056070307E+01  0.15746947091E+02  0.51100000000E-03 0. -1.
        -11    1    3    3    0    0  0.71194741195E+00 -0.12015779648E+01  0.98901474484E+01  0.99882769052E+01  0.51100000000E-03 0.  1.
         12    1    3    3    0    0  0.39330847616E+01 -0.11930279570E+02  0.18124350022E+02  0.22052047299E+02  0.00000000000E+00 0. -1.
</event>
<event>
 7    1  0.4876728E-009  0.4778724E+02  0.7816164E-02  0.1312668E+00
        -11   -1    0    0    0    0  0.00000000000E+00  0.00000000000E+00  0.45593999997E+02  0.45594000000E+02  0.51100000000E-03 0.  1.
         11   -1    0    0    0    0 -0.00000000000E+00 -0.00000000000E+00 -0.45593999997E+02  0.45594000000E+02  0.51100000000E-03 0. -1.
    9900012    2    1    2    0    0 -0.13766421451E+02 -0.24967648210E+02  0.32721976776E+02  0.47787244467E+02  0.19999878823E+02 0.  0.
         12    1    1    2    0    0  0.13766421451E+02  0.24967648210E+02 -0.32721976776E+02  0.43400755533E+02  0.00000000000E+00 0. -1.
         11    1    3    3    0    0  0.18472709252E+01 -0.61014520783E+00  0.44929754809E+00  0.19966360694E+01  0.51100000000E-03 0. -1.
        -11    1    3    3    0    0 -0.12594830122E+02 -0.26111099423E+02  0.28593961608E+02  0.40718962408E+02  0.51100000000E-03 0.  1.
        -12    1    3    3    0    0 -0.30188622539E+01  0.17535964211E+01  0.36787176198E+01  0.50716459895E+01  0.00000000000E+00 0.  1.
</event>
<event>
 7    1  0.4876728E-009  0.4778727E+02  0.7816164E-02  0.1312668E+00
        -11   -1    0    0    0    0  0.00000000000E+00  0.00000000000E+00  0.45593999997E+02  0.45594000000E+02  0.51100000000E-03 0. -1.
         11   -1    0    0    0    0 -0.00000000000E+00 -0.00000000000E+00 -0.45593999997E+02  0.45594000000E+02  0.51100000000E-03 0.  1.
    9900012    2    1    2    0    0 -0.37934339984E+02 -0.21023971372E+02  0.16129416867E+01  0.47787273012E+02  0.20000008969E+02 0.  0.
         12    1    1    2    0    0  0.37934339984E+02  0.21023971372E+02 -0.16129416867E+01  0.43400726988E+02  0.00000000000E+00 0. -1.
         11    1    3    3    0    0 -0.12297161753E+02  0.66864988910E+00  0.31350188549E+01  0.12708092829E+02  0.51100000000E-03 0. -1.
        -11    1    3    3    0    0 -0.45396373866E+01 -0.97890301800E+01  0.21951308934E+00  0.10792664440E+02  0.51100000000E-03 0.  1.
        -12    1    3    3    0    0 -0.21097540844E+02 -0.11903591081E+02 -0.17415902576E+01  0.24286515742E+02  0.00000000000E+00 0.  1.
</event>
<event>
 7    1  0.4876728E-009  0.4778727E+02  0.7816164E-02  0.1312668E+00
        -11   -1    0    0    0    0  0.00000000000E+00  0.00000000000E+00  0.45593999997E+02  0.45594000000E+02  0.51100000000E-03 0.  1.
         11   -1    0    0    0    0 -0.00000000000E+00 -0.00000000000E+00 -0.45593999997E+02  0.45594000000E+02  0.51100000000E-03 0. -1.
    9900012    2    1    2    0    0 -0.12845490844E+02 -0.19037229793E+02  0.36826623808E+02  0.47787274495E+02  0.20000015735E+02 0.  0.
         12    1    1    2    0    0  0.12845490844E+02  0.19037229793E+02 -0.36826623808E+02  0.43400725505E+02  0.00000000000E+00 0. -1.
         11    1    3    3    0    0  0.36318334416E+01 -0.50101687859E+01  0.18933764655E+01  0.64712348213E+01  0.51100000000E-03 0. -1.
        -11    1    3    3    0    0 -0.11214492321E+02 -0.10462507105E+02  0.27887798272E+02  0.31827004032E+02  0.51100000000E-03 0.  1.
         12    1    3    3    0    0 -0.52628319647E+01 -0.35645539022E+01  0.70454490703E+01  0.94890356419E+01  0.00000000000E+00 0. -1.
</event>
<event>
 7    1  0.4876728E-009  0.4778726E+02  0.7816164E-02  0.1312668E+00
        -11   -1    0    0    0    0  0.00000000000E+00  0.00000000000E+00  0.45593999997E+02  0.45594000000E+02  0.51100000000E-03 0. -1.
         11   -1    0    0    0    0 -0.00000000000E+00 -0.00000000000E+00 -0.45593999997E+02  0.45594000000E+02  0.51100000000E-03 0.  1.
    9900012    2    1    2    0    0 -0.10029842348E+02 -0.42214362067E+02 -0.98710136807E+00  0.47787257248E+02  0.19999937098E+02 0.  0.
         12    1    1    2    0    0  0.10029842348E+02  0.42214362067E+02  0.98710136807E+00  0.43400742752E+02  0.00000000000E+00 0. -1.
         11    1    3    3    0    0 -0.72629294327E+01 -0.84139565555E+01  0.40767945717E+01  0.11839132701E+02  0.51100000000E-03 0. -1.
        -11    1    3    3    0    0 -0.45348429557E+01 -0.19676573262E+02 -0.74354556457E+01  0.21517860880E+02  0.51100000000E-03 0.  1.
         12    1    3    3    0    0  0.17679300405E+01 -0.14123832250E+02  0.23715597060E+01  0.14430263667E+02  0.00000000000E+00 0. -1.
</event>
<event>
 7    1  0.4876728E-009  0.4778727E+02  0.7816164E-02  0.1312668E+00
        -11   -1    0    0    0    0  0.00000000000E+00  0.00000000000E+00  0.45593999997E+02  0.45594000000E+02  0.51100000000E-03 0.  1.
         11   -1    0    0    0    0 -0.00000000000E+00 -0.00000000000E+00 -0.45593999997E+02  0.45594000000E+02  0.51100000000E-03 0. -1.
    9900012    2    1    2    0    0  0.91249161319E+00  0.37688495389E+02  0.21502742717E+02  0.47787271089E+02  0.20000000205E+02 0.  0.
         12    1    1    2    0    0 -0.91249161319E+00 -0.37688495389E+02 -0.21502742717E+02  0.43400728911E+02  0.00000000000E+00 0. -1.
         11    1    3    3    0    0  0.85849605957E+00  0.32040925807E+01  0.11162892647E+02  0.11645316537E+02  0.51100000000E-03 0. -1.
        -11    1    3    3    0    0 -0.14068115533E+01  0.22382522519E+02  0.72038897309E+01  0.23555306421E+02  0.51100000000E-03 0.  1.
         12    1    3    3    0    0  0.14608071069E+01  0.12101880289E+02  0.31359603392E+01  0.12586648131E+02  0.00000000000E+00 0. -1.
</event>
<event>
 7    1  0.4876728E-009  0.4778727E+02  0.7816164E-02  0.1312668E+00
        -11   -1    0    0    0    0  0.00000000000E+00  0.00000000000E+00  0.45593999997E+02  0.45594000000E+02  0.51100000000E-03 0.  1.
         11   -1    0    0    0    0 -0.00000000000E+00 -0.00000000000E+00 -0.45593999997E+02  0.45594000000E+02  0.51100000000E-03 0. -1.
    9900012    2    1    2    0    0 -0.28809908080E+02 -0.10918030450E+01  0.32441026649E+02  0.47787273653E+02  0.20000011891E+02 0.  0.
         12    1    1    2    0    0  0.28809908080E+02  0.10918030450E+01 -0.32441026649E+02  0.43400726347E+02  0.00000000000E+00 0. -1.
         11    1    3    3    0    0 -0.35484946365E+01 -0.26574093689E+01  0.19057405245E+01  0.48255036988E+01  0.51100000000E-03 0. -1.
        -11    1    3    3    0    0 -0.24755860186E+02 -0.20725397516E+01  0.20281793473E+02  0.32070222657E+02  0.51100000000E-03 0.  1.
        -12    1    3    3    0    0 -0.50555325810E+00  0.36381460754E+01  0.10253492651E+02  0.10891547297E+02  0.00000000000E+00 0.  1.
</event>
<event>
 7    1  0.4876728E-009  0.4778727E+02  0.7816164E-02  0.1312668E+00
        -11   -1    0    0    0    0  0.00000000000E+00  0.00000000000E+00  0.45593999997E+02  0.45594000000E+02  0.51100000000E-03 0. -1.
         11   -1    0    0    0    0 -0.00000000000E+00 -0.00000000000E+00 -0.45593999997E+02  0.45594000000E+02  0.51100000000E-03 0.  1.
    9900012    2    1    2    0    0  0.36314334368E+02  0.22631834096E+02  0.72589880387E+01  0.47787266106E+02  0.19999977484E+02 0.  0.
         12    1    1    2    0    0 -0.36314334368E+02 -0.22631834096E+02 -0.72589880387E+01  0.43400733894E+02  0.00000000000E+00 0. -1.
         11    1    3    3    0    0  0.22412762627E+01 -0.95936912489E+00 -0.12856749344E+01  0.27562054897E+01  0.51100000000E-03 0. -1.
        -11    1    3    3    0    0  0.38800395399E+01  0.81624535735E+01  0.63654843807E+01  0.11054399433E+02  0.51100000000E-03 0.  1.
        -12    1    3    3    0    0  0.30193018566E+02  0.15428749648E+02  0.21791785924E+01  0.33976661183E+02  0.00000000000E+00 0.  1.
</event>
<event>
 7    1  0.4876728E-009  0.4778727E+02  0.7816164E-02  0.1312668E+00
        -11   -1    0    0    0    0  0.00000000000E+00  0.00000000000E+00  0.45593999997E+02  0.45594000000E+02  0.51100000000E-03 0. -1.
         11   -1    0    0    0    0 -0.00000000000E+00 -0.00000000000E+00 -0.45593999997E+02  0.45594000000E+02  0.51100000000E-03 0.  1.
    9900012    2    1    2    0    0 -0.25411526517E+02 -0.35158578334E+02 -0.13237189689E+01  0.47787267952E+02  0.19999985899E+02 0.  0.
         12    1    1    2    0    0  0.25411526517E+02  0.35158578334E+02  0.13237189689E+01  0.43400732048E+02  0.00000000000E+00 0. -1.
         11    1    3    3    0    0 -0.99395281404E+00 -0.45035980134E+01 -0.23889178402E+01  0.51939643791E+01  0.51100000000E-03 0. -1.
        -11    1    3    3    0    0  0.12818542323E+01 -0.83784004199E+01  0.13438995198E+01  0.85817719644E+01  0.51100000000E-03 0.  1.
        -12    1    3    3    0    0 -0.25699427935E+02 -0.22276579901E+02 -0.27870064847E+00  0.34011531608E+02  0.00000000000E+00 0.  1.
</event>
<event>
 7    1  0.4876728E-009  0.4778727E+02  0.7816164E-02  0.1312668E+00
        -11   -1    0    0    0    0  0.00000000000E+00  0.00000000000E+00  0.45593999997E+02  0.45594000000E+02  0.51100000000E-03 0.  1.
         11   -1    0    0    0    0 -0.00000000000E+00 -0.00000000000E+00 -0.45593999997E+02  0.45594000000E+02  0.51100000000E-03 0. -1.
    9900012    2    1    2    0    0 -0.12116500017E+02 -0.58871712778E+01  0.41257179642E+02  0.47787271546E+02  0.20000002288E+02 0.  0.
         12    1    1    2    0    0  0.12116500017E+02  0.58871712778E+01 -0.41257179642E+02  0.43400728454E+02  0.00000000000E+00 0. -1.
         11    1    3    3    0    0 -0.44233206865E+01  0.18198328043E+01  0.63115390501E+01  0.79191592214E+01  0.51100000000E-03 0. -1.
        -11    1    3    3    0    0 -0.16501736380E+01 -0.21818444586E+01 -0.10670130258E+01  0.29363302497E+01  0.51100000000E-03 0.  1.
        -12    1    3    3    0    0 -0.60430056926E+01 -0.55251596235E+01  0.36012653618E+02  0.36931782075E+02  0.00000000000E+00 0.  1.
</event>
<event>
 7    1  0.4876728E-009  0.4778727E+02  0.7816164E-02  0.1312668E+00
        -11   -1    0    0    0    0  0.00000000000E+00  0.00000000000E+00  0.45593999997E+02  0.45594000000E+02  0.51100000000E-03 0. -1.
         11   -1    0    0    0    0 -0.00000000000E+00 -0.00000000000E+00 -0.45593999997E+02  0.45594000000E+02  0.51100000000E-03 0.  1.
    9900012    2    1    2    0    0  0.26749653343E+02  0.28338821525E+02 -0.19104718225E+02  0.47787273994E+02  0.20000013448E+02 0.  0.
         12    1    1    2    0    0 -0.26749653343E+02 -0.28338821525E+02  0.19104718225E+02  0.43400726006E+02  0.00000000000E+00 0. -1.
         11    1    3    3    0    0  0.15058168777E+02  0.21871365525E+02 -0.66379947058E+01  0.27370934416E+02  0.51100000000E-03 0. -1.
        -11    1    3    3    0    0  0.35198246882E+01  0.69911869076E+01 -0.46973369663E+01  0.91285724541E+01  0.51100000000E-03 0.  1.
         12    1    3    3    0    0  0.81716598783E+01 -0.52373090797E+00 -0.77693865527E+01  0.11287767124E+02  0.00000000000E+00 0. -1.
</event>
<event>
 7    1  0.4876728E-009  0.4778727E+02  0.7816164E-02  0.1312668E+00
        -11   -1    0    0    0    0  0.00000000000E+00  0.00000000000E+00  0.45593999997E+02  0.45594000000E+02  0.51100000000E-03 0. -1.
         11   -1    0    0    0    0 -0.00000000000E+00 -0.00000000000E+00 -0.45593999997E+02  0.45594000000E+02  0.51100000000E-03 0.  1.
    9900012    2    1    2    0    0 -0.41264432867E+02  0.13161050564E+02  0.27671224987E+01  0.47787266841E+02  0.19999980835E+02 0.  0.
         12    1    1    2    0    0  0.41264432867E+02 -0.13161050564E+02 -0.27671224987E+01  0.43400733159E+02  0.00000000000E+00 0. -1.
         11    1    3    3    0    0 -0.59778944707E+00 -0.86516893377E+00 -0.15312460627E+01  0.18575748363E+01  0.51100000000E-03 0. -1.
        -11    1    3    3    0    0 -0.27165445158E+02  0.62409788184E+01 -0.41847555973E+01  0.28185517681E+02  0.51100000000E-03 0.  1.
        -12    1    3    3    0    0 -0.13501198262E+02  0.77852406792E+01  0.84831241586E+01  0.17744174324E+02  0.00000000000E+00 0.  1.
</event>
<event>
 7    1  0.4876728E-009  0.4778727E+02  0.7816164E-02  0.1312668E+00
        -11   -1    0    0    0    0  0.00000000000E+00  0.00000000000E+00  0.45593999997E+02  0.45594000000E+02  0.51100000000E-03 0.  1.
         11   -1    0    0    0    0 -0.00000000000E+00 -0.00000000000E+00 -0.45593999997E+02  0.45594000000E+02  0.51100000000E-03 0. -1.
    9900012    2    1    2    0    0 -0.12392432831E+02  0.41575449537E+02  0.12380864804E+01  0.47787271276E+02  0.20000001055E+02 0.  0.
         12    1    1    2    0    0  0.12392432831E+02 -0.41575449537E+02 -0.12380864804E+01  0.43400728724E+02  0.00000000000E+00 0. -1.
         11    1    3    3    0    0 -0.30213572058E+00  0.71985951607E+01 -0.50961319026E+01  0.88250563120E+01  0.51100000000E-03 0. -1.
        -11    1    3    3    0    0 -0.58473869081E+01  0.30098938307E+02  0.34171632892E+01  0.30851499575E+02  0.51100000000E-03 0.  1.
        -12    1    3    3    0    0 -0.62429102028E+01  0.42779160693E+01  0.29170550938E+01  0.81107153887E+01  0.00000000000E+00 0.  1.
</event>
<event>
 7    1  0.4876728E-009  0.4778726E+02  0.7816164E-02  0.1312668E+00
        -11   -1    0    0    0    0  0.00000000000E+00  0.00000000000E+00  0.45593999997E+02  0.45594000000E+02  0.51100000000E-03 0.  1.
         11   -1    0    0    0    0 -0.00000000000E+00 -0.00000000000E+00 -0.45593999997E+02  0.45594000000E+02  0.51100000000E-03 0. -1.
    9900012    2    1    2    0    0 -0.27768487531E+02 -0.20055548921E+02  0.26651640703E+02  0.47787263895E+02  0.19999967403E+02 0.  0.
         12    1    1    2    0    0  0.27768487531E+02  0.20055548921E+02 -0.26651640703E+02  0.43400736105E+02  0.00000000000E+00 0. -1.
         11    1    3    3    0    0 -0.13155184074E+02 -0.89180450133E+01  0.24527819958E+02  0.29226774489E+02  0.51100000000E-03 0.  1.
        -11    1    3    3    0    0 -0.12724388875E+02 -0.90179451046E+01  0.16653674636E+01  0.15684605676E+02  0.51100000000E-03 0. -1.
        -12    1    3    3    0    0 -0.18889145814E+01 -0.21195588037E+01  0.45845328164E+00  0.28758837302E+01  0.00000000000E+00 0.  1.
</event>
<event>
 7    1  0.4876728E-009  0.4778728E+02  0.7816164E-02  0.1312668E+00
        -11   -1    0    0    0    0  0.00000000000E+00  0.00000000000E+00  0.45593999997E+02  0.45594000000E+02  0.51100000000E-03 0. -1.
         11   -1    0    0    0    0 -0.00000000000E+00 -0.00000000000E+00 -0.45593999997E+02  0.45594000000E+02  0.51100000000E-03 0.  1.
    9900012    2    1    2    0    0 -0.15999904524E+01 -0.55399242780E+01 -0.43015946763E+02  0.47787281039E+02  0.20000045568E+02 0.  0.
         12    1    1    2    0    0  0.15999904524E+01  0.55399242780E+01  0.43015946763E+02  0.43400718961E+02  0.00000000000E+00 0. -1.
         11    1    3    3    0    0  0.36932556442E+00  0.26483105072E+01 -0.81761662210E+01  0.86023045894E+01  0.51100000000E-03 0. -1.
        -11    1    3    3    0    0 -0.52867902508E+01  0.41932754218E+00 -0.31244794429E+01  0.61553520446E+01  0.51100000000E-03 0.  1.
        -12    1    3    3    0    0  0.33174742340E+01 -0.86075623274E+01 -0.31715301099E+02  0.33029624405E+02  0.00000000000E+00 0.  1.
</event>
<event>
 7    1  0.4876728E-009  0.4778727E+02  0.7816164E-02  0.1312668E+00
        -11   -1    0    0    0    0  0.00000000000E+00  0.00000000000E+00  0.45593999997E+02  0.45594000000E+02  0.51100000000E-03 0.  1.
         11   -1    0    0    0    0 -0.00000000000E+00 -0.00000000000E+00 -0.45593999997E+02  0.45594000000E+02  0.51100000000E-03 0. -1.
    9900012    2    1    2    0    0  0.43848378393E+01  0.29899432400E+01  0.43075011645E+02  0.47787271991E+02  0.20000004316E+02 0.  0.
         12    1    1    2    0    0 -0.43848378393E+01 -0.29899432400E+01 -0.43075011645E+02  0.43400728009E+02  0.00000000000E+00 0. -1.
         11    1    3    3    0    0  0.70242904920E+01  0.17096521246E+01  0.16335773922E+02  0.17863960288E+02  0.51100000000E-03 0. -1.
        -11    1    3    3    0    0  0.25987685297E+01 -0.11567664893E+01  0.30018214086E+00  0.28603874144E+01  0.51100000000E-03 0.  1.
        -12    1    3    3    0    0 -0.52382211823E+01  0.24370576047E+01  0.26439055583E+02  0.27062924288E+02  0.00000000000E+00 0.  1.
</event>
<event>
 7    1  0.4876728E-009  0.4778727E+02  0.7816164E-02  0.1312668E+00
        -11   -1    0    0    0    0  0.00000000000E+00  0.00000000000E+00  0.45593999997E+02  0.45594000000E+02  0.51100000000E-03 0. -1.
         11   -1    0    0    0    0 -0.00000000000E+00 -0.00000000000E+00 -0.45593999997E+02  0.45594000000E+02  0.51100000000E-03 0.  1.
    9900012    2    1    2    0    0 -0.32589565117E+02 -0.19738568894E+02 -0.20782982264E+02  0.47787271800E+02  0.20000003446E+02 0.  0.
         12    1    1    2    0    0  0.32589565117E+02  0.19738568894E+02  0.20782982264E+02  0.43400728200E+02  0.00000000000E+00 0. -1.
         11    1    3    3    0    0 -0.72900045377E+01 -0.90889037641E+01 -0.60521176102E+01  0.13129374152E+02  0.51100000000E-03 0.  1.
        -11    1    3    3    0    0 -0.27171995431E+02 -0.83920010557E+01 -0.13349148798E+02  0.31415645645E+02  0.51100000000E-03 0. -1.
        -12    1    3    3    0    0  0.18724348518E+01 -0.22576640740E+01 -0.13817158562E+01  0.32422520033E+01  0.00000000000E+00 0.  1.
</event>
<event>
 7    1  0.4876728E-009  0.4778727E+02  0.7816164E-02  0.1312668E+00
        -11   -1    0    0    0    0  0.00000000000E+00  0.00000000000E+00  0.45593999997E+02  0.45594000000E+02  0.51100000000E-03 0.  1.
         11   -1    0    0    0    0 -0.00000000000E+00 -0.00000000000E+00 -0.45593999997E+02  0.45594000000E+02  0.51100000000E-03 0. -1.
    9900012    2    1    2    0    0  0.18293064345E+02  0.34066061515E+02  0.19710164840E+02  0.47787270187E+02  0.19999996091E+02 0.  0.
         12    1    1    2    0    0 -0.18293064345E+02 -0.34066061515E+02 -0.19710164840E+02  0.43400729813E+02  0.00000000000E+00 0. -1.
         11    1    3    3    0    0  0.82308880999E+01  0.81134387913E+01  0.58202417585E+00  0.11572128600E+02  0.51100000000E-03 0. -1.
        -11    1    3    3    0    0  0.10067778724E+02  0.27399736757E+02  0.17490563706E+02  0.34029774636E+02  0.51100000000E-03 0.  1.
        -12    1    3    3    0    0 -0.56024793551E-02 -0.14471140334E+01  0.16375769586E+01  0.21853669506E+01  0.00000000000E+00 0.  1.
</event>
<event>
 7    1  0.4876728E-009  0.4778727E+02  0.7816164E-02  0.1312668E+00
        -11   -1    0    0    0    0  0.00000000000E+00  0.00000000000E+00  0.45593999997E+02  0.45594000000E+02  0.51100000000E-03 0.  1.
         11   -1    0    0    0    0 -0.00000000000E+00 -0.00000000000E+00 -0.45593999997E+02  0.45594000000E+02  0.51100000000E-03 0. -1.
    9900012    2    1    2    0    0 -0.39332987679E+02 -0.21289695720E+01  0.18221053151E+02  0.47787271791E+02  0.20000003402E+02 0.  0.
         12    1    1    2    0    0  0.39332987679E+02  0.21289695720E+01 -0.18221053151E+02  0.43400728209E+02  0.00000000000E+00 0. -1.
         11    1    3    3    0    0 -0.23186108969E+01  0.13166476161E+01  0.73790030405E+01  0.78459673444E+01  0.51100000000E-03 0.  1.
        -11    1    3    3    0    0 -0.32737189697E+02 -0.26681584701E+01  0.12697516844E+02  0.35214621866E+02  0.51100000000E-03 0. -1.
        -12    1    3    3    0    0 -0.42771870848E+01 -0.77745871800E+00 -0.18554667336E+01  0.47266825805E+01  0.00000000000E+00 0.  1.
</event>
<event>
 7    1  0.4876728E-009  0.4778727E+02  0.7816164E-02  0.1312668E+00
        -11   -1    0    0    0    0  0.00000000000E+00  0.00000000000E+00  0.45593999997E+02  0.45594000000E+02  0.51100000000E-03 0. -1.
         11   -1    0    0    0    0 -0.00000000000E+00 -0.00000000000E+00 -0.45593999997E+02  0.45594000000E+02  0.51100000000E-03 0.  1.
    9900012    2    1    2    0    0  0.87903731603E+01  0.17485882716E+02 -0.38737530965E+02  0.47787273509E+02  0.20000011239E+02 0.  0.
         12    1    1    2    0    0 -0.87903731603E+01 -0.17485882716E+02  0.38737530965E+02  0.43400726491E+02  0.00000000000E+00 0. -1.
         11    1    3    3    0    0  0.92743391691E+01  0.60907941190E+01 -0.54929059230E+01  0.12380757479E+02  0.51100000000E-03 0. -1.
        -11    1    3    3    0    0 -0.21657447926E+01  0.58418294295E+01 -0.19966263398E+02  0.20915761902E+02  0.51100000000E-03 0.  1.
         12    1    3    3    0    0  0.16817787838E+01  0.55532591678E+01 -0.13278361644E+02  0.14490754128E+02  0.00000000000E+00 0. -1.
</event>
<event>
 7    1  0.4876728E-009  0.4778727E+02  0.7816164E-02  0.1312668E+00
        -11   -1    0    0    0    0  0.00000000000E+00  0.00000000000E+00  0.45593999997E+02  0.45594000000E+02  0.51100000000E-03 0.  1.
         11   -1    0    0    0    0 -0.00000000000E+00 -0.00000000000E+00 -0.45593999997E+02  0.45594000000E+02  0.51100000000E-03 0. -1.
    9900012    2    1    2    0    0 -0.16653429383E+02  0.67663884833E+01  0.39503200479E+02  0.47787267617E+02  0.19999984372E+02 0.  0.
         12    1    1    2    0    0  0.16653429383E+02 -0.67663884833E+01 -0.39503200479E+02  0.43400732383E+02  0.00000000000E+00 0. -1.
         11    1    3    3    0    0 -0.27810044858E+01 -0.29860763755E+01  0.12412483484E+01  0.42651302201E+01  0.51100000000E-03 0. -1.
        -11    1    3    3    0    0 -0.20761677170E+01  0.84303239774E+01  0.13321801864E+02  0.15901296799E+02  0.51100000000E-03 0.  1.
        -12    1    3    3    0    0 -0.11796257180E+02  0.13221408814E+01  0.24940150267E+02  0.27620840597E+02  0.00000000000E+00 0.  1.
</event>
<event>
 7    1  0.5394587E-009  0.4778727E+02  0.7816164E-02  0.1312668E+00
        -11   -1    0    0    0    0  0.00000000000E+00  0.00000000000E+00  0.45593999997E+02  0.45594000000E+02  0.51100000000E-03 0. -1.
         11   -1    0    0    0    0 -0.00000000000E+00 -0.00000000000E+00 -0.45593999997E+02  0.45594000000E+02  0.51100000000E-03 0.  1.
    9900012    2    1    2    0    0 -0.41778674958E-01 -0.29425021475E+02 -0.31902814905E+02  0.47787271514E+02  0.20000002139E+02 0.  0.
         12    1    1    2    0    0  0.41778674958E-01  0.29425021475E+02  0.31902814905E+02  0.43400728486E+02  0.00000000000E+00 0. -1.
         11    1    3    3    0    0  0.41867651025E+01 -0.23181035651E+02 -0.21866698611E+02  0.32140969561E+02  0.51100000000E-03 0. -1.
        -11    1    3    3    0    0 -0.29026224126E+01 -0.73614707081E+01 -0.11085091855E+02  0.13619681698E+02  0.51100000000E-03 0.  1.
         12    1    3    3    0    0 -0.13259213648E+01  0.11174848841E+01  0.10489755607E+01  0.20266202552E+01  0.00000000000E+00 0. -1.
</event>
<event>
 7    1  0.4876728E-009  0.4778727E+02  0.7816164E-02  0.1312668E+00
        -11   -1    0    0    0    0  0.00000000000E+00  0.00000000000E+00  0.45593999997E+02  0.45594000000E+02  0.51100000000E-03 0. -1.
         11   -1    0    0    0    0 -0.00000000000E+00 -0.00000000000E+00 -0.45593999997E+02  0.45594000000E+02  0.51100000000E-03 0.  1.
    9900012    2    1    2    0    0 -0.18563942886E+01  0.55602258737E+01 -0.43003034168E+02  0.47787271213E+02  0.20000000770E+02 0.  0.
         12    1    1    2    0    0  0.18563942886E+01 -0.55602258737E+01  0.43003034168E+02  0.43400728787E+02  0.00000000000E+00 0. -1.
         11    1    3    3    0    0  0.22615236435E+01 -0.52230634556E+01 -0.81103934070E+01  0.99082471976E+01  0.51100000000E-03 0. -1.
        -11    1    3    3    0    0 -0.17941926884E+01  0.10972091372E+02 -0.33160428199E+02  0.34974560971E+02  0.51100000000E-03 0.  1.
        -12    1    3    3    0    0 -0.23237252437E+01 -0.18880204301E+00 -0.17322125624E+01  0.29044630452E+01  0.00000000000E+00 0.  1.
</event>
<event>
 7    1  0.5943278E-009  0.4778727E+02  0.7816164E-02  0.1312668E+00
        -11   -1    0    0    0    0  0.00000000000E+00  0.00000000000E+00  0.45593999997E+02  0.45594000000E+02  0.51100000000E-03 0. -1.
         11   -1    0    0    0    0 -0.00000000000E+00 -0.00000000000E+00 -0.45593999997E+02  0.45594000000E+02  0.51100000000E-03 0.  1.
    9900012    2    1    2    0    0 -0.24694666150E+02 -0.34424357888E+02 -0.94212677277E+01  0.47787271459E+02  0.20000001890E+02 0.  0.
         12    1    1    2    0    0  0.24694666150E+02  0.34424357888E+02  0.94212677277E+01  0.43400728541E+02  0.00000000000E+00 0. -1.
         11    1    3    3    0    0 -0.82481712772E+00 -0.14719146991E+01  0.35224437487E+01  0.39056966600E+01  0.51100000000E-03 0. -1.
        -11    1    3    3    0    0 -0.20802974672E+02 -0.20910728160E+02 -0.94691068245E+01  0.30978803910E+02  0.51100000000E-03 0.  1.
         12    1    3    3    0    0 -0.30668743508E+01 -0.12041715029E+02 -0.34746046519E+01  0.12902770889E+02  0.00000000000E+00 0. -1.
</event>
<event>
 7    1  0.4876728E-009  0.4778727E+02  0.7816164E-02  0.1312668E+00
        -11   -1    0    0    0    0  0.00000000000E+00  0.00000000000E+00  0.45593999997E+02  0.45594000000E+02  0.51100000000E-03 0.  1.
         11   -1    0    0    0    0 -0.00000000000E+00 -0.00000000000E+00 -0.45593999997E+02  0.45594000000E+02  0.51100000000E-03 0. -1.
    9900012    2    1    2    0    0  0.19924339360E+02  0.38205014367E+02 -0.51981846694E+01  0.47787267914E+02  0.19999985726E+02 0.  0.
         12    1    1    2    0    0 -0.19924339360E+02 -0.38205014367E+02  0.51981846694E+01  0.43400732086E+02  0.00000000000E+00 0. -1.
         11    1    3    3    0    0  0.37185484886E+01 -0.63268288504E+00 -0.38908861104E+01  0.54191222057E+01  0.51100000000E-03 0. -1.
        -11    1    3    3    0    0  0.12023669429E+02  0.22826225947E+02 -0.78209059577E+00  0.25811177491E+02  0.51100000000E-03 0.  1.
         12    1    3    3    0    0  0.41821214427E+01  0.16011471306E+02 -0.52520796324E+00  0.16556968217E+02  0.00000000000E+00 0. -1.
</event>
<event>
 7    1  0.4876728E-009  0.4778727E+02  0.7816164E-02  0.1312668E+00
        -11   -1    0    0    0    0  0.00000000000E+00  0.00000000000E+00  0.45593999997E+02  0.45594000000E+02  0.51100000000E-03 0. -1.
         11   -1    0    0    0    0 -0.00000000000E+00 -0.00000000000E+00 -0.45593999997E+02  0.45594000000E+02  0.51100000000E-03 0.  1.
    9900012    2    1    2    0    0  0.19917702724E+02  0.12070661596E+02 -0.36622500444E+02  0.47787270836E+02  0.19999999050E+02 0.  0.
         12    1    1    2    0    0 -0.19917702724E+02 -0.12070661596E+02  0.36622500444E+02  0.43400729164E+02  0.00000000000E+00 0. -1.
         11    1    3    3    0    0 -0.36509352399E+00  0.13735623341E+01  0.98700784490E-01  0.14246785156E+01  0.51100000000E-03 0. -1.
        -11    1    3    3    0    0  0.87072663999E+01  0.71739869750E+01 -0.48656129546E+01  0.12286446474E+02  0.51100000000E-03 0.  1.
        -12    1    3    3    0    0  0.11575529848E+02  0.35231122867E+01 -0.31855588274E+02  0.34076145846E+02  0.00000000000E+00 0.  1.
</event>
<event>
 7    1  0.4876728E-009  0.4778728E+02  0.7816164E-02  0.1312668E+00
        -11   -1    0    0    0    0  0.00000000000E+00  0.00000000000E+00  0.45593999997E+02  0.45594000000E+02  0.51100000000E-03 0.  1.
         11   -1    0    0    0    0 -0.00000000000E+00 -0.00000000000E+00 -0.45593999997E+02  0.45594000000E+02  0.51100000000E-03 0. -1.
    9900012    2    1    2    0    0  0.25652058240E+02  0.31277663983E+02  0.15725851225E+02  0.47787277046E+02  0.20000027363E+02 0.  0.
         12    1    1    2    0    0 -0.25652058240E+02 -0.31277663983E+02 -0.15725851225E+02  0.43400722954E+02  0.00000000000E+00 0. -1.
         11    1    3    3    0    0  0.75894409631E+01  0.15700483090E+01  0.93966431206E+01  0.12180376350E+02  0.51100000000E-03 0. -1.
        -11    1    3    3    0    0  0.15582828125E+02  0.26274405142E+02  0.41024436041E+01  0.30822052847E+02  0.51100000000E-03 0.  1.
         12    1    3    3    0    0  0.24797891519E+01  0.34332105320E+01  0.22267645007E+01  0.47848478488E+01  0.00000000000E+00 0. -1.
</event>
<event>
 7    1  0.4876728E-009  0.4778727E+02  0.7816164E-02  0.1312668E+00
        -11   -1    0    0    0    0  0.00000000000E+00  0.00000000000E+00  0.45593999997E+02  0.45594000000E+02  0.51100000000E-03 0.  1.
         11   -1    0    0    0    0 -0.00000000000E+00 -0.00000000000E+00 -0.45593999997E+02  0.45594000000E+02  0.51100000000E-03 0. -1.
    9900012    2    1    2    0    0 -0.40437881726E+02  0.74309368871E+01  0.13898991102E+02  0.47787273564E+02  0.20000011487E+02 0.  0.
         12    1    1    2    0    0  0.40437881726E+02 -0.74309368871E+01 -0.13898991102E+02  0.43400726436E+02  0.00000000000E+00 0. -1.
         11    1    3    3    0    0 -0.90925345520E+01 -0.17612671033E+01 -0.26967158750E+01  0.96461662416E+01  0.51100000000E-03 0. -1.
        -11    1    3    3    0    0 -0.21187084636E+02  0.35712102710E+01  0.15472349581E+02  0.26477154303E+02  0.51100000000E-03 0.  1.
        -12    1    3    3    0    0 -0.10158262539E+02  0.56209937194E+01  0.11233573962E+01  0.11663953019E+02  0.00000000000E+00 0.  1.
</event>
<event>
 7    1  0.4876728E-009  0.4778727E+02  0.7816164E-02  0.1312668E+00
        -11   -1    0    0    0    0  0.00000000000E+00  0.00000000000E+00  0.45593999997E+02  0.45594000000E+02  0.51100000000E-03 0.  1.
         11   -1    0    0    0    0 -0.00000000000E+00 -0.00000000000E+00 -0.45593999997E+02  0.45594000000E+02  0.51100000000E-03 0. -1.
    9900012    2    1    2    0    0  0.13013815653E+02 -0.38102077305E+02  0.16201708469E+02  0.47787273623E+02  0.20000011755E+02 0.  0.
         12    1    1    2    0    0 -0.13013815653E+02  0.38102077305E+02 -0.16201708469E+02  0.43400726377E+02  0.00000000000E+00 0. -1.
         11    1    3    3    0    0  0.65176640586E+01 -0.30833806100E+01  0.47317474570E+01  0.86241877893E+01  0.51100000000E-03 0. -1.
        -11    1    3    3    0    0  0.46432784655E+01 -0.34411340977E+02  0.87364457211E+01  0.35805389355E+02  0.51100000000E-03 0.  1.
        -12    1    3    3    0    0  0.18528731288E+01 -0.60735571748E+00  0.27335152904E+01  0.33576964785E+01  0.00000000000E+00 0.  1.
</event>
<event>
 7    1  0.4876728E-009  0.4778727E+02  0.7816164E-02  0.1312668E+00
        -11   -1    0    0    0    0  0.00000000000E+00  0.00000000000E+00  0.45593999997E+02  0.45594000000E+02  0.51100000000E-03 0.  1.
         11   -1    0    0    0    0 -0.00000000000E+00 -0.00000000000E+00 -0.45593999997E+02  0.45594000000E+02  0.51100000000E-03 0. -1.
    9900012    2    1    2    0    0 -0.11716982784E+02 -0.39601562867E+02  0.13343615920E+02  0.47787267830E+02  0.19999985346E+02 0.  0.
         12    1    1    2    0    0  0.11716982784E+02  0.39601562867E+02 -0.13343615920E+02  0.43400732170E+02  0.00000000000E+00 0. -1.
         11    1    3    3    0    0  0.96192574546E+00 -0.15453417004E+01 -0.22144552671E+01  0.28665649307E+01  0.51100000000E-03 0. -1.
        -11    1    3    3    0    0 -0.12958083982E+01  0.14078617902E+00  0.27716867778E+01  0.30628725094E+01  0.51100000000E-03 0.  1.
        -12    1    3    3    0    0 -0.11383100131E+02 -0.38197007345E+02  0.12786384410E+02  0.41857830390E+02  0.00000000000E+00 0.  1.
</event>
<event>
 7    1  0.4876728E-009  0.4778727E+02  0.7816164E-02  0.1312668E+00
        -11   -1    0    0    0    0  0.00000000000E+00  0.00000000000E+00  0.45593999997E+02  0.45594000000E+02  0.51100000000E-03 0.  1.
         11   -1    0    0    0    0 -0.00000000000E+00 -0.00000000000E+00 -0.45593999997E+02  0.45594000000E+02  0.51100000000E-03 0. -1.
    9900012    2    1    2    0    0 -0.35836204233E+02 -0.18977032377E+01  0.24408777514E+02  0.47787271537E+02  0.20000002245E+02 0.  0.
         12    1    1    2    0    0  0.35836204233E+02  0.18977032377E+01 -0.24408777514E+02  0.43400728463E+02  0.00000000000E+00 0. -1.
         11    1    3    3    0    0 -0.19515106253E+01  0.15267401743E+01  0.93426108117E+01  0.96655939455E+01  0.51100000000E-03 0. -1.
        -11    1    3    3    0    0 -0.26473966122E+02 -0.42692263284E+01  0.14864468974E+02  0.30660228534E+02  0.51100000000E-03 0.  1.
         12    1    3    3    0    0 -0.74107274864E+01  0.84478291646E+00  0.20169772827E+00  0.74614490568E+01  0.00000000000E+00 0. -1.
</event>
<event>
 7    1  0.4876728E-009  0.4778727E+02  0.7816164E-02  0.1312668E+00
        -11   -1    0    0    0    0  0.00000000000E+00  0.00000000000E+00  0.45593999997E+02  0.45594000000E+02  0.51100000000E-03 0.  1.
         11   -1    0    0    0    0 -0.00000000000E+00 -0.00000000000E+00 -0.45593999997E+02  0.45594000000E+02  0.51100000000E-03 0. -1.
    9900012    2    1    2    0    0  0.33685660513E+02 -0.12979836764E+02  0.24091972110E+02  0.47787274122E+02  0.20000014030E+02 0.  0.
         12    1    1    2    0    0 -0.33685660513E+02  0.12979836764E+02 -0.24091972110E+02  0.43400725878E+02  0.00000000000E+00 0. -1.
         11    1    3    3    0    0  0.11982124125E+02 -0.68629319747E+01  0.14031250861E+01  0.13879477444E+02  0.51100000000E-03 0. -1.
        -11    1    3    3    0    0  0.21939047213E+02 -0.52803650075E+01  0.23597563511E+02  0.32650406600E+02  0.51100000000E-03 0.  1.
        -12    1    3    3    0    0 -0.23551082474E+00 -0.83653978153E+00 -0.90871648715E+00  0.12573900782E+01  0.00000000000E+00 0.  1.
</event>
<event>
 7    1  0.4876728E-009  0.4778728E+02  0.7816164E-02  0.1312668E+00
        -11   -1    0    0    0    0  0.00000000000E+00  0.00000000000E+00  0.45593999997E+02  0.45594000000E+02  0.51100000000E-03 0.  1.
         11   -1    0    0    0    0 -0.00000000000E+00 -0.00000000000E+00 -0.45593999997E+02  0.45594000000E+02  0.51100000000E-03 0. -1.
    9900012    2    1    2    0    0 -0.26537068332E+02  0.15390221706E+02  0.30700942171E+02  0.47787276849E+02  0.20000026467E+02 0.  0.
         12    1    1    2    0    0  0.26537068332E+02 -0.15390221706E+02 -0.30700942171E+02  0.43400723151E+02  0.00000000000E+00 0. -1.
         11    1    3    3    0    0  0.44942113771E+00 -0.24823397959E+01  0.22680124285E+01  0.33923252878E+01  0.51100000000E-03 0. -1.
        -11    1    3    3    0    0 -0.21267630607E+02  0.83686796559E+01  0.17158092724E+02  0.28578786836E+02  0.51100000000E-03 0.  1.
         12    1    3    3    0    0 -0.57188588624E+01  0.95038818460E+01  0.11274837019E+02  0.15816164726E+02  0.00000000000E+00 0. -1.
</event>
<event>
 7    1  0.4876728E-009  0.4778727E+02  0.7816164E-02  0.1312668E+00
        -11   -1    0    0    0    0  0.00000000000E+00  0.00000000000E+00  0.45593999997E+02  0.45594000000E+02  0.51100000000E-03 0.  1.
         11   -1    0    0    0    0 -0.00000000000E+00 -0.00000000000E+00 -0.45593999997E+02  0.45594000000E+02  0.51100000000E-03 0. -1.
    9900012    2    1    2    0    0  0.29698442319E+02  0.26045582331E+02  0.17979251906E+02  0.47787270349E+02  0.19999996827E+02 0.  0.
         12    1    1    2    0    0 -0.29698442319E+02 -0.26045582331E+02 -0.17979251906E+02  0.43400729651E+02  0.00000000000E+00 0. -1.
         11    1    3    3    0    0  0.16943582633E+02  0.30100072312E+01  0.11154461055E+02  0.20507733606E+02  0.51100000000E-03 0. -1.
        -11    1    3    3    0    0  0.63452111842E+01  0.96731020271E+01  0.24244455601E+01  0.11819836900E+02  0.51100000000E-03 0.  1.
         12    1    3    3    0    0  0.64096485022E+01  0.13362473073E+02  0.44003452912E+01  0.15459699843E+02  0.00000000000E+00 0. -1.
</event>
<event>
 7    1  0.4876728E-009  0.4778724E+02  0.7816164E-02  0.1312668E+00
        -11   -1    0    0    0    0  0.00000000000E+00  0.00000000000E+00  0.45593999997E+02  0.45594000000E+02  0.51100000000E-03 0.  1.
         11   -1    0    0    0    0 -0.00000000000E+00 -0.00000000000E+00 -0.45593999997E+02  0.45594000000E+02  0.51100000000E-03 0. -1.
    9900012    2    1    2    0    0 -0.23231342307E+02  0.32182472021E+02  0.17556168642E+02  0.47787241618E+02  0.19999865833E+02 0.  0.
         12    1    1    2    0    0  0.23231342307E+02 -0.32182472021E+02 -0.17556168642E+02  0.43400758382E+02  0.00000000000E+00 0. -1.
         11    1    3    3    0    0  0.49483721305E+00  0.12932603769E+02  0.51044475665E+01  0.13912314305E+02  0.51100000000E-03 0. -1.
        -11    1    3    3    0    0 -0.27052853404E+01  0.59860004925E+01  0.35955052966E+01  0.74885532159E+01  0.51100000000E-03 0.  1.
         12    1    3    3    0    0 -0.21020894180E+02  0.13263867759E+02  0.88562157787E+01  0.26386374097E+02  0.00000000000E+00 0. -1.
</event>
<event>
 7    1  0.4876728E-009  0.4778728E+02  0.7816164E-02  0.1312668E+00
        -11   -1    0    0    0    0  0.00000000000E+00  0.00000000000E+00  0.45593999997E+02  0.45594000000E+02  0.51100000000E-03 0.  1.
         11   -1    0    0    0    0 -0.00000000000E+00 -0.00000000000E+00 -0.45593999997E+02  0.45594000000E+02  0.51100000000E-03 0. -1.
    9900012    2    1    2    0    0  0.40080076469E+02 -0.12288442929E+02  0.11234078017E+02  0.47787275717E+02  0.20000021305E+02 0.  0.
         12    1    1    2    0    0 -0.40080076469E+02  0.12288442929E+02 -0.11234078017E+02  0.43400724283E+02  0.00000000000E+00 0. -1.
         11    1    3    3    0    0  0.17184962863E+02 -0.61087182928E+01  0.12603675316E+02  0.22169619291E+02  0.51100000000E-03 0. -1.
        -11    1    3    3    0    0  0.91288756132E+01 -0.13222653131E+01 -0.51140903101E+01  0.10546974707E+02  0.51100000000E-03 0.  1.
        -12    1    3    3    0    0  0.13766237993E+02 -0.48574593228E+01  0.37444930103E+01  0.15070681719E+02  0.00000000000E+00 0.  1.
</event>
<event>
 7    1  0.4876728E-009  0.4778727E+02  0.7816164E-02  0.1312668E+00
        -11   -1    0    0    0    0  0.00000000000E+00  0.00000000000E+00  0.45593999997E+02  0.45594000000E+02  0.51100000000E-03 0.  1.
         11   -1    0    0    0    0 -0.00000000000E+00 -0.00000000000E+00 -0.45593999997E+02  0.45594000000E+02  0.51100000000E-03 0. -1.
    9900012    2    1    2    0    0 -0.30171082663E+02  0.23101698685E+02  0.20967609968E+02  0.47787269834E+02  0.19999994480E+02 0.  0.
         12    1    1    2    0    0  0.30171082663E+02 -0.23101698685E+02 -0.20967609968E+02  0.43400730166E+02  0.00000000000E+00 0. -1.
         11    1    3    3    0    0 -0.19126966328E+02  0.21871201563E+01  0.93620854990E+01  0.21407311383E+02  0.51100000000E-03 0. -1.
        -11    1    3    3    0    0 -0.60869909019E+01  0.11891117832E+02  0.72726926134E+01  0.15209937529E+02  0.51100000000E-03 0.  1.
         12    1    3    3    0    0 -0.49571254332E+01  0.90234606969E+01  0.43328318553E+01  0.11170020922E+02  0.00000000000E+00 0. -1.
</event>
<event>
 7    1  0.4876728E-009  0.4778726E+02  0.7816164E-02  0.1312668E+00
        -11   -1    0    0    0    0  0.00000000000E+00  0.00000000000E+00  0.45593999997E+02  0.45594000000E+02  0.51100000000E-03 0.  1.
         11   -1    0    0    0    0 -0.00000000000E+00 -0.00000000000E+00 -0.45593999997E+02  0.45594000000E+02  0.51100000000E-03 0. -1.
    9900012    2    1    2    0    0 -0.64112516054E+01 -0.98219260680E+01  0.41785756837E+02  0.47787264369E+02  0.19999969566E+02 0.  0.
         12    1    1    2    0    0  0.64112516054E+01  0.98219260680E+01 -0.41785756837E+02  0.43400735631E+02  0.00000000000E+00 0. -1.
         11    1    3    3    0    0 -0.10034131760E+02  0.10453745596E+01  0.12221159036E+02  0.15847187024E+02  0.51100000000E-03 0. -1.
        -11    1    3    3    0    0  0.38667165897E+01 -0.91565106505E+01  0.21414214656E+02  0.23608510628E+02  0.51100000000E-03 0.  1.
         12    1    3    3    0    0 -0.24383643550E+00 -0.17107899770E+01  0.81503831455E+01  0.83315667176E+01  0.00000000000E+00 0. -1.
</event>
<event>
 7    1  0.4876728E-009  0.4778727E+02  0.7816164E-02  0.1312668E+00
        -11   -1    0    0    0    0  0.00000000000E+00  0.00000000000E+00  0.45593999997E+02  0.45594000000E+02  0.51100000000E-03 0.  1.
         11   -1    0    0    0    0 -0.00000000000E+00 -0.00000000000E+00 -0.45593999997E+02  0.45594000000E+02  0.51100000000E-03 0. -1.
    9900012    2    1    2    0    0  0.38802738241E+02 -0.14766058449E+02  0.12646500159E+02  0.47787274851E+02  0.20000017358E+02 0.  0.
         12    1    1    2    0    0 -0.38802738241E+02  0.14766058449E+02 -0.12646500159E+02  0.43400725149E+02  0.00000000000E+00 0. -1.
         11    1    3    3    0    0  0.57599814258E+01 -0.99130381465E+01  0.23249630642E+01  0.11698340260E+02  0.51100000000E-03 0. -1.
        -11    1    3    3    0    0  0.97961037848E+01 -0.17266044839E+01  0.75127804259E+01  0.12465419463E+02  0.51100000000E-03 0.  1.
         12    1    3    3    0    0  0.23246653031E+02 -0.31264158187E+01  0.28087566692E+01  0.23623515129E+02  0.00000000000E+00 0. -1.
</event>
<event>
 7    1  0.4876728E-009  0.4778727E+02  0.7816164E-02  0.1312668E+00
        -11   -1    0    0    0    0  0.00000000000E+00  0.00000000000E+00  0.45593999997E+02  0.45594000000E+02  0.51100000000E-03 0.  1.
         11   -1    0    0    0    0 -0.00000000000E+00 -0.00000000000E+00 -0.45593999997E+02  0.45594000000E+02  0.51100000000E-03 0. -1.
    9900012    2    1    2    0    0  0.36377753772E+01  0.27390052233E+02  0.33469012601E+02  0.47787272178E+02  0.20000005169E+02 0.  0.
         12    1    1    2    0    0 -0.36377753772E+01 -0.27390052233E+02 -0.33469012601E+02  0.43400727822E+02  0.00000000000E+00 0. -1.
         11    1    3    3    0    0  0.72906858928E+00  0.11885118721E+00 -0.21833634173E+01  0.23049387596E+01  0.51100000000E-03 0. -1.
        -11    1    3    3    0    0 -0.16393047366E+01  0.91981985284E+01  0.14929074361E+02  0.17611684693E+02  0.51100000000E-03 0.  1.
         12    1    3    3    0    0  0.45480115245E+01  0.18073002517E+02  0.20723301657E+02  0.27870648726E+02  0.00000000000E+00 0. -1.
</event>
<event>
 7    1  0.4876728E-009  0.4778727E+02  0.7816164E-02  0.1312668E+00
        -11   -1    0    0    0    0  0.00000000000E+00  0.00000000000E+00  0.45593999997E+02  0.45594000000E+02  0.51100000000E-03 0.  1.
         11   -1    0    0    0    0 -0.00000000000E+00 -0.00000000000E+00 -0.45593999997E+02  0.45594000000E+02  0.51100000000E-03 0. -1.
    9900012    2    1    2    0    0  0.34449014920E+02  0.69917548778E+01  0.25455922609E+02  0.47787271191E+02  0.20000000669E+02 0.  0.
         12    1    1    2    0    0 -0.34449014920E+02 -0.69917548778E+01 -0.25455922609E+02  0.43400728809E+02  0.00000000000E+00 0. -1.
         11    1    3    3    0    0 -0.74944009493E+00  0.10878390159E+01 -0.15540135181E+01  0.20396108590E+01  0.51100000000E-03 0. -1.
        -11    1    3    3    0    0  0.26198370215E+02  0.22845114604E+01  0.23967621425E+02  0.35581181424E+02  0.51100000000E-03 0.  1.
        -12    1    3    3    0    0  0.90000848000E+01  0.36194044015E+01  0.30423147029E+01  0.10166478908E+02  0.00000000000E+00 0.  1.
</event>
<event>
 7    1  0.4876728E-009  0.4778727E+02  0.7816164E-02  0.1312668E+00
        -11   -1    0    0    0    0  0.00000000000E+00  0.00000000000E+00  0.45593999997E+02  0.45594000000E+02  0.51100000000E-03 0.  1.
         11   -1    0    0    0    0 -0.00000000000E+00 -0.00000000000E+00 -0.45593999997E+02  0.45594000000E+02  0.51100000000E-03 0. -1.
    9900012    2    1    2    0    0 -0.17097267603E+02  0.55742793718E+01  0.39499798954E+02  0.47787271119E+02  0.20000000340E+02 0.  0.
         12    1    1    2    0    0  0.17097267603E+02 -0.55742793718E+01 -0.39499798954E+02  0.43400728881E+02  0.00000000000E+00 0. -1.
         11    1    3    3    0    0 -0.60323883743E+01  0.66733027149E+01  0.14969963436E+02  0.17464892905E+02  0.51100000000E-03 0. -1.
        -11    1    3    3    0    0  0.18897038995E+01 -0.39893058007E+01  0.78489728073E+01  0.90051049961E+01  0.51100000000E-03 0.  1.
        -12    1    3    3    0    0 -0.12954583128E+02  0.28902824577E+01  0.16680862710E+02  0.21317273218E+02  0.00000000000E+00 0.  1.
</event>
<event>
 7    1  0.4876728E-009  0.4778727E+02  0.7816164E-02  0.1312668E+00
        -11   -1    0    0    0    0  0.00000000000E+00  0.00000000000E+00  0.45593999997E+02  0.45594000000E+02  0.51100000000E-03 0.  1.
         11   -1    0    0    0    0 -0.00000000000E+00 -0.00000000000E+00 -0.45593999997E+02  0.45594000000E+02  0.51100000000E-03 0. -1.
    9900012    2    1    2    0    0  0.20463592996E+01  0.11110195734E+02  0.41904644435E+02  0.47787271194E+02  0.20000000683E+02 0.  0.
         12    1    1    2    0    0 -0.20463592996E+01 -0.11110195734E+02 -0.41904644435E+02  0.43400728806E+02  0.00000000000E+00 0. -1.
         11    1    3    3    0    0  0.54241330531E+01  0.37998006579E+01  0.13473678930E+02  0.15013318374E+02  0.51100000000E-03 0. -1.
        -11    1    3    3    0    0 -0.64460816801E+01  0.33891884178E+01  0.50343830117E+01  0.88534501596E+01  0.51100000000E-03 0.  1.
        -12    1    3    3    0    0  0.30683079267E+01  0.39212066587E+01  0.23396582493E+02  0.23920502661E+02  0.00000000000E+00 0.  1.
</event>
<event>
 7    1  0.4876728E-009  0.4778729E+02  0.7816164E-02  0.1312668E+00
        -11   -1    0    0    0    0  0.00000000000E+00  0.00000000000E+00  0.45593999997E+02  0.45594000000E+02  0.51100000000E-03 0.  1.
         11   -1    0    0    0    0 -0.00000000000E+00 -0.00000000000E+00 -0.45593999997E+02  0.45594000000E+02  0.51100000000E-03 0. -1.
    9900012    2    1    2    0    0  0.59314722997E+01 -0.71818456249E+01  0.42389391620E+02  0.47787288115E+02  0.20000077832E+02 0.  0.
         12    1    1    2    0    0 -0.59314722997E+01  0.71818456249E+01 -0.42389391620E+02  0.43400711885E+02  0.00000000000E+00 0. -1.
         11    1    3    3    0    0  0.95536213565E+00 -0.38929194269E+01  0.99997199954E+00  0.41312810042E+01  0.51100000000E-03 0. -1.
        -11    1    3    3    0    0 -0.47416858152E+00 -0.57802818191E+01  0.89302510677E+01  0.10648280525E+02  0.51100000000E-03 0.  1.
        -12    1    3    3    0    0  0.54502787456E+01  0.24913556210E+01  0.32459168552E+02  0.33007726586E+02  0.00000000000E+00 0.  1.
</event>
<event>
 7    1  0.4876728E-009  0.4778727E+02  0.7816164E-02  0.1312668E+00
        -11   -1    0    0    0    0  0.00000000000E+00  0.00000000000E+00  0.45593999997E+02  0.45594000000E+02  0.51100000000E-03 0.  1.
         11   -1    0    0    0    0 -0.00000000000E+00 -0.00000000000E+00 -0.45593999997E+02  0.45594000000E+02  0.51100000000E-03 0. -1.
    9900012    2    1    2    0    0 -0.36556082550E+02  0.43585747178E+01  0.22984327043E+02  0.47787266889E+02  0.19999981055E+02 0.  0.
         12    1    1    2    0    0  0.36556082550E+02 -0.43585747178E+01 -0.22984327043E+02  0.43400733111E+02  0.00000000000E+00 0. -1.
         11    1    3    3    0    0 -0.18885212748E+02 -0.59135454843E+01  0.12628166506E+02  0.23475346010E+02  0.51100000000E-03 0.  1.
        -11    1    3    3    0    0 -0.97913454406E+01  0.80518860728E+01  0.24113380846E+01  0.12904180194E+02  0.51100000000E-03 0. -1.
        -12    1    3    3    0    0 -0.78795243609E+01  0.22202341293E+01  0.79448224516E+01  0.11407740685E+02  0.00000000000E+00 0.  1.
</event>
<event>
 7    1  0.4876728E-009  0.4778727E+02  0.7816164E-02  0.1312668E+00
        -11   -1    0    0    0    0  0.00000000000E+00  0.00000000000E+00  0.45593999997E+02  0.45594000000E+02  0.51100000000E-03 0. -1.
         11   -1    0    0    0    0 -0.00000000000E+00 -0.00000000000E+00 -0.45593999997E+02  0.45594000000E+02  0.51100000000E-03 0.  1.
    9900012    2    1    2    0    0 -0.31752278963E+02  0.17803240363E+02 -0.23631774764E+02  0.47787269992E+02  0.19999995202E+02 0.  0.
         12    1    1    2    0    0  0.31752278963E+02 -0.17803240363E+02  0.23631774764E+02  0.43400730008E+02  0.00000000000E+00 0. -1.
         11    1    3    3    0    0  0.14545096963E+01  0.30523609997E+01 -0.21073086559E+01  0.39841255202E+01  0.51100000000E-03 0. -1.
        -11    1    3    3    0    0 -0.26783140568E+01  0.27715597812E+00 -0.60902859616E+01  0.66589612537E+01  0.51100000000E-03 0.  1.
        -12    1    3    3    0    0 -0.30528474602E+02  0.14473723385E+02 -0.15434180146E+02  0.37144183218E+02  0.00000000000E+00 0.  1.
</event>
<event>
 7    1  0.4876728E-009  0.4778727E+02  0.7816164E-02  0.1312668E+00
        -11   -1    0    0    0    0  0.00000000000E+00  0.00000000000E+00  0.45593999997E+02  0.45594000000E+02  0.51100000000E-03 0. -1.
         11   -1    0    0    0    0 -0.00000000000E+00 -0.00000000000E+00 -0.45593999997E+02  0.45594000000E+02  0.51100000000E-03 0.  1.
    9900012    2    1    2    0    0 -0.42774999471E+02 -0.61177335784E+01 -0.40615461290E+01  0.47787269582E+02  0.19999993330E+02 0.  0.
         12    1    1    2    0    0  0.42774999471E+02  0.61177335784E+01  0.40615461290E+01  0.43400730418E+02  0.00000000000E+00 0. -1.
         11    1    3    3    0    0 -0.51523766013E+01  0.26973874871E+01  0.41550936866E+00  0.58305687710E+01  0.51100000000E-03 0. -1.
        -11    1    3    3    0    0 -0.13874818209E+02  0.12502240542E+01 -0.77751298651E+01  0.15953879941E+02  0.51100000000E-03 0.  1.
        -12    1    3    3    0    0 -0.23747804661E+02 -0.10065345120E+02  0.32980743675E+01  0.26002820869E+02  0.00000000000E+00 0.  1.
</event>
<event>
 7    1  0.4876728E-009  0.4778727E+02  0.7816164E-02  0.1312668E+00
        -11   -1    0    0    0    0  0.00000000000E+00  0.00000000000E+00  0.45593999997E+02  0.45594000000E+02  0.51100000000E-03 0.  1.
         11   -1    0    0    0    0 -0.00000000000E+00 -0.00000000000E+00 -0.45593999997E+02  0.45594000000E+02  0.51100000000E-03 0. -1.
    9900012    2    1    2    0    0 -0.81247779578E+01 -0.15329837888E+02  0.39781997623E+02  0.47787270958E+02  0.19999999605E+02 0.  0.
         12    1    1    2    0    0  0.81247779578E+01  0.15329837888E+02 -0.39781997623E+02  0.43400729042E+02  0.00000000000E+00 0. -1.
         11    1    3    3    0    0 -0.15918475034E+01 -0.20621878920E+01  0.25042298073E+00  0.26171185121E+01  0.51100000000E-03 0. -1.
        -11    1    3    3    0    0 -0.11459301735E+02 -0.12055856385E+02  0.27925795363E+02  0.32503989237E+02  0.51100000000E-03 0.  1.
        -12    1    3    3    0    0  0.49263712805E+01 -0.12117936112E+01  0.11605779279E+02  0.12666163209E+02  0.00000000000E+00 0.  1.
</event>
<event>
 7    1  0.4876728E-009  0.4778727E+02  0.7816164E-02  0.1312668E+00
        -11   -1    0    0    0    0  0.00000000000E+00  0.00000000000E+00  0.45593999997E+02  0.45594000000E+02  0.51100000000E-03 0.  1.
         11   -1    0    0    0    0 -0.00000000000E+00 -0.00000000000E+00 -0.45593999997E+02  0.45594000000E+02  0.51100000000E-03 0. -1.
    9900012    2    1    2    0    0 -0.22215089455E+02 -0.35523639789E+02  0.11321845000E+02  0.47787270080E+02  0.19999995604E+02 0.  0.
         12    1    1    2    0    0  0.22215089455E+02  0.35523639789E+02 -0.11321845000E+02  0.43400729920E+02  0.00000000000E+00 0. -1.
         11    1    3    3    0    0  0.27494762773E+01 -0.42322064177E+01  0.16678111824E+01  0.53153349249E+01  0.51100000000E-03 0. -1.
        -11    1    3    3    0    0 -0.19808658432E+02 -0.16795089829E+02  0.63444148106E+01  0.26734053019E+02  0.51100000000E-03 0.  1.
        -12    1    3    3    0    0 -0.51559073005E+01 -0.14496343542E+02  0.33096190069E+01  0.15737882137E+02  0.00000000000E+00 0.  1.
</event>
<event>
 7    1  0.4876728E-009  0.4778728E+02  0.7816164E-02  0.1312668E+00
        -11   -1    0    0    0    0  0.00000000000E+00  0.00000000000E+00  0.45593999997E+02  0.45594000000E+02  0.51100000000E-03 0.  1.
         11   -1    0    0    0    0 -0.00000000000E+00 -0.00000000000E+00 -0.45593999997E+02  0.45594000000E+02  0.51100000000E-03 0. -1.
    9900012    2    1    2    0    0 -0.15036686103E+02 -0.29383964184E+02  0.28179838430E+02  0.47787279107E+02  0.20000036758E+02 0.  0.
         12    1    1    2    0    0  0.15036686103E+02  0.29383964184E+02 -0.28179838430E+02  0.43400720893E+02  0.00000000000E+00 0. -1.
         11    1    3    3    0    0 -0.10501113816E+01 -0.20087160228E+02  0.19167017676E+02  0.27784371629E+02  0.51100000000E-03 0. -1.
        -11    1    3    3    0    0 -0.11254741408E+02 -0.67261571501E+01  0.95400317784E+01  0.16214888244E+02  0.51100000000E-03 0.  1.
         12    1    3    3    0    0 -0.27318333136E+01 -0.25706468056E+01 -0.52721102429E+00  0.37880192340E+01  0.00000000000E+00 0. -1.
</event>
<event>
 7    1  0.4876728E-009  0.4778727E+02  0.7816164E-02  0.1312668E+00
        -11   -1    0    0    0    0  0.00000000000E+00  0.00000000000E+00  0.45593999997E+02  0.45594000000E+02  0.51100000000E-03 0.  1.
         11   -1    0    0    0    0 -0.00000000000E+00 -0.00000000000E+00 -0.45593999997E+02  0.45594000000E+02  0.51100000000E-03 0. -1.
    9900012    2    1    2    0    0  0.20316120277E+02 -0.38350521673E+02 -0.34073600753E+00  0.47787270090E+02  0.19999995650E+02 0.  0.
         12    1    1    2    0    0 -0.20316120277E+02  0.38350521673E+02  0.34073600753E+00  0.43400729910E+02  0.00000000000E+00 0. -1.
         11    1    3    3    0    0 -0.78936366336E-01 -0.15095899493E+01 -0.45643994347E+01  0.48082049900E+01  0.51100000000E-03 0. -1.
        -11    1    3    3    0    0  0.20129701952E+02 -0.32000702805E+02  0.27174807182E+01  0.37902962713E+02  0.51100000000E-03 0.  1.
        -12    1    3    3    0    0  0.26535469095E+00 -0.48402289187E+01  0.15061827090E+01  0.50761023876E+01  0.00000000000E+00 0.  1.
</event>
<event>
 7    1  0.4876728E-009  0.4778727E+02  0.7816164E-02  0.1312668E+00
        -11   -1    0    0    0    0  0.00000000000E+00  0.00000000000E+00  0.45593999997E+02  0.45594000000E+02  0.51100000000E-03 0. -1.
         11   -1    0    0    0    0 -0.00000000000E+00 -0.00000000000E+00 -0.45593999997E+02  0.45594000000E+02  0.51100000000E-03 0.  1.
    9900012    2    1    2    0    0  0.79151545918E+01 -0.42074892844E+02 -0.71187695106E+01  0.47787272363E+02  0.20000006012E+02 0.  0.
         12    1    1    2    0    0 -0.79151545918E+01  0.42074892844E+02  0.71187695106E+01  0.43400727637E+02  0.00000000000E+00 0. -1.
         11    1    3    3    0    0  0.26688554265E+01  0.80485208091E+00 -0.15417569876E+01  0.31855283753E+01  0.51100000000E-03 0. -1.
        -11    1    3    3    0    0  0.16216219972E+01 -0.31080612267E+02 -0.16311956898E+00  0.31123314815E+02  0.51100000000E-03 0.  1.
         12    1    3    3    0    0  0.36246771682E+01 -0.11799132658E+02 -0.54138929540E+01  0.13478429173E+02  0.00000000000E+00 0. -1.
</event>
<event>
 7    1  0.4876728E-009  0.4778727E+02  0.7816164E-02  0.1312668E+00
        -11   -1    0    0    0    0  0.00000000000E+00  0.00000000000E+00  0.45593999997E+02  0.45594000000E+02  0.51100000000E-03 0. -1.
         11   -1    0    0    0    0 -0.00000000000E+00 -0.00000000000E+00 -0.45593999997E+02  0.45594000000E+02  0.51100000000E-03 0.  1.
    9900012    2    1    2    0    0 -0.17493991765E+02  0.26635841218E+01 -0.39629392711E+02  0.47787271954E+02  0.20000004147E+02 0.  0.
         12    1    1    2    0    0  0.17493991765E+02 -0.26635841218E+01  0.39629392711E+02  0.43400728046E+02  0.00000000000E+00 0. -1.
         11    1    3    3    0    0 -0.33255562218E+01  0.74530930734E+01 -0.25096803232E+02  0.26390480353E+02  0.51100000000E-03 0. -1.
        -11    1    3    3    0    0 -0.11223599734E+02 -0.26243145907E+01 -0.13155921811E+02  0.17490983306E+02  0.51100000000E-03 0.  1.
         12    1    3    3    0    0 -0.29448358092E+01 -0.21651943609E+01 -0.13766676684E+01  0.39058082944E+01  0.00000000000E+00 0. -1.
</event>
<event>
 7    1  0.4876728E-009  0.4778727E+02  0.7816164E-02  0.1312668E+00
        -11   -1    0    0    0    0  0.00000000000E+00  0.00000000000E+00  0.45593999997E+02  0.45594000000E+02  0.51100000000E-03 0.  1.
         11   -1    0    0    0    0 -0.00000000000E+00 -0.00000000000E+00 -0.45593999997E+02  0.45594000000E+02  0.51100000000E-03 0. -1.
    9900012    2    1    2    0    0 -0.38086087707E+02  0.76015979247E+01  0.19372372961E+02  0.47787271873E+02  0.20000003779E+02 0.  0.
         12    1    1    2    0    0  0.38086087707E+02 -0.76015979247E+01 -0.19372372961E+02  0.43400728127E+02  0.00000000000E+00 0. -1.
         11    1    3    3    0    0 -0.30009479540E+02  0.11075172966E+02  0.21313091377E+02  0.38437952375E+02  0.51100000000E-03 0.  1.
        -11    1    3    3    0    0 -0.74858973188E+01 -0.27231305815E+01 -0.10344011802E+01  0.80326885222E+01  0.51100000000E-03 0. -1.
        -12    1    3    3    0    0 -0.59071084803E+00 -0.75044446019E+00 -0.90631723626E+00  0.13166309759E+01  0.00000000000E+00 0.  1.
</event>
<event>
 7    1  0.4876728E-009  0.4778725E+02  0.7816164E-02  0.1312668E+00
        -11   -1    0    0    0    0  0.00000000000E+00  0.00000000000E+00  0.45593999997E+02  0.45594000000E+02  0.51100000000E-03 0. -1.
         11   -1    0    0    0    0 -0.00000000000E+00 -0.00000000000E+00 -0.45593999997E+02  0.45594000000E+02  0.51100000000E-03 0.  1.
    9900012    2    1    2    0    0 -0.20204646035E+02 -0.21398503546E+02 -0.31898294967E+02  0.47787252343E+02  0.19999914732E+02 0.  0.
         12    1    1    2    0    0  0.20204646035E+02  0.21398503546E+02  0.31898294967E+02  0.43400747657E+02  0.00000000000E+00 0. -1.
         11    1    3    3    0    0 -0.15682218849E+02 -0.20244232865E+02 -0.16712455821E+02  0.30578867411E+02  0.51100000000E-03 0. -1.
        -11    1    3    3    0    0 -0.42370542703E+01 -0.23763660503E+01 -0.50949724135E+01  0.70397790200E+01  0.51100000000E-03 0.  1.
         12    1    3    3    0    0 -0.28537291647E+00  0.12220953693E+01 -0.10090866732E+02  0.10168605912E+02  0.00000000000E+00 0. -1.
</event>
<event>
 7    1  0.4876728E-009  0.4778727E+02  0.7816164E-02  0.1312668E+00
        -11   -1    0    0    0    0  0.00000000000E+00  0.00000000000E+00  0.45593999997E+02  0.45594000000E+02  0.51100000000E-03 0.  1.
         11   -1    0    0    0    0 -0.00000000000E+00 -0.00000000000E+00 -0.45593999997E+02  0.45594000000E+02  0.51100000000E-03 0. -1.
    9900012    2    1    2    0    0  0.20431976535E+02 -0.30212777768E+02  0.23523299871E+02  0.47787271407E+02  0.20000001652E+02 0.  0.
         12    1    1    2    0    0 -0.20431976535E+02  0.30212777768E+02 -0.23523299871E+02  0.43400728593E+02  0.00000000000E+00 0. -1.
         11    1    3    3    0    0  0.19733444572E+01 -0.51367807360E+01 -0.27207009969E+01  0.61386333050E+01  0.51100000000E-03 0. -1.
        -11    1    3    3    0    0  0.14395209212E+02 -0.23721649548E+02  0.24527641544E+02  0.37034361147E+02  0.51100000000E-03 0.  1.
        -12    1    3    3    0    0  0.40634228654E+01 -0.13543474840E+01  0.17163593239E+01  0.46142769552E+01  0.00000000000E+00 0.  1.
</event>
<event>
 7    1  0.4876728E-009  0.4778727E+02  0.7816164E-02  0.1312668E+00
        -11   -1    0    0    0    0  0.00000000000E+00  0.00000000000E+00  0.45593999997E+02  0.45594000000E+02  0.51100000000E-03 0. -1.
         11   -1    0    0    0    0 -0.00000000000E+00 -0.00000000000E+00 -0.45593999997E+02  0.45594000000E+02  0.51100000000E-03 0.  1.
    9900012    2    1    2    0    0 -0.97239000689E+01  0.33615912740E+02 -0.25671767579E+02  0.47787268756E+02  0.19999989566E+02 0.  0.
         12    1    1    2    0    0  0.97239000689E+01 -0.33615912740E+02  0.25671767579E+02  0.43400731244E+02  0.00000000000E+00 0. -1.
         11    1    3    3    0    0 -0.30074026126E+01  0.11280627826E+02 -0.15133549922E+02  0.19113381913E+02  0.51100000000E-03 0.  1.
        -11    1    3    3    0    0 -0.49320190563E+01  0.12202705076E+02  0.10183783799E+01  0.13201057455E+02  0.51100000000E-03 0. -1.
         12    1    3    3    0    0 -0.17844784001E+01  0.10132579838E+02 -0.11556596037E+02  0.15472829388E+02  0.00000000000E+00 0. -1.
</event>
<event>
 7    1  0.4876728E-009  0.4778727E+02  0.7816164E-02  0.1312668E+00
        -11   -1    0    0    0    0  0.00000000000E+00  0.00000000000E+00  0.45593999997E+02  0.45594000000E+02  0.51100000000E-03 0.  1.
         11   -1    0    0    0    0 -0.00000000000E+00 -0.00000000000E+00 -0.45593999997E+02  0.45594000000E+02  0.51100000000E-03 0. -1.
    9900012    2    1    2    0    0  0.26856093613E+02 -0.30762554607E+02 -0.14698259318E+02  0.47787270086E+02  0.19999995631E+02 0.  0.
         12    1    1    2    0    0 -0.26856093613E+02  0.30762554607E+02  0.14698259318E+02  0.43400729914E+02  0.00000000000E+00 0. -1.
         11    1    3    3    0    0  0.17444563478E+02 -0.27729965109E+02 -0.10828939676E+02  0.34504053308E+02  0.51100000000E-03 0. -1.
        -11    1    3    3    0    0  0.70120874224E+01 -0.29958766376E+01  0.11578409889E+01  0.77126676879E+01  0.51100000000E-03 0.  1.
         12    1    3    3    0    0  0.23994427121E+01 -0.36712860107E-01 -0.50271606310E+01  0.55705490907E+01  0.00000000000E+00 0. -1.
</event>
<event>
 7    1  0.4876728E-009  0.4778727E+02  0.7816164E-02  0.1312668E+00
        -11   -1    0    0    0    0  0.00000000000E+00  0.00000000000E+00  0.45593999997E+02  0.45594000000E+02  0.51100000000E-03 0.  1.
         11   -1    0    0    0    0 -0.00000000000E+00 -0.00000000000E+00 -0.45593999997E+02  0.45594000000E+02  0.51100000000E-03 0. -1.
    9900012    2    1    2    0    0 -0.27956784349E+02  0.31836368558E+02  0.94067547814E+01  0.47787272015E+02  0.20000004426E+02 0.  0.
         12    1    1    2    0    0  0.27956784349E+02 -0.31836368558E+02 -0.94067547814E+01  0.43400727985E+02  0.00000000000E+00 0. -1.
         11    1    3    3    0    0  0.26998956208E+01  0.83450447576E+00  0.92159840354E+00  0.29724027254E+01  0.51100000000E-03 0. -1.
        -11    1    3    3    0    0 -0.28121152653E+02  0.28985335812E+02  0.62184028327E+01  0.40860952665E+02  0.51100000000E-03 0.  1.
        -12    1    3    3    0    0 -0.25355273173E+01  0.20165282704E+01  0.22667535451E+01  0.39539166249E+01  0.00000000000E+00 0.  1.
</event>
<event>
 7    1  0.4876728E-009  0.4778727E+02  0.7816164E-02  0.1312668E+00
        -11   -1    0    0    0    0  0.00000000000E+00  0.00000000000E+00  0.45593999997E+02  0.45594000000E+02  0.51100000000E-03 0.  1.
         11   -1    0    0    0    0 -0.00000000000E+00 -0.00000000000E+00 -0.45593999997E+02  0.45594000000E+02  0.51100000000E-03 0. -1.
    9900012    2    1    2    0    0  0.25203333597E+01 -0.22713472186E+02  0.36896746457E+02  0.47787265005E+02  0.19999972463E+02 0.  0.
         12    1    1    2    0    0 -0.25203333597E+01  0.22713472186E+02 -0.36896746457E+02  0.43400734995E+02  0.00000000000E+00 0. -1.
         11    1    3    3    0    0 -0.52404936314E+01 -0.33418553702E+01  0.23922311744E+01  0.66598454238E+01  0.51100000000E-03 0. -1.
        -11    1    3    3    0    0  0.93139315564E+01 -0.18162684745E+02  0.31351638304E+02  0.37410662421E+02  0.51100000000E-03 0.  1.
        -12    1    3    3    0    0 -0.15531045654E+01 -0.12089320713E+01  0.31528769784E+01  0.37167571598E+01  0.00000000000E+00 0.  1.
</event>
<event>
 7    1  0.4876728E-009  0.4778727E+02  0.7816164E-02  0.1312668E+00
        -11   -1    0    0    0    0  0.00000000000E+00  0.00000000000E+00  0.45593999997E+02  0.45594000000E+02  0.51100000000E-03 0.  1.
         11   -1    0    0    0    0 -0.00000000000E+00 -0.00000000000E+00 -0.45593999997E+02  0.45594000000E+02  0.51100000000E-03 0. -1.
    9900012    2    1    2    0    0 -0.25478529485E+02  0.34228498674E+02  0.79295462946E+01  0.47787270851E+02  0.19999999119E+02 0.  0.
         12    1    1    2    0    0  0.25478529485E+02 -0.34228498674E+02 -0.79295462946E+01  0.43400729149E+02  0.00000000000E+00 0. -1.
         11    1    3    3    0    0 -0.18394015856E+02  0.15655190098E+02  0.31601496534E+01  0.24360035764E+02  0.51100000000E-03 0. -1.
        -11    1    3    3    0    0  0.28041760745E+01  0.77022491521E+01  0.24057512594E+01  0.85425806898E+01  0.51100000000E-03 0.  1.
        -12    1    3    3    0    0 -0.98886897036E+01  0.10871059423E+02  0.23636453818E+01  0.14884654398E+02  0.00000000000E+00 0.  1.
</event>
<event>
 7    1  0.4876728E-009  0.4778727E+02  0.7816164E-02  0.1312668E+00
        -11   -1    0    0    0    0  0.00000000000E+00  0.00000000000E+00  0.45593999997E+02  0.45594000000E+02  0.51100000000E-03 0.  1.
         11   -1    0    0    0    0 -0.00000000000E+00 -0.00000000000E+00 -0.45593999997E+02  0.45594000000E+02  0.51100000000E-03 0. -1.
    9900012    2    1    2    0    0 -0.24801864090E+02  0.19903838229E+01  0.35560220814E+02  0.47787269655E+02  0.19999993664E+02 0.  0.
         12    1    1    2    0    0  0.24801864090E+02 -0.19903838229E+01 -0.35560220814E+02  0.43400730345E+02  0.00000000000E+00 0. -1.
         11    1    3    3    0    0 -0.11957916887E+02 -0.17094060100E+01  0.25473335965E+02  0.28192280692E+02  0.51100000000E-03 0. -1.
        -11    1    3    3    0    0 -0.95346922855E+01  0.21787496092E+01  0.10315909571E+01  0.98347082825E+01  0.51100000000E-03 0.  1.
        -12    1    3    3    0    0 -0.33092549180E+01  0.15210402237E+01  0.90552938929E+01  0.97602806804E+01  0.00000000000E+00 0.  1.
</event>
<event>
 7    1  0.4876728E-009  0.4778727E+02  0.7816164E-02  0.1312668E+00
        -11   -1    0    0    0    0  0.00000000000E+00  0.00000000000E+00  0.45593999997E+02  0.45594000000E+02  0.51100000000E-03 0.  1.
         11   -1    0    0    0    0 -0.00000000000E+00 -0.00000000000E+00 -0.45593999997E+02  0.45594000000E+02  0.51100000000E-03 0. -1.
    9900012    2    1    2    0    0  0.28755256826E+02  0.16478565997E+02  0.28021696258E+02  0.47787269665E+02  0.19999993708E+02 0.  0.
         12    1    1    2    0    0 -0.28755256826E+02 -0.16478565997E+02 -0.28021696258E+02  0.43400730335E+02  0.00000000000E+00 0. -1.
         11    1    3    3    0    0  0.22268779303E+02  0.15030151747E+02  0.23811921402E+02  0.35900022205E+02  0.51100000000E-03 0. -1.
        -11    1    3    3    0    0  0.85270588483E+01  0.25015199943E-01  0.39115846500E+01  0.93814632706E+01  0.51100000000E-03 0.  1.
         12    1    3    3    0    0 -0.20405813254E+01  0.14233990503E+01  0.29819020585E+00  0.25057841888E+01  0.00000000000E+00 0. -1.
</event>
<event>
 7    1  0.4876728E-009  0.4778727E+02  0.7816164E-02  0.1312668E+00
        -11   -1    0    0    0    0  0.00000000000E+00  0.00000000000E+00  0.45593999997E+02  0.45594000000E+02  0.51100000000E-03 0.  1.
         11   -1    0    0    0    0 -0.00000000000E+00 -0.00000000000E+00 -0.45593999997E+02  0.45594000000E+02  0.51100000000E-03 0. -1.
    9900012    2    1    2    0    0  0.43147695454E+02 -0.30088558774E+01  0.35841790000E+01  0.47787272175E+02  0.20000005153E+02 0.  0.
         12    1    1    2    0    0 -0.43147695454E+02  0.30088558774E+01 -0.35841790000E+01  0.43400727825E+02  0.00000000000E+00 0. -1.
         11    1    3    3    0    0  0.55544337558E+01  0.17258541710E+01  0.18946377652E+01  0.61171855857E+01  0.51100000000E-03 0. -1.
        -11    1    3    3    0    0  0.28668472642E+01  0.30150832177E+01  0.43132798927E+01  0.59928226855E+01  0.51100000000E-03 0.  1.
        -12    1    3    3    0    0  0.34726414434E+02 -0.77497932660E+01 -0.26237386579E+01  0.35677263903E+02  0.00000000000E+00 0.  1.
</event>
<event>
 7    1  0.4876728E-009  0.4778727E+02  0.7816164E-02  0.1312668E+00
        -11   -1    0    0    0    0  0.00000000000E+00  0.00000000000E+00  0.45593999997E+02  0.45594000000E+02  0.51100000000E-03 0. -1.
         11   -1    0    0    0    0 -0.00000000000E+00 -0.00000000000E+00 -0.45593999997E+02  0.45594000000E+02  0.51100000000E-03 0.  1.
    9900012    2    1    2    0    0  0.29927048817E+02  0.67938701412E+01  0.30689388214E+02  0.47787268770E+02  0.19999989630E+02 0.  0.
         12    1    1    2    0    0 -0.29927048817E+02 -0.67938701412E+01 -0.30689388214E+02  0.43400731230E+02  0.00000000000E+00 0. -1.
         11    1    3    3    0    0  0.35831973186E+01 -0.44628325522E+01  0.10500704392E+02  0.11959137528E+02  0.51100000000E-03 0. -1.
        -11    1    3    3    0    0  0.17462608057E+02  0.10809589215E+02  0.12288346099E+02  0.23933101539E+02  0.51100000000E-03 0.  1.
        -12    1    3    3    0    0  0.88812434409E+01  0.44711347864E+00  0.79003377218E+01  0.11895029703E+02  0.00000000000E+00 0.  1.
</event>
<event>
 7    1  0.4876728E-009  0.4778727E+02  0.7816164E-02  0.1312668E+00
        -11   -1    0    0    0    0  0.00000000000E+00  0.00000000000E+00  0.45593999997E+02  0.45594000000E+02  0.51100000000E-03 0.  1.
         11   -1    0    0    0    0 -0.00000000000E+00 -0.00000000000E+00 -0.45593999997E+02  0.45594000000E+02  0.51100000000E-03 0. -1.
    9900012    2    1    2    0    0 -0.10773587995E+02 -0.39496405635E+02  0.14407870929E+02  0.47787274187E+02  0.20000014330E+02 0.  0.
         12    1    1    2    0    0  0.10773587995E+02  0.39496405635E+02 -0.14407870929E+02  0.43400725813E+02  0.00000000000E+00 0. -1.
         11    1    3    3    0    0  0.35220757016E+01 -0.35604348763E+01  0.60701861274E+00  0.50448176988E+01  0.51100000000E-03 0. -1.
        -11    1    3    3    0    0 -0.15764417093E+02 -0.32716994052E+02  0.10263674636E+02  0.37739390077E+02  0.51100000000E-03 0.  1.
        -12    1    3    3    0    0  0.14687533961E+01 -0.32189767065E+01  0.35371776809E+01  0.50030664119E+01  0.00000000000E+00 0.  1.
</event>
<event>
 7    1  0.4876728E-009  0.4778727E+02  0.7816164E-02  0.1312668E+00
        -11   -1    0    0    0    0  0.00000000000E+00  0.00000000000E+00  0.45593999997E+02  0.45594000000E+02  0.51100000000E-03 0. -1.
         11   -1    0    0    0    0 -0.00000000000E+00 -0.00000000000E+00 -0.45593999997E+02  0.45594000000E+02  0.51100000000E-03 0.  1.
    9900012    2    1    2    0    0 -0.24118851105E+02  0.30338278152E+02 -0.19531855584E+02  0.47787268642E+02  0.19999989047E+02 0.  0.
         12    1    1    2    0    0  0.24118851105E+02 -0.30338278152E+02  0.19531855584E+02  0.43400731358E+02  0.00000000000E+00 0. -1.
         11    1    3    3    0    0 -0.18234571013E+02  0.28838362199E+02 -0.10785006646E+02  0.35783614728E+02  0.51100000000E-03 0. -1.
        -11    1    3    3    0    0 -0.66968815436E+01  0.25512552088E+00 -0.75487064905E+01  0.10094368796E+02  0.51100000000E-03 0.  1.
         12    1    3    3    0    0  0.81260145233E+00  0.12447904320E+01 -0.11981424476E+01  0.19092851187E+01  0.00000000000E+00 0. -1.
</event>
<event>
 7    1  0.4876728E-009  0.4778727E+02  0.7816164E-02  0.1312668E+00
        -11   -1    0    0    0    0  0.00000000000E+00  0.00000000000E+00  0.45593999997E+02  0.45594000000E+02  0.51100000000E-03 0.  1.
         11   -1    0    0    0    0 -0.00000000000E+00 -0.00000000000E+00 -0.45593999997E+02  0.45594000000E+02  0.51100000000E-03 0. -1.
    9900012    2    1    2    0    0  0.73456213489E+01  0.38862370010E+02  0.17871249373E+02  0.47787268324E+02  0.19999987598E+02 0.  0.
         12    1    1    2    0    0 -0.73456213489E+01 -0.38862370010E+02 -0.17871249373E+02  0.43400731676E+02  0.00000000000E+00 0. -1.
         11    1    3    3    0    0  0.49961115758E+01  0.99238011389E+01 -0.26595031423E+01  0.11424356312E+02  0.51100000000E-03 0. -1.
        -11    1    3    3    0    0 -0.14530704941E+01  0.22282471627E+02  0.15811605989E+02  0.27361046031E+02  0.51100000000E-03 0.  1.
        -12    1    3    3    0    0  0.38025802671E+01  0.66560972438E+01  0.47191465267E+01  0.90018659814E+01  0.00000000000E+00 0.  1.
</event>
<event>
 7    1  0.4876728E-009  0.4778727E+02  0.7816164E-02  0.1312668E+00
        -11   -1    0    0    0    0  0.00000000000E+00  0.00000000000E+00  0.45593999997E+02  0.45594000000E+02  0.51100000000E-03 0.  1.
         11   -1    0    0    0    0 -0.00000000000E+00 -0.00000000000E+00 -0.45593999997E+02  0.45594000000E+02  0.51100000000E-03 0. -1.
    9900012    2    1    2    0    0  0.11633625372E+02  0.26722365679E+02  0.32158932644E+02  0.47787274020E+02  0.20000013567E+02 0.  0.
         12    1    1    2    0    0 -0.11633625372E+02 -0.26722365679E+02 -0.32158932644E+02  0.43400725980E+02  0.00000000000E+00 0. -1.
         11    1    3    3    0    0  0.10663462546E+01 -0.20983772471E+01  0.68656692797E+01  0.72579402261E+01  0.51100000000E-03 0. -1.
        -11    1    3    3    0    0 -0.82952710004E+00  0.52414159150E+01  0.27650099566E+01  0.59837978179E+01  0.51100000000E-03 0.  1.
         12    1    3    3    0    0  0.11396806218E+02  0.23579327011E+02  0.22528253408E+02  0.34545535976E+02  0.00000000000E+00 0. -1.
</event>
<event>
 7    1  0.4876728E-009  0.4778727E+02  0.7816164E-02  0.1312668E+00
        -11   -1    0    0    0    0  0.00000000000E+00  0.00000000000E+00  0.45593999997E+02  0.45594000000E+02  0.51100000000E-03 0.  1.
         11   -1    0    0    0    0 -0.00000000000E+00 -0.00000000000E+00 -0.45593999997E+02  0.45594000000E+02  0.51100000000E-03 0. -1.
    9900012    2    1    2    0    0 -0.13312263264E+02 -0.14140153244E+02  0.38813177278E+02  0.47787273999E+02  0.20000013472E+02 0.  0.
         12    1    1    2    0    0  0.13312263264E+02  0.14140153244E+02 -0.38813177278E+02  0.43400726001E+02  0.00000000000E+00 0. -1.
         11    1    3    3    0    0 -0.87377596431E+01 -0.14217533207E+01  0.24448446987E+02  0.26001853519E+02  0.51100000000E-03 0. -1.
        -11    1    3    3    0    0  0.21432081076E+01 -0.67006132669E+01  0.41874942818E+01  0.81869816029E+01  0.51100000000E-03 0.  1.
        -12    1    3    3    0    0 -0.67177117281E+01 -0.60177866564E+01  0.10177236010E+02  0.13598438877E+02  0.00000000000E+00 0.  1.
</event>
<event>
 7    1  0.4876728E-009  0.4778728E+02  0.7816164E-02  0.1312668E+00
        -11   -1    0    0    0    0  0.00000000000E+00  0.00000000000E+00  0.45593999997E+02  0.45594000000E+02  0.51100000000E-03 0. -1.
         11   -1    0    0    0    0 -0.00000000000E+00 -0.00000000000E+00 -0.45593999997E+02  0.45594000000E+02  0.51100000000E-03 0.  1.
    9900012    2    1    2    0    0  0.37422985810E+02 -0.10567831939E+02 -0.19273388494E+02  0.47787280618E+02  0.20000043649E+02 0.  0.
         12    1    1    2    0    0 -0.37422985810E+02  0.10567831939E+02  0.19273388494E+02  0.43400719382E+02  0.00000000000E+00 0. -1.
         11    1    3    3    0    0  0.13470080825E+02 -0.92045225708E+01 -0.40058561805E+00  0.16319521509E+02  0.51100000000E-03 0. -1.
        -11    1    3    3    0    0  0.77541100310E+01 -0.13539303623E+01 -0.10813030857E+02  0.13374639672E+02  0.51100000000E-03 0.  1.
         12    1    3    3    0    0  0.16198794954E+02 -0.93790062150E-02 -0.80597720195E+01  0.18093119436E+02  0.00000000000E+00 0. -1.
</event>
<event>
 7    1  0.4876728E-009  0.4778727E+02  0.7816164E-02  0.1312668E+00
        -11   -1    0    0    0    0  0.00000000000E+00  0.00000000000E+00  0.45593999997E+02  0.45594000000E+02  0.51100000000E-03 0. -1.
         11   -1    0    0    0    0 -0.00000000000E+00 -0.00000000000E+00 -0.45593999997E+02  0.45594000000E+02  0.51100000000E-03 0.  1.
    9900012    2    1    2    0    0 -0.38684659283E+02 -0.10221256497E+02 -0.16812089015E+02  0.47787270913E+02  0.19999999400E+02 0.  0.
         12    1    1    2    0    0  0.38684659283E+02  0.10221256497E+02  0.16812089015E+02  0.43400729087E+02  0.00000000000E+00 0. -1.
         11    1    3    3    0    0 -0.15931045350E+02 -0.73639134604E+01 -0.14806123669E+02  0.22961853710E+02  0.51100000000E-03 0. -1.
        -11    1    3    3    0    0 -0.10368547281E+02 -0.38924775503E+01 -0.48265335542E+01  0.12081124973E+02  0.51100000000E-03 0.  1.
         12    1    3    3    0    0 -0.12385066652E+02  0.10351345136E+01  0.28205682084E+01  0.12744292230E+02  0.00000000000E+00 0. -1.
</event>
<event>
 7    1  0.4876728E-009  0.4778727E+02  0.7816164E-02  0.1312668E+00
        -11   -1    0    0    0    0  0.00000000000E+00  0.00000000000E+00  0.45593999997E+02  0.45594000000E+02  0.51100000000E-03 0.  1.
         11   -1    0    0    0    0 -0.00000000000E+00 -0.00000000000E+00 -0.45593999997E+02  0.45594000000E+02  0.51100000000E-03 0. -1.
    9900012    2    1    2    0    0 -0.91869711724E+01  0.37154270184E+02  0.20464186123E+02  0.47787272518E+02  0.20000006720E+02 0.  0.
         12    1    1    2    0    0  0.91869711724E+01 -0.37154270184E+02 -0.20464186123E+02  0.43400727482E+02  0.00000000000E+00 0. -1.
         11    1    3    3    0    0 -0.29615933788E+01  0.19867441248E+02 -0.17085432117E-01  0.20086974617E+02  0.51100000000E-03 0. -1.
        -11    1    3    3    0    0 -0.47545854118E+01  0.15617996265E+02  0.17005137402E+02  0.23573344865E+02  0.51100000000E-03 0.  1.
        -12    1    3    3    0    0 -0.14707923818E+01  0.16688326707E+01  0.34761341531E+01  0.41269530362E+01  0.00000000000E+00 0.  1.
</event>
<event>
 7    1  0.4876728E-009  0.4778727E+02  0.7816164E-02  0.1312668E+00
        -11   -1    0    0    0    0  0.00000000000E+00  0.00000000000E+00  0.45593999997E+02  0.45594000000E+02  0.51100000000E-03 0.  1.
         11   -1    0    0    0    0 -0.00000000000E+00 -0.00000000000E+00 -0.45593999997E+02  0.45594000000E+02  0.51100000000E-03 0. -1.
    9900012    2    1    2    0    0  0.22652710651E-01  0.23668751024E+02  0.36378742310E+02  0.47787272124E+02  0.20000004921E+02 0.  0.
         12    1    1    2    0    0 -0.22652710651E-01 -0.23668751024E+02 -0.36378742310E+02  0.43400727876E+02  0.00000000000E+00 0. -1.
         11    1    3    3    0    0  0.13158666549E+01  0.19239093377E+01  0.68533721468E+00  0.24295307268E+01  0.51100000000E-03 0. -1.
        -11    1    3    3    0    0  0.46580561052E+01  0.37073964346E+01  0.13386903830E+01  0.61019969850E+01  0.51100000000E-03 0.  1.
        -12    1    3    3    0    0 -0.59512700495E+01  0.18037445251E+02  0.34354714712E+02  0.39255744412E+02  0.00000000000E+00 0.  1.
</event>
<event>
 7    1  0.4876728E-009  0.4778726E+02  0.7816164E-02  0.1312668E+00
        -11   -1    0    0    0    0  0.00000000000E+00  0.00000000000E+00  0.45593999997E+02  0.45594000000E+02  0.51100000000E-03 0.  1.
         11   -1    0    0    0    0 -0.00000000000E+00 -0.00000000000E+00 -0.45593999997E+02  0.45594000000E+02  0.51100000000E-03 0. -1.
    9900012    2    1    2    0    0  0.10871638657E+02 -0.46141265332E+00  0.42014502834E+02  0.47787264094E+02  0.19999968312E+02 0.  0.
         12    1    1    2    0    0 -0.10871638657E+02  0.46141265332E+00 -0.42014502834E+02  0.43400735906E+02  0.00000000000E+00 0. -1.
         11    1    3    3    0    0 -0.14753428999E+01  0.20860566672E+01 -0.64003355951E-01  0.25558493269E+01  0.51100000000E-03 0. -1.
        -11    1    3    3    0    0  0.13360011994E+02 -0.12861529541E+01  0.27895789526E+02  0.30956730826E+02  0.51100000000E-03 0.  1.
         12    1    3    3    0    0 -0.10130304372E+01 -0.12613163665E+01  0.14182716664E+02  0.14274683941E+02  0.00000000000E+00 0. -1.
</event>
<event>
 7    1  0.4876728E-009  0.4778727E+02  0.7816164E-02  0.1312668E+00
        -11   -1    0    0    0    0  0.00000000000E+00  0.00000000000E+00  0.45593999997E+02  0.45594000000E+02  0.51100000000E-03 0.  1.
         11   -1    0    0    0    0 -0.00000000000E+00 -0.00000000000E+00 -0.45593999997E+02  0.45594000000E+02  0.51100000000E-03 0. -1.
    9900012    2    1    2    0    0  0.14398346580E+02  0.25532086316E+02  0.32006619920E+02  0.47787268041E+02  0.19999986305E+02 0.  0.
         12    1    1    2    0    0 -0.14398346580E+02 -0.25532086316E+02 -0.32006619920E+02  0.43400731959E+02  0.00000000000E+00 0. -1.
         11    1    3    3    0    0  0.92829613345E+01  0.13544872826E+02  0.19385589147E+02  0.25405472202E+02  0.51100000000E-03 0.  1.
        -11    1    3    3    0    0 -0.82511762725E+00  0.70765224901E+01 -0.52410595128E+00  0.71437159070E+01  0.51100000000E-03 0. -1.
         12    1    3    3    0    0  0.59405028724E+01  0.49106910007E+01  0.13145136725E+02  0.15238079931E+02  0.00000000000E+00 0. -1.
</event>
<event>
 7    1  0.4876728E-009  0.4778727E+02  0.7816164E-02  0.1312668E+00
        -11   -1    0    0    0    0  0.00000000000E+00  0.00000000000E+00  0.45593999997E+02  0.45594000000E+02  0.51100000000E-03 0.  1.
         11   -1    0    0    0    0 -0.00000000000E+00 -0.00000000000E+00 -0.45593999997E+02  0.45594000000E+02  0.51100000000E-03 0. -1.
    9900012    2    1    2    0    0  0.16123018378E+02  0.27772489746E+02  0.29195209802E+02  0.47787272084E+02  0.20000004738E+02 0.  0.
         12    1    1    2    0    0 -0.16123018378E+02 -0.27772489746E+02 -0.29195209802E+02  0.43400727916E+02  0.00000000000E+00 0. -1.
         11    1    3    3    0    0  0.21647946988E+01  0.81921517423E+01  0.68836625321E+01  0.10917073618E+02  0.51100000000E-03 0. -1.
        -11    1    3    3    0    0  0.14818667375E+02  0.21272828542E+02  0.16438142327E+02  0.30697535086E+02  0.51100000000E-03 0.  1.
        -12    1    3    3    0    0 -0.86044369632E+00 -0.16924905381E+01  0.58734049430E+01  0.61726633798E+01  0.00000000000E+00 0.  1.
</event>
<event>
 7    1  0.4876728E-009  0.4778727E+02  0.7816164E-02  0.1312668E+00
        -11   -1    0    0    0    0  0.00000000000E+00  0.00000000000E+00  0.45593999997E+02  0.45594000000E+02  0.51100000000E-03 0.  1.
         11   -1    0    0    0    0 -0.00000000000E+00 -0.00000000000E+00 -0.45593999997E+02  0.45594000000E+02  0.51100000000E-03 0. -1.
    9900012    2    1    2    0    0  0.31910808549E+02  0.24638908816E+02  0.16070079484E+02  0.47787274378E+02  0.20000015197E+02 0.  0.
         12    1    1    2    0    0 -0.31910808549E+02 -0.24638908816E+02 -0.16070079484E+02  0.43400725622E+02  0.00000000000E+00 0. -1.
         11    1    3    3    0    0  0.10542319205E+02  0.11624294137E+02  0.13961363598E+02  0.21004389593E+02  0.51100000000E-03 0. -1.
        -11    1    3    3    0    0  0.15536059323E+02  0.43164245296E+01  0.13048600811E+00  0.16125063934E+02  0.51100000000E-03 0.  1.
        -12    1    3    3    0    0  0.58324300211E+01  0.86981901499E+01  0.19782298779E+01  0.10657820851E+02  0.00000000000E+00 0.  1.
</event>
<event>
 7    1  0.4876728E-009  0.4778727E+02  0.7816164E-02  0.1312668E+00
        -11   -1    0    0    0    0  0.00000000000E+00  0.00000000000E+00  0.45593999997E+02  0.45594000000E+02  0.51100000000E-03 0.  1.
         11   -1    0    0    0    0 -0.00000000000E+00 -0.00000000000E+00 -0.45593999997E+02  0.45594000000E+02  0.51100000000E-03 0. -1.
    9900012    2    1    2    0    0 -0.60085016880E+01  0.11913531895E+02  0.41298773697E+02  0.47787273697E+02  0.20000012094E+02 0.  0.
         12    1    1    2    0    0  0.60085016880E+01 -0.11913531895E+02 -0.41298773697E+02  0.43400726303E+02  0.00000000000E+00 0. -1.
         11    1    3    3    0    0 -0.60577364107E+01 -0.20631572391E+01  0.18737393484E+02  0.19800068258E+02  0.51100000000E-03 0. -1.
        -11    1    3    3    0    0 -0.14309372587E+01  0.32192658424E+01  0.13162243460E+02  0.13625560801E+02  0.51100000000E-03 0.  1.
         12    1    3    3    0    0  0.14801719814E+01  0.10757423292E+02  0.93991367539E+01  0.14361644637E+02  0.00000000000E+00 0. -1.
</event>
<event>
 7    1  0.4876728E-009  0.4778724E+02  0.7816164E-02  0.1312668E+00
        -11   -1    0    0    0    0  0.00000000000E+00  0.00000000000E+00  0.45593999997E+02  0.45594000000E+02  0.51100000000E-03 0. -1.
         11   -1    0    0    0    0 -0.00000000000E+00 -0.00000000000E+00 -0.45593999997E+02  0.45594000000E+02  0.51100000000E-03 0.  1.
    9900012    2    1    2    0    0  0.28309249015E+02  0.39689951611E+01 -0.32656691462E+02  0.47787239642E+02  0.19999856824E+02 0.  0.
         12    1    1    2    0    0 -0.28309249015E+02 -0.39689951611E+01  0.32656691462E+02  0.43400760358E+02  0.00000000000E+00 0. -1.
         11    1    3    3    0    0  0.43834695080E+01 -0.69164441513E+01 -0.10561742128E+02  0.13364220953E+02  0.51100000000E-03 0. -1.
        -11    1    3    3    0    0  0.21754961888E+01  0.26560116170E+00 -0.18150743606E+01  0.28456673805E+01  0.51100000000E-03 0.  1.
         12    1    3    3    0    0  0.21750283318E+02  0.10619838151E+02 -0.20279874973E+02  0.31577351309E+02  0.00000000000E+00 0. -1.
</event>
<event>
 7    1  0.4876728E-009  0.4778727E+02  0.7816164E-02  0.1312668E+00
        -11   -1    0    0    0    0  0.00000000000E+00  0.00000000000E+00  0.45593999997E+02  0.45594000000E+02  0.51100000000E-03 0.  1.
         11   -1    0    0    0    0 -0.00000000000E+00 -0.00000000000E+00 -0.45593999997E+02  0.45594000000E+02  0.51100000000E-03 0. -1.
    9900012    2    1    2    0    0 -0.24391367183E+01 -0.27686283740E+02  0.33333820959E+02  0.47787270571E+02  0.19999997840E+02 0.  0.
         12    1    1    2    0    0  0.24391367183E+01  0.27686283740E+02 -0.33333820959E+02  0.43400729429E+02  0.00000000000E+00 0. -1.
         11    1    3    3    0    0  0.99068235892E+00 -0.37901034018E+01 -0.10381878088E+01  0.40526743664E+01  0.51100000000E-03 0. -1.
        -11    1    3    3    0    0 -0.11049188768E+01 -0.24418194828E+02  0.32690001025E+02  0.40817952565E+02  0.51100000000E-03 0.  1.
        -12    1    3    3    0    0 -0.23249002004E+01  0.52201448920E+00  0.16820077431E+01  0.29166436390E+01  0.00000000000E+00 0.  1.
</event>
<event>
 7    1  0.4876728E-009  0.4778727E+02  0.7816164E-02  0.1312668E+00
        -11   -1    0    0    0    0  0.00000000000E+00  0.00000000000E+00  0.45593999997E+02  0.45594000000E+02  0.51100000000E-03 0.  1.
         11   -1    0    0    0    0 -0.00000000000E+00 -0.00000000000E+00 -0.45593999997E+02  0.45594000000E+02  0.51100000000E-03 0. -1.
    9900012    2    1    2    0    0  0.23329200084E+02 -0.34391020532E+02 -0.12515157284E+02  0.47787273835E+02  0.20000012724E+02 0.  0.
         12    1    1    2    0    0 -0.23329200084E+02  0.34391020532E+02  0.12515157284E+02  0.43400726165E+02  0.00000000000E+00 0. -1.
         11    1    3    3    0    0 -0.25140631362E+01 -0.51505536283E+01 -0.56906266912E+01  0.80766297755E+01  0.51100000000E-03 0. -1.
        -11    1    3    3    0    0  0.11107468523E+02 -0.12943870138E+02 -0.16307216231E+01  0.17134143819E+02  0.51100000000E-03 0.  1.
         12    1    3    3    0    0  0.14735794696E+02 -0.16296596766E+02 -0.51938089699E+01  0.22576500240E+02  0.00000000000E+00 0. -1.
</event>
<event>
 7    1  0.4876728E-009  0.4778728E+02  0.7816164E-02  0.1312668E+00
        -11   -1    0    0    0    0  0.00000000000E+00  0.00000000000E+00  0.45593999997E+02  0.45594000000E+02  0.51100000000E-03 0. -1.
         11   -1    0    0    0    0 -0.00000000000E+00 -0.00000000000E+00 -0.45593999997E+02  0.45594000000E+02  0.51100000000E-03 0.  1.
    9900012    2    1    2    0    0  0.48746033517E-01  0.22926745988E+02 -0.36850846138E+02  0.47787275135E+02  0.20000018648E+02 0.  0.
         12    1    1    2    0    0 -0.48746033517E-01 -0.22926745988E+02  0.36850846138E+02  0.43400724865E+02  0.00000000000E+00 0. -1.
         11    1    3    3    0    0 -0.78311531321E+01  0.47029166892E+01 -0.62112947608E+01  0.11046473086E+02  0.51100000000E-03 0. -1.
        -11    1    3    3    0    0  0.63293165907E+01  0.13722545667E+02 -0.19851625668E+02  0.24949059101E+02  0.51100000000E-03 0.  1.
        -12    1    3    3    0    0  0.15505825749E+01  0.45012836324E+01 -0.10787925709E+02  0.11791742948E+02  0.00000000000E+00 0.  1.
</event>
<event>
 7    1  0.4876728E-009  0.4778727E+02  0.7816164E-02  0.1312668E+00
        -11   -1    0    0    0    0  0.00000000000E+00  0.00000000000E+00  0.45593999997E+02  0.45594000000E+02  0.51100000000E-03 0.  1.
         11   -1    0    0    0    0 -0.00000000000E+00 -0.00000000000E+00 -0.45593999997E+02  0.45594000000E+02  0.51100000000E-03 0. -1.
    9900012    2    1    2    0    0  0.11273562200E+02  0.34658473197E+02  0.23565233111E+02  0.47787272119E+02  0.20000004898E+02 0.  0.
         12    1    1    2    0    0 -0.11273562200E+02 -0.34658473197E+02 -0.23565233111E+02  0.43400727881E+02  0.00000000000E+00 0. -1.
         11    1    3    3    0    0 -0.25348532286E+01  0.57430607988E+01  0.63791006370E+01  0.89499247722E+01  0.51100000000E-03 0. -1.
        -11    1    3    3    0    0  0.14979127827E+02  0.29744016033E+02  0.15870683890E+02  0.36891182790E+02  0.51100000000E-03 0.  1.
        -12    1    3    3    0    0 -0.11707123987E+01 -0.82860363478E+00  0.13154485834E+01  0.19461645562E+01  0.00000000000E+00 0.  1.
</event>
<event>
 7    1  0.4876728E-009  0.4778727E+02  0.7816164E-02  0.1312668E+00
        -11   -1    0    0    0    0  0.00000000000E+00  0.00000000000E+00  0.45593999997E+02  0.45594000000E+02  0.51100000000E-03 0. -1.
         11   -1    0    0    0    0 -0.00000000000E+00 -0.00000000000E+00 -0.45593999997E+02  0.45594000000E+02  0.51100000000E-03 0.  1.
    9900012    2    1    2    0    0 -0.16832550053E+02  0.11326991815E+01 -0.39987567511E+02  0.47787270696E+02  0.19999998411E+02 0.  0.
         12    1    1    2    0    0  0.16832550053E+02 -0.11326991815E+01  0.39987567511E+02  0.43400729304E+02  0.00000000000E+00 0. -1.
         11    1    3    3    0    0 -0.39939954833E+00 -0.27161501022E+01 -0.93286464608E+01  0.97242293488E+01  0.51100000000E-03 0. -1.
        -11    1    3    3    0    0 -0.12433090432E+02 -0.20252341031E+01 -0.96021438795E+01  0.15839333263E+02  0.51100000000E-03 0.  1.
        -12    1    3    3    0    0 -0.40000600726E+01  0.58740833869E+01 -0.21056777170E+02  0.22223708084E+02  0.00000000000E+00 0.  1.
</event>
<event>
 7    1  0.4876728E-009  0.4778727E+02  0.7816164E-02  0.1312668E+00
        -11   -1    0    0    0    0  0.00000000000E+00  0.00000000000E+00  0.45593999997E+02  0.45594000000E+02  0.51100000000E-03 0. -1.
         11   -1    0    0    0    0 -0.00000000000E+00 -0.00000000000E+00 -0.45593999997E+02  0.45594000000E+02  0.51100000000E-03 0.  1.
    9900012    2    1    2    0    0 -0.40957804545E+02 -0.14084866964E+02 -0.27745529873E+01  0.47787269881E+02  0.19999994696E+02 0.  0.
         12    1    1    2    0    0  0.40957804545E+02  0.14084866964E+02  0.27745529873E+01  0.43400730119E+02  0.00000000000E+00 0. -1.
         11    1    3    3    0    0 -0.61526987059E+01 -0.74186857817E-01  0.63710096967E+01  0.88572552109E+01  0.51100000000E-03 0. -1.
        -11    1    3    3    0    0 -0.23913270502E+02 -0.11782285708E+02 -0.74851994550E+01  0.27689257371E+02  0.51100000000E-03 0.  1.
         12    1    3    3    0    0 -0.10891835337E+02 -0.22283943975E+01 -0.16603632289E+01  0.11240757299E+02  0.00000000000E+00 0. -1.
</event>
