<event>
 7    1  0.2682317E-010  0.4778727E+02  0.7816164E-02  0.1312668E+00
        -11   -1    0    0    0    0  0.00000000000E+00  0.00000000000E+00  0.45593999997E+02  0.45594000000E+02  0.51100000000E-03 0.  1.
         11   -1    0    0    0    0 -0.00000000000E+00 -0.00000000000E+00 -0.45593999997E+02  0.45594000000E+02  0.51100000000E-03 0. -1.
    9900012    2    1    2    0    0 -0.26472036783E+02 -0.12761280225E+02  0.31937503798E+02  0.47787272434E+02  0.20000006336E+02 0.  0.
         12    1    1    2    0    0  0.26472036783E+02  0.12761280225E+02 -0.31937503798E+02  0.43400727566E+02  0.00000000000E+00 0. -1.
         11    1    3    3    0    0 -0.11593604888E+02 -0.10567078974E+01  0.71594351227E+01  0.13666960797E+02  0.51100000000E-03 0. -1.
        -11    1    3    3    0    0  0.32453051009E+00 -0.62688735381E+00 -0.15845182814E+01  0.17346487401E+01  0.51100000000E-03 0.  1.
        -12    1    3    3    0    0 -0.15202962405E+02 -0.11077684974E+02  0.26362586956E+02  0.32385662897E+02  0.00000000000E+00 0.  1.
</event>
<event>
 7    1  0.2682317E-010  0.4778727E+02  0.7816164E-02  0.1312668E+00
        -11   -1    0    0    0    0  0.00000000000E+00  0.00000000000E+00  0.45593999997E+02  0.45594000000E+02  0.51100000000E-03 0.  1.
         11   -1    0    0    0    0 -0.00000000000E+00 -0.00000000000E+00 -0.45593999997E+02  0.45594000000E+02  0.51100000000E-03 0. -1.
    9900012    2    1    2    0    0 -0.53992075966E+01 -0.29955069943E+02  0.30938094621E+02  0.47787270090E+02  0.19999995648E+02 0.  0.
         12    1    1    2    0    0  0.53992075966E+01  0.29955069943E+02 -0.30938094621E+02  0.43400729910E+02  0.00000000000E+00 0. -1.
         11    1    3    3    0    0  0.43206843547E+01 -0.53134199922E+01  0.63019706015E+01  0.93067491118E+01  0.51100000000E-03 0. -1.
        -11    1    3    3    0    0  0.22348392588E+01 -0.94047597402E-01  0.22509835429E+01  0.31733702329E+01  0.51100000000E-03 0.  1.
        -12    1    3    3    0    0 -0.11954731210E+02 -0.24547602354E+02  0.22385140476E+02  0.35307150745E+02  0.00000000000E+00 0.  1.
</event>
<event>
 7    1  0.2682317E-010  0.4778727E+02  0.7816164E-02  0.1312668E+00
        -11   -1    0    0    0    0  0.00000000000E+00  0.00000000000E+00  0.45593999997E+02  0.45594000000E+02  0.51100000000E-03 0. -1.
         11   -1    0    0    0    0 -0.00000000000E+00 -0.00000000000E+00 -0.45593999997E+02  0.45594000000E+02  0.51100000000E-03 0.  1.
    9900012    2    1    2    0    0  0.15735003752E+02 -0.20382462316E+02 -0.34936917376E+02  0.47787270641E+02  0.19999998161E+02 0.  0.
         12    1    1    2    0    0 -0.15735003752E+02  0.20382462316E+02  0.34936917376E+02  0.43400729359E+02  0.00000000000E+00 0. -1.
         11    1    3    3    0    0  0.13014855093E+02 -0.68386679425E+01 -0.18041039001E+02  0.23273008418E+02  0.51100000000E-03 0. -1.
        -11    1    3    3    0    0  0.49929767047E+01 -0.13005039809E+02 -0.17227443975E+02  0.22155037869E+02  0.51100000000E-03 0.  1.
         12    1    3    3    0    0 -0.22728280456E+01 -0.53875456475E+00  0.33156560026E+00  0.23592243541E+01  0.00000000000E+00 0. -1.
</event>
<event>
 7    1  0.2682317E-010  0.4778727E+02  0.7816164E-02  0.1312668E+00
        -11   -1    0    0    0    0  0.00000000000E+00  0.00000000000E+00  0.45593999997E+02  0.45594000000E+02  0.51100000000E-03 0.  1.
         11   -1    0    0    0    0 -0.00000000000E+00 -0.00000000000E+00 -0.45593999997E+02  0.45594000000E+02  0.51100000000E-03 0. -1.
    9900012    2    1    2    0    0  0.21068193779E+02  0.30342912864E+02  0.22782932597E+02  0.47787272265E+02  0.20000005567E+02 0.  0.
         12    1    1    2    0    0 -0.21068193779E+02 -0.30342912864E+02 -0.22782932597E+02  0.43400727735E+02  0.00000000000E+00 0. -1.
         11    1    3    3    0    0 -0.58420364786E+00  0.11301190083E+02  0.44950188165E+01  0.12176345331E+02  0.51100000000E-03 0. -1.
        -11    1    3    3    0    0  0.49565984044E+01  0.10883336852E+02  0.66187401018E+01  0.13668306756E+02  0.51100000000E-03 0.  1.
        -12    1    3    3    0    0  0.16695799022E+02  0.81583859288E+01  0.11669173678E+02  0.21942620179E+02  0.00000000000E+00 0.  1.
</event>
<event>
 7    1  0.2682317E-010  0.4778728E+02  0.7816164E-02  0.1312668E+00
        -11   -1    0    0    0    0  0.00000000000E+00  0.00000000000E+00  0.45593999997E+02  0.45594000000E+02  0.51100000000E-03 0.  1.
         11   -1    0    0    0    0 -0.00000000000E+00 -0.00000000000E+00 -0.45593999997E+02  0.45594000000E+02  0.51100000000E-03 0. -1.
    9900012    2    1    2    0    0  0.17508529631E+02 -0.15630604445E+02  0.36506965301E+02  0.47787275114E+02  0.20000018555E+02 0.  0.
         12    1    1    2    0    0 -0.17508529631E+02  0.15630604445E+02 -0.36506965301E+02  0.43400724886E+02  0.00000000000E+00 0. -1.
         11    1    3    3    0    0  0.90446685819E+01 -0.30521034012E+01  0.55678819707E+01  0.11050912851E+02  0.51100000000E-03 0. -1.
        -11    1    3    3    0    0  0.11344318411E+02 -0.87533667092E+01  0.26873265590E+02  0.30454677681E+02  0.51100000000E-03 0.  1.
         12    1    3    3    0    0 -0.28804573620E+01 -0.38251343348E+01  0.40658177400E+01  0.62816845821E+01  0.00000000000E+00 0. -1.
</event>
<event>
 7    1  0.2682317E-010  0.4778727E+02  0.7816164E-02  0.1312668E+00
        -11   -1    0    0    0    0  0.00000000000E+00  0.00000000000E+00  0.45593999997E+02  0.45594000000E+02  0.51100000000E-03 0. -1.
         11   -1    0    0    0    0 -0.00000000000E+00 -0.00000000000E+00 -0.45593999997E+02  0.45594000000E+02  0.51100000000E-03 0.  1.
    9900012    2    1    2    0    0 -0.15010997025E+02 -0.18921282145E+02 -0.36059372193E+02  0.47787271058E+02  0.20000000064E+02 0.  0.
         12    1    1    2    0    0  0.15010997025E+02  0.18921282145E+02  0.36059372193E+02  0.43400728942E+02  0.00000000000E+00 0. -1.
         11    1    3    3    0    0 -0.36903017240E+01 -0.10346427241E+02 -0.97281035280E+01  0.14673202854E+02  0.51100000000E-03 0.  1.
        -11    1    3    3    0    0 -0.11100325630E+02 -0.11136875315E+02 -0.15867127763E+02  0.22338598089E+02  0.51100000000E-03 0. -1.
         12    1    3    3    0    0 -0.22036967075E+00  0.25620204119E+01 -0.10464140902E+02  0.10775470115E+02  0.00000000000E+00 0. -1.
</event>
<event>
 7    1  0.2682317E-010  0.4778729E+02  0.7816164E-02  0.1312668E+00
        -11   -1    0    0    0    0  0.00000000000E+00  0.00000000000E+00  0.45593999997E+02  0.45594000000E+02  0.51100000000E-03 0. -1.
         11   -1    0    0    0    0 -0.00000000000E+00 -0.00000000000E+00 -0.45593999997E+02  0.45594000000E+02  0.51100000000E-03 0.  1.
    9900012    2    1    2    0    0 -0.34139370104E+02 -0.11833792677E+02 -0.24043418678E+02  0.47787294684E+02  0.20000107781E+02 0.  0.
         12    1    1    2    0    0  0.34139370104E+02  0.11833792677E+02  0.24043418678E+02  0.43400705316E+02  0.00000000000E+00 0. -1.
         11    1    3    3    0    0 -0.22452023129E+01 -0.24012052315E+01  0.18364894772E+01  0.37655562472E+01  0.51100000000E-03 0. -1.
        -11    1    3    3    0    0 -0.75024789840E+01 -0.77360535855E+01 -0.11000753288E+02  0.15399684710E+02  0.51100000000E-03 0.  1.
         12    1    3    3    0    0 -0.24391688807E+02 -0.16965338597E+01 -0.14879154867E+02  0.28622053727E+02  0.00000000000E+00 0. -1.
</event>
<event>
 7    1  0.2682317E-010  0.4778726E+02  0.7816164E-02  0.1312668E+00
        -11   -1    0    0    0    0  0.00000000000E+00  0.00000000000E+00  0.45593999997E+02  0.45594000000E+02  0.51100000000E-03 0.  1.
         11   -1    0    0    0    0 -0.00000000000E+00 -0.00000000000E+00 -0.45593999997E+02  0.45594000000E+02  0.51100000000E-03 0. -1.
    9900012    2    1    2    0    0  0.24735975610E+01 -0.23246956225E+02  0.36566162924E+02  0.47787263490E+02  0.19999965557E+02 0.  0.
         12    1    1    2    0    0 -0.24735975610E+01  0.23246956225E+02 -0.36566162924E+02  0.43400736510E+02  0.00000000000E+00 0. -1.
         11    1    3    3    0    0 -0.57690446501E+00 -0.15501287648E+01  0.10835321629E+01  0.19773113458E+01  0.51100000000E-03 0. -1.
        -11    1    3    3    0    0  0.43429023551E+01 -0.22979685903E+02  0.21686175519E+02  0.31893839122E+02  0.51100000000E-03 0.  1.
         12    1    3    3    0    0 -0.12924003291E+01  0.12828584426E+01  0.13796455242E+02  0.13916113022E+02  0.00000000000E+00 0. -1.
</event>
<event>
 7    1  0.2682317E-010  0.4778727E+02  0.7816164E-02  0.1312668E+00
        -11   -1    0    0    0    0  0.00000000000E+00  0.00000000000E+00  0.45593999997E+02  0.45594000000E+02  0.51100000000E-03 0.  1.
         11   -1    0    0    0    0 -0.00000000000E+00 -0.00000000000E+00 -0.45593999997E+02  0.45594000000E+02  0.51100000000E-03 0. -1.
    9900012    2    1    2    0    0  0.33661537723E+02  0.26711812296E+02  0.60830325495E+01  0.47787270479E+02  0.19999997420E+02 0.  0.
         12    1    1    2    0    0 -0.33661537723E+02 -0.26711812296E+02 -0.60830325495E+01  0.43400729521E+02  0.00000000000E+00 0. -1.
         11    1    3    3    0    0  0.95227994392E+01  0.26726308832E+01  0.63712557677E-01  0.98909415400E+01  0.51100000000E-03 0. -1.
        -11    1    3    3    0    0  0.14715457072E+02  0.43697058124E+01  0.32061324102E+00  0.15353885464E+02  0.51100000000E-03 0.  1.
        -12    1    3    3    0    0  0.94232812113E+01  0.19669475600E+02  0.56987067508E+01  0.22542443475E+02  0.00000000000E+00 0.  1.
</event>
<event>
 7    1  0.2682317E-010  0.4778727E+02  0.7816164E-02  0.1312668E+00
        -11   -1    0    0    0    0  0.00000000000E+00  0.00000000000E+00  0.45593999997E+02  0.45594000000E+02  0.51100000000E-03 0.  1.
         11   -1    0    0    0    0 -0.00000000000E+00 -0.00000000000E+00 -0.45593999997E+02  0.45594000000E+02  0.51100000000E-03 0. -1.
    9900012    2    1    2    0    0 -0.30327637502E+02 -0.21282455834E+02  0.22603417121E+02  0.47787274334E+02  0.20000014999E+02 0.  0.
         12    1    1    2    0    0  0.30327637502E+02  0.21282455834E+02 -0.22603417121E+02  0.43400725666E+02  0.00000000000E+00 0. -1.
         11    1    3    3    0    0 -0.25932112123E+01 -0.84001475642E+01  0.83006392444E+01  0.12090816168E+02  0.51100000000E-03 0. -1.
        -11    1    3    3    0    0 -0.11603815772E+02 -0.11310565284E+02  0.47608760901E+01  0.16889149444E+02  0.51100000000E-03 0.  1.
         12    1    3    3    0    0 -0.16130610517E+02 -0.15717429864E+01  0.95419017864E+01  0.18807308722E+02  0.00000000000E+00 0. -1.
</event>
<event>
 7    1  0.2682317E-010  0.4778727E+02  0.7816164E-02  0.1312668E+00
        -11   -1    0    0    0    0  0.00000000000E+00  0.00000000000E+00  0.45593999997E+02  0.45594000000E+02  0.51100000000E-03 0.  1.
         11   -1    0    0    0    0 -0.00000000000E+00 -0.00000000000E+00 -0.45593999997E+02  0.45594000000E+02  0.51100000000E-03 0. -1.
    9900012    2    1    2    0    0  0.73493507575E+01  0.12081570347E+02  0.41032256704E+02  0.47787269720E+02  0.19999993961E+02 0.  0.
         12    1    1    2    0    0 -0.73493507575E+01 -0.12081570347E+02 -0.41032256704E+02  0.43400730280E+02  0.00000000000E+00 0. -1.
         11    1    3    3    0    0  0.10435276527E+02  0.10575354333E+02  0.13938686994E+02  0.20372042383E+02  0.51100000000E-03 0. -1.
        -11    1    3    3    0    0  0.31065633291E+00  0.42563556247E-01  0.74429940198E+00  0.80765145602E+00  0.51100000000E-03 0.  1.
        -12    1    3    3    0    0 -0.33965821022E+01  0.14636524569E+01  0.26349270308E+02  0.26607575881E+02  0.00000000000E+00 0.  1.
</event>
<event>
 7    1  0.2682317E-010  0.4778727E+02  0.7816164E-02  0.1312668E+00
        -11   -1    0    0    0    0  0.00000000000E+00  0.00000000000E+00  0.45593999997E+02  0.45594000000E+02  0.51100000000E-03 0. -1.
         11   -1    0    0    0    0 -0.00000000000E+00 -0.00000000000E+00 -0.45593999997E+02  0.45594000000E+02  0.51100000000E-03 0.  1.
    9900012    2    1    2    0    0 -0.77041499983E+01  0.23485079866E+02 -0.35675210761E+02  0.47787267675E+02  0.19999984637E+02 0.  0.
         12    1    1    2    0    0  0.77041499983E+01 -0.23485079866E+02  0.35675210761E+02  0.43400732325E+02  0.00000000000E+00 0. -1.
         11    1    3    3    0    0 -0.11007484584E+01  0.23847236824E+01 -0.10177300873E+02  0.10510756754E+02  0.51100000000E-03 0. -1.
        -11    1    3    3    0    0 -0.14453894664E+01  0.81553187418E+01 -0.21094953249E+02  0.22662643874E+02  0.51100000000E-03 0.  1.
        -12    1    3    3    0    0 -0.51580120735E+01  0.12945037442E+02 -0.44029566381E+01  0.14613867048E+02  0.00000000000E+00 0.  1.
</event>
<event>
 7    1  0.2682317E-010  0.4778727E+02  0.7816164E-02  0.1312668E+00
        -11   -1    0    0    0    0  0.00000000000E+00  0.00000000000E+00  0.45593999997E+02  0.45594000000E+02  0.51100000000E-03 0. -1.
         11   -1    0    0    0    0 -0.00000000000E+00 -0.00000000000E+00 -0.45593999997E+02  0.45594000000E+02  0.51100000000E-03 0.  1.
    9900012    2    1    2    0    0  0.36679464886E+02  0.23020828338E+02  0.28777857244E+01  0.47787270370E+02  0.19999996926E+02 0.  0.
         12    1    1    2    0    0 -0.36679464886E+02 -0.23020828338E+02 -0.28777857244E+01  0.43400729630E+02  0.00000000000E+00 0. -1.
         11    1    3    3    0    0  0.10506708090E+02  0.95448931344E+01 -0.67872564811E+01  0.15734126943E+02  0.51100000000E-03 0. -1.
        -11    1    3    3    0    0  0.88904243516E+01  0.79958376060E+01  0.11184683854E+01  0.12009331204E+02  0.51100000000E-03 0.  1.
        -12    1    3    3    0    0  0.17282332444E+02  0.54800975977E+01  0.85465738201E+01  0.20043812224E+02  0.00000000000E+00 0.  1.
</event>
<event>
 7    1  0.2682317E-010  0.4778727E+02  0.7816164E-02  0.1312668E+00
        -11   -1    0    0    0    0  0.00000000000E+00  0.00000000000E+00  0.45593999997E+02  0.45594000000E+02  0.51100000000E-03 0. -1.
         11   -1    0    0    0    0 -0.00000000000E+00 -0.00000000000E+00 -0.45593999997E+02  0.45594000000E+02  0.51100000000E-03 0.  1.
    9900012    2    1    2    0    0 -0.20944444252E+02 -0.37373344988E+02 -0.69416672883E+01  0.47787269530E+02  0.19999993095E+02 0.  0.
         12    1    1    2    0    0  0.20944444252E+02  0.37373344988E+02  0.69416672883E+01  0.43400730470E+02  0.00000000000E+00 0. -1.
         11    1    3    3    0    0  0.13191920322E+01 -0.28908066309E+01  0.21068974741E+01  0.38126169257E+01  0.51100000000E-03 0.  1.
        -11    1    3    3    0    0 -0.79808809721E+01 -0.16580512645E+02  0.20689776178E+01  0.18517249507E+02  0.51100000000E-03 0. -1.
        -12    1    3    3    0    0 -0.14282755312E+02 -0.17902025712E+02 -0.11117542380E+02  0.25457403097E+02  0.00000000000E+00 0.  1.
</event>
<event>
 7    1  0.2682317E-010  0.4778727E+02  0.7816164E-02  0.1312668E+00
        -11   -1    0    0    0    0  0.00000000000E+00  0.00000000000E+00  0.45593999997E+02  0.45594000000E+02  0.51100000000E-03 0.  1.
         11   -1    0    0    0    0 -0.00000000000E+00 -0.00000000000E+00 -0.45593999997E+02  0.45594000000E+02  0.51100000000E-03 0. -1.
    9900012    2    1    2    0    0 -0.45525374584E+01  0.32521761852E+02  0.28376623160E+02  0.47787270361E+02  0.19999996882E+02 0.  0.
         12    1    1    2    0    0  0.45525374584E+01 -0.32521761852E+02 -0.28376623160E+02  0.43400729639E+02  0.00000000000E+00 0. -1.
         11    1    3    3    0    0 -0.14917131956E+01 -0.83969911520E+00  0.62073827709E+01  0.64390918605E+01  0.51100000000E-03 0. -1.
        -11    1    3    3    0    0 -0.41486462922E+00  0.11944378828E+02  0.13662160718E+02  0.18151995317E+02  0.51100000000E-03 0.  1.
        -12    1    3    3    0    0 -0.26459596336E+01  0.21417082139E+02  0.85070796717E+01  0.23196183183E+02  0.00000000000E+00 0.  1.
</event>
<event>
 7    1  0.2682317E-010  0.4778727E+02  0.7816164E-02  0.1312668E+00
        -11   -1    0    0    0    0  0.00000000000E+00  0.00000000000E+00  0.45593999997E+02  0.45594000000E+02  0.51100000000E-03 0. -1.
         11   -1    0    0    0    0 -0.00000000000E+00 -0.00000000000E+00 -0.45593999997E+02  0.45594000000E+02  0.51100000000E-03 0.  1.
    9900012    2    1    2    0    0  0.23572705303E+02 -0.20795627497E+02 -0.29924784585E+02  0.47787270850E+02  0.19999999113E+02 0.  0.
         12    1    1    2    0    0 -0.23572705303E+02  0.20795627497E+02  0.29924784585E+02  0.43400729150E+02  0.00000000000E+00 0. -1.
         11    1    3    3    0    0  0.12412535151E+02 -0.15958567104E+02 -0.26346342517E+02  0.33209586826E+02  0.51100000000E-03 0. -1.
        -11    1    3    3    0    0  0.39444611119E+01 -0.42421026906E+01 -0.44233406035E+01  0.72883572262E+01  0.51100000000E-03 0.  1.
         12    1    3    3    0    0  0.72157090406E+01 -0.59495770244E+00  0.84489853547E+00  0.72893267975E+01  0.00000000000E+00 0. -1.
</event>
<event>
 7    1  0.2682317E-010  0.4778724E+02  0.7816164E-02  0.1312668E+00
        -11   -1    0    0    0    0  0.00000000000E+00  0.00000000000E+00  0.45593999997E+02  0.45594000000E+02  0.51100000000E-03 0.  1.
         11   -1    0    0    0    0 -0.00000000000E+00 -0.00000000000E+00 -0.45593999997E+02  0.45594000000E+02  0.51100000000E-03 0. -1.
    9900012    2    1    2    0    0  0.31140599559E+02 -0.24337693275E+02  0.17932242438E+02  0.47787244549E+02  0.19999879198E+02 0.  0.
         12    1    1    2    0    0 -0.31140599559E+02  0.24337693275E+02 -0.17932242438E+02  0.43400755451E+02  0.00000000000E+00 0. -1.
         11    1    3    3    0    0  0.10927635688E+02 -0.17657466584E+00  0.17644608999E+01  0.11070579157E+02  0.51100000000E-03 0. -1.
        -11    1    3    3    0    0  0.29967200415E+01 -0.47777606264E+01 -0.85227237743E+00  0.57038317013E+01  0.51100000000E-03 0.  1.
        -12    1    3    3    0    0  0.17216243829E+02 -0.19383357982E+02  0.17020053915E+02  0.31012833691E+02  0.00000000000E+00 0.  1.
</event>
<event>
 7    1  0.2682317E-010  0.4778727E+02  0.7816164E-02  0.1312668E+00
        -11   -1    0    0    0    0  0.00000000000E+00  0.00000000000E+00  0.45593999997E+02  0.45594000000E+02  0.51100000000E-03 0. -1.
         11   -1    0    0    0    0 -0.00000000000E+00 -0.00000000000E+00 -0.45593999997E+02  0.45594000000E+02  0.51100000000E-03 0.  1.
    9900012    2    1    2    0    0 -0.20733009928E+02  0.23449287275E+02 -0.30064873472E+02  0.47787269692E+02  0.19999993835E+02 0.  0.
         12    1    1    2    0    0  0.20733009928E+02 -0.23449287275E+02  0.30064873472E+02  0.43400730308E+02  0.00000000000E+00 0. -1.
         11    1    3    3    0    0 -0.28248386212E+01  0.21234448639E+01  0.79965351415E+00  0.36232826731E+01  0.51100000000E-03 0. -1.
        -11    1    3    3    0    0 -0.28889696079E+01 -0.21406594663E+01 -0.23376094907E+01  0.42887045524E+01  0.51100000000E-03 0.  1.
        -12    1    3    3    0    0 -0.15019201699E+02  0.23466501878E+02 -0.28526917495E+02  0.39875282467E+02  0.00000000000E+00 0.  1.
</event>
<event>
 7    1  0.2682317E-010  0.4778727E+02  0.7816164E-02  0.1312668E+00
        -11   -1    0    0    0    0  0.00000000000E+00  0.00000000000E+00  0.45593999997E+02  0.45594000000E+02  0.51100000000E-03 0.  1.
         11   -1    0    0    0    0 -0.00000000000E+00 -0.00000000000E+00 -0.45593999997E+02  0.45594000000E+02  0.51100000000E-03 0. -1.
    9900012    2    1    2    0    0 -0.21520112235E+02  0.37633638628E+02 -0.20536266886E+01  0.47787269942E+02  0.19999994972E+02 0.  0.
         12    1    1    2    0    0  0.21520112235E+02 -0.37633638628E+02  0.20536266886E+01  0.43400730058E+02  0.00000000000E+00 0. -1.
         11    1    3    3    0    0  0.23322096157E+00 -0.13966479017E+01 -0.11745843532E+01  0.18397461896E+01  0.51100000000E-03 0. -1.
        -11    1    3    3    0    0 -0.65797249412E+01  0.16655084024E+02 -0.50183389949E+01  0.18597535608E+02  0.51100000000E-03 0.  1.
        -12    1    3    3    0    0 -0.15173608255E+02  0.22375202506E+02  0.41392966596E+01  0.27349988144E+02  0.00000000000E+00 0.  1.
</event>
<event>
 7    1  0.2682317E-010  0.4778727E+02  0.7816164E-02  0.1312668E+00
        -11   -1    0    0    0    0  0.00000000000E+00  0.00000000000E+00  0.45593999997E+02  0.45594000000E+02  0.51100000000E-03 0.  1.
         11   -1    0    0    0    0 -0.00000000000E+00 -0.00000000000E+00 -0.45593999997E+02  0.45594000000E+02  0.51100000000E-03 0. -1.
    9900012    2    1    2    0    0 -0.25509607022E+00 -0.29999784695E+02  0.31361935331E+02  0.47787272547E+02  0.20000006849E+02 0.  0.
         12    1    1    2    0    0  0.25509607022E+00  0.29999784695E+02 -0.31361935331E+02  0.43400727453E+02  0.00000000000E+00 0. -1.
         11    1    3    3    0    0  0.41151894718E+01 -0.12823300822E+02  0.20432269998E+02  0.24471401388E+02  0.51100000000E-03 0. -1.
        -11    1    3    3    0    0 -0.11258992062E+01  0.53526601495E+00 -0.10984860725E+01  0.16615747476E+01  0.51100000000E-03 0.  1.
        -12    1    3    3    0    0 -0.32443863359E+01 -0.17711749889E+02  0.12028151406E+02  0.21654296411E+02  0.00000000000E+00 0.  1.
</event>
<event>
 7    1  0.2682317E-010  0.4778727E+02  0.7816164E-02  0.1312668E+00
        -11   -1    0    0    0    0  0.00000000000E+00  0.00000000000E+00  0.45593999997E+02  0.45594000000E+02  0.51100000000E-03 0. -1.
         11   -1    0    0    0    0 -0.00000000000E+00 -0.00000000000E+00 -0.45593999997E+02  0.45594000000E+02  0.51100000000E-03 0.  1.
    9900012    2    1    2    0    0  0.42602917284E+02  0.80150645094E+01 -0.20912717197E+01  0.47787271462E+02  0.20000001905E+02 0.  0.
         12    1    1    2    0    0 -0.42602917284E+02 -0.80150645094E+01  0.20912717197E+01  0.43400728538E+02  0.00000000000E+00 0. -1.
         11    1    3    3    0    0  0.50604247647E+01  0.52570351657E+01  0.12631324499E+01  0.74053913725E+01  0.51100000000E-03 0. -1.
        -11    1    3    3    0    0  0.92089006164E+01  0.28433197386E+01  0.49791298118E+01  0.10848043678E+02  0.51100000000E-03 0.  1.
        -12    1    3    3    0    0  0.28333591903E+02 -0.85290394858E-01 -0.83335339814E+01  0.29533836412E+02  0.00000000000E+00 0.  1.
</event>
<event>
 7    1  0.2682317E-010  0.4778727E+02  0.7816164E-02  0.1312668E+00
        -11   -1    0    0    0    0  0.00000000000E+00  0.00000000000E+00  0.45593999997E+02  0.45594000000E+02  0.51100000000E-03 0.  1.
         11   -1    0    0    0    0 -0.00000000000E+00 -0.00000000000E+00 -0.45593999997E+02  0.45594000000E+02  0.51100000000E-03 0. -1.
    9900012    2    1    2    0    0 -0.18511466922E+02 -0.28548425502E+02  0.26943205992E+02  0.47787270105E+02  0.19999995717E+02 0.  0.
         12    1    1    2    0    0  0.18511466922E+02  0.28548425502E+02 -0.26943205992E+02  0.43400729895E+02  0.00000000000E+00 0. -1.
         11    1    3    3    0    0 -0.25345458068E+01 -0.64944547201E+01  0.47086141529E+01  0.84126637910E+01  0.51100000000E-03 0. -1.
        -11    1    3    3    0    0 -0.16037837181E+02 -0.74409447185E+01  0.14346202046E+02  0.22768254065E+02  0.51100000000E-03 0.  1.
        -12    1    3    3    0    0  0.60916065514E-01 -0.14613026064E+02  0.78883897932E+01  0.16606352250E+02  0.00000000000E+00 0.  1.
</event>
<event>
 7    1  0.2682317E-010  0.4778721E+02  0.7816164E-02  0.1312668E+00
        -11   -1    0    0    0    0  0.00000000000E+00  0.00000000000E+00  0.45593999997E+02  0.45594000000E+02  0.51100000000E-03 0.  1.
         11   -1    0    0    0    0 -0.00000000000E+00 -0.00000000000E+00 -0.45593999997E+02  0.45594000000E+02  0.51100000000E-03 0. -1.
    9900012    2    1    2    0    0 -0.42792829151E+02 -0.14245128281E+01  0.70973714249E+01  0.47787214930E+02  0.19999744151E+02 0.  0.
         12    1    1    2    0    0  0.42792829151E+02  0.14245128281E+01 -0.70973714249E+01  0.43400785070E+02  0.00000000000E+00 0. -1.
         11    1    3    3    0    0 -0.52068722213E+01 -0.63555771481E+00 -0.84551675739E+00  0.53132241422E+01  0.51100000000E-03 0. -1.
        -11    1    3    3    0    0 -0.26267722992E+02 -0.50305098256E+01  0.12544363005E+02  0.29540825035E+02  0.51100000000E-03 0.  1.
        -12    1    3    3    0    0 -0.11318233938E+02  0.42415547123E+01 -0.46014748227E+01  0.12933165753E+02  0.00000000000E+00 0.  1.
</event>
<event>
 7    1  0.2682317E-010  0.4778728E+02  0.7816164E-02  0.1312668E+00
        -11   -1    0    0    0    0  0.00000000000E+00  0.00000000000E+00  0.45593999997E+02  0.45594000000E+02  0.51100000000E-03 0.  1.
         11   -1    0    0    0    0 -0.00000000000E+00 -0.00000000000E+00 -0.45593999997E+02  0.45594000000E+02  0.51100000000E-03 0. -1.
    9900012    2    1    2    0    0 -0.56659531473E+01  0.32791259217E+00  0.43028040096E+02  0.47787276662E+02  0.20000025613E+02 0.  0.
         12    1    1    2    0    0  0.56659531473E+01 -0.32791259217E+00 -0.43028040096E+02  0.43400723338E+02  0.00000000000E+00 0. -1.
         11    1    3    3    0    0 -0.10385876715E+01  0.20492226143E+01  0.18117111543E+01  0.29257948052E+01  0.51100000000E-03 0. -1.
        -11    1    3    3    0    0 -0.76332559050E+01 -0.35017655770E+01  0.40413410137E+02  0.41276781330E+02  0.51100000000E-03 0.  1.
         12    1    3    3    0    0  0.30058904293E+01  0.17804555548E+01  0.80291880542E+00  0.35847005263E+01  0.00000000000E+00 0. -1.
</event>
<event>
 7    1  0.2682317E-010  0.4778727E+02  0.7816164E-02  0.1312668E+00
        -11   -1    0    0    0    0  0.00000000000E+00  0.00000000000E+00  0.45593999997E+02  0.45594000000E+02  0.51100000000E-03 0.  1.
         11   -1    0    0    0    0 -0.00000000000E+00 -0.00000000000E+00 -0.45593999997E+02  0.45594000000E+02  0.51100000000E-03 0. -1.
    9900012    2    1    2    0    0 -0.20847045462E+01 -0.36869692321E+02  0.22801381445E+02  0.47787271888E+02  0.20000003845E+02 0.  0.
         12    1    1    2    0    0  0.20847045462E+01  0.36869692321E+02 -0.22801381445E+02  0.43400728112E+02  0.00000000000E+00 0. -1.
         11    1    3    3    0    0 -0.35599572858E+00  0.33979706176E+00  0.25035153373E+01  0.25514278957E+01  0.51100000000E-03 0. -1.
        -11    1    3    3    0    0 -0.16453987176E+01 -0.40007954831E+01 -0.24608443667E+01  0.49768922729E+01  0.51100000000E-03 0.  1.
        -12    1    3    3    0    0 -0.83310099997E-01 -0.33208693900E+02  0.22758710474E+02  0.40258951719E+02  0.00000000000E+00 0.  1.
</event>
<event>
 7    1  0.2682317E-010  0.4778727E+02  0.7816164E-02  0.1312668E+00
        -11   -1    0    0    0    0  0.00000000000E+00  0.00000000000E+00  0.45593999997E+02  0.45594000000E+02  0.51100000000E-03 0.  1.
         11   -1    0    0    0    0 -0.00000000000E+00 -0.00000000000E+00 -0.45593999997E+02  0.45594000000E+02  0.51100000000E-03 0. -1.
    9900012    2    1    2    0    0  0.34476827883E+02  0.20889569485E+02  0.16080962810E+02  0.47787272598E+02  0.20000007081E+02 0.  0.
         12    1    1    2    0    0 -0.34476827883E+02 -0.20889569485E+02 -0.16080962810E+02  0.43400727402E+02  0.00000000000E+00 0. -1.
         11    1    3    3    0    0  0.99648094411E+00 -0.18881045251E+01 -0.78984987420E+00  0.22763514787E+01  0.51100000000E-03 0. -1.
        -11    1    3    3    0    0  0.82971130602E+01  0.79058579879E+01 -0.54152694736E+00  0.11473357283E+02  0.51100000000E-03 0.  1.
        -12    1    3    3    0    0  0.25183233879E+02  0.14871816022E+02  0.17412339632E+02  0.34037563835E+02  0.00000000000E+00 0.  1.
</event>
<event>
 7    1  0.2682317E-010  0.4778727E+02  0.7816164E-02  0.1312668E+00
        -11   -1    0    0    0    0  0.00000000000E+00  0.00000000000E+00  0.45593999997E+02  0.45594000000E+02  0.51100000000E-03 0.  1.
         11   -1    0    0    0    0 -0.00000000000E+00 -0.00000000000E+00 -0.45593999997E+02  0.45594000000E+02  0.51100000000E-03 0. -1.
    9900012    2    1    2    0    0 -0.14230095506E+02  0.27663287848E+02  0.30263353368E+02  0.47787266484E+02  0.19999979205E+02 0.  0.
         12    1    1    2    0    0  0.14230095506E+02 -0.27663287848E+02 -0.30263353368E+02  0.43400733516E+02  0.00000000000E+00 0. -1.
         11    1    3    3    0    0 -0.54610071342E+01  0.35479717539E+01  0.61900438031E+01  0.89848397333E+01  0.51100000000E-03 0. -1.
        -11    1    3    3    0    0 -0.78962293647E+01  0.19219917168E+02  0.26161398596E+02  0.33409196801E+02  0.51100000000E-03 0.  1.
         12    1    3    3    0    0 -0.87285900678E+00  0.48953989259E+01 -0.20880890305E+01  0.53932299496E+01  0.00000000000E+00 0. -1.
</event>
<event>
 7    1  0.2682317E-010  0.4778727E+02  0.7816164E-02  0.1312668E+00
        -11   -1    0    0    0    0  0.00000000000E+00  0.00000000000E+00  0.45593999997E+02  0.45594000000E+02  0.51100000000E-03 0.  1.
         11   -1    0    0    0    0 -0.00000000000E+00 -0.00000000000E+00 -0.45593999997E+02  0.45594000000E+02  0.51100000000E-03 0. -1.
    9900012    2    1    2    0    0  0.46933943817E+01 -0.35294356497E+02  0.24817402823E+02  0.47787273805E+02  0.20000012587E+02 0.  0.
         12    1    1    2    0    0 -0.46933943817E+01  0.35294356497E+02 -0.24817402823E+02  0.43400726195E+02  0.00000000000E+00 0. -1.
         11    1    3    3    0    0  0.30378521040E+01 -0.10072414055E+02  0.73638468653E+01  0.12841663102E+02  0.51100000000E-03 0. -1.
        -11    1    3    3    0    0  0.32715937003E+01 -0.17792375019E+02  0.19961434537E+02  0.26939391292E+02  0.51100000000E-03 0.  1.
         12    1    3    3    0    0 -0.16160514226E+01 -0.74295674230E+01 -0.25078785791E+01  0.80062194113E+01  0.00000000000E+00 0. -1.
</event>
<event>
 7    1  0.2682317E-010  0.4778727E+02  0.7816164E-02  0.1312668E+00
        -11   -1    0    0    0    0  0.00000000000E+00  0.00000000000E+00  0.45593999997E+02  0.45594000000E+02  0.51100000000E-03 0.  1.
         11   -1    0    0    0    0 -0.00000000000E+00 -0.00000000000E+00 -0.45593999997E+02  0.45594000000E+02  0.51100000000E-03 0. -1.
    9900012    2    1    2    0    0  0.42867780261E+01 -0.40259704493E+02  0.15633397137E+02  0.47787269848E+02  0.19999994544E+02 0.  0.
         12    1    1    2    0    0 -0.42867780261E+01  0.40259704493E+02 -0.15633397137E+02  0.43400730152E+02  0.00000000000E+00 0. -1.
         11    1    3    3    0    0  0.14133596861E+01 -0.10096818321E+02  0.11656342619E+02  0.15485917775E+02  0.51100000000E-03 0. -1.
        -11    1    3    3    0    0  0.50094250368E+01 -0.17832249015E+02  0.63172224988E+01  0.19570149322E+02  0.51100000000E-03 0.  1.
         12    1    3    3    0    0 -0.21360066967E+01 -0.12330637157E+02 -0.23401679808E+01  0.12731202751E+02  0.00000000000E+00 0. -1.
</event>
<event>
 7    1  0.2682317E-010  0.4778730E+02  0.7816164E-02  0.1312668E+00
        -11   -1    0    0    0    0  0.00000000000E+00  0.00000000000E+00  0.45593999997E+02  0.45594000000E+02  0.51100000000E-03 0. -1.
         11   -1    0    0    0    0 -0.00000000000E+00 -0.00000000000E+00 -0.45593999997E+02  0.45594000000E+02  0.51100000000E-03 0.  1.
    9900012    2    1    2    0    0 -0.19718465668E+02 -0.26195289996E+02 -0.28436066488E+02  0.47787297430E+02  0.20000120301E+02 0.  0.
         12    1    1    2    0    0  0.19718465668E+02  0.26195289996E+02  0.28436066488E+02  0.43400702570E+02  0.00000000000E+00 0. -1.
         11    1    3    3    0    0 -0.16482636464E+01 -0.11769977274E+02 -0.96560689819E+01  0.15313027346E+02  0.51100000000E-03 0. -1.
        -11    1    3    3    0    0 -0.86803703578E+01 -0.12224556768E+02 -0.17000335201E+02  0.22667157187E+02  0.51100000000E-03 0.  1.
         12    1    3    3    0    0 -0.93898316636E+01 -0.22007559544E+01 -0.17796623053E+01  0.98071128964E+01  0.00000000000E+00 0. -1.
</event>
<event>
 7    1  0.2682317E-010  0.4778731E+02  0.7816164E-02  0.1312668E+00
        -11   -1    0    0    0    0  0.00000000000E+00  0.00000000000E+00  0.45593999997E+02  0.45594000000E+02  0.51100000000E-03 0.  1.
         11   -1    0    0    0    0 -0.00000000000E+00 -0.00000000000E+00 -0.45593999997E+02  0.45594000000E+02  0.51100000000E-03 0. -1.
    9900012    2    1    2    0    0 -0.38901871720E+02 -0.18291506181E+02 -0.59737155386E+01  0.47787307620E+02  0.20000166761E+02 0.  0.
         12    1    1    2    0    0  0.38901871720E+02  0.18291506181E+02  0.59737155386E+01  0.43400692380E+02  0.00000000000E+00 0. -1.
         11    1    3    3    0    0 -0.29692104896E+01 -0.99588351316E+00  0.18822689832E+01  0.36538926763E+01  0.51100000000E-03 0. -1.
        -11    1    3    3    0    0 -0.10671674178E+02 -0.50387544431E+01 -0.10676988833E+02  0.15914514346E+02  0.51100000000E-03 0.  1.
        -12    1    3    3    0    0 -0.25260987053E+02 -0.12256868225E+02  0.28210043108E+01  0.28218900597E+02  0.00000000000E+00 0.  1.
</event>
<event>
 7    1  0.2682317E-010  0.4778727E+02  0.7816164E-02  0.1312668E+00
        -11   -1    0    0    0    0  0.00000000000E+00  0.00000000000E+00  0.45593999997E+02  0.45594000000E+02  0.51100000000E-03 0.  1.
         11   -1    0    0    0    0 -0.00000000000E+00 -0.00000000000E+00 -0.45593999997E+02  0.45594000000E+02  0.51100000000E-03 0. -1.
    9900012    2    1    2    0    0 -0.12813040435E+02 -0.35619251509E+02  0.21230136659E+02  0.47787265147E+02  0.19999973110E+02 0.  0.
         12    1    1    2    0    0  0.12813040435E+02  0.35619251509E+02 -0.21230136659E+02  0.43400734853E+02  0.00000000000E+00 0. -1.
         11    1    3    3    0    0  0.10730493882E+01 -0.76633806575E+01 -0.48187167081E+00  0.77531308940E+01  0.51100000000E-03 0. -1.
        -11    1    3    3    0    0 -0.52289607493E-01 -0.12937144994E+02  0.59535048083E+01  0.14241371934E+02  0.51100000000E-03 0.  1.
         12    1    3    3    0    0 -0.13833800215E+02 -0.15018725857E+02  0.15758503522E+02  0.25792762318E+02  0.00000000000E+00 0. -1.
</event>
<event>
 7    1  0.2682317E-010  0.4778727E+02  0.7816164E-02  0.1312668E+00
        -11   -1    0    0    0    0  0.00000000000E+00  0.00000000000E+00  0.45593999997E+02  0.45594000000E+02  0.51100000000E-03 0. -1.
         11   -1    0    0    0    0 -0.00000000000E+00 -0.00000000000E+00 -0.45593999997E+02  0.45594000000E+02  0.51100000000E-03 0.  1.
    9900012    2    1    2    0    0  0.18425555393E+02  0.37771739628E+02  0.10835948450E+02  0.47787272070E+02  0.20000004675E+02 0.  0.
         12    1    1    2    0    0 -0.18425555393E+02 -0.37771739628E+02 -0.10835948450E+02  0.43400727930E+02  0.00000000000E+00 0. -1.
         11    1    3    3    0    0  0.17045951486E+01  0.54227250403E+01  0.60528204404E+01  0.83035069115E+01  0.51100000000E-03 0. -1.
        -11    1    3    3    0    0  0.14764483335E+02  0.22515616384E+02  0.93020110625E+01  0.28486318810E+02  0.51100000000E-03 0.  1.
         12    1    3    3    0    0  0.19564769095E+01  0.98333982039E+01 -0.45188830527E+01  0.10997446348E+02  0.00000000000E+00 0. -1.
</event>
<event>
 7    1  0.2682317E-010  0.4778727E+02  0.7816164E-02  0.1312668E+00
        -11   -1    0    0    0    0  0.00000000000E+00  0.00000000000E+00  0.45593999997E+02  0.45594000000E+02  0.51100000000E-03 0.  1.
         11   -1    0    0    0    0 -0.00000000000E+00 -0.00000000000E+00 -0.45593999997E+02  0.45594000000E+02  0.51100000000E-03 0. -1.
    9900012    2    1    2    0    0  0.25378245933E+02 -0.33567989687E+02  0.10618752032E+02  0.47787271977E+02  0.20000004250E+02 0.  0.
         12    1    1    2    0    0 -0.25378245933E+02  0.33567989687E+02 -0.10618752032E+02  0.43400728023E+02  0.00000000000E+00 0. -1.
         11    1    3    3    0    0  0.53669645343E+01 -0.97814328062E+01  0.19385358664E+00  0.11158777511E+02  0.51100000000E-03 0. -1.
        -11    1    3    3    0    0  0.21832348744E+02 -0.16964498137E+02  0.10477755289E+02  0.29567363847E+02  0.51100000000E-03 0.  1.
         12    1    3    3    0    0 -0.18210673450E+01 -0.68220587432E+01 -0.52856843317E-01  0.70611306189E+01  0.00000000000E+00 0. -1.
</event>
<event>
 7    1  0.2682317E-010  0.4778727E+02  0.7816164E-02  0.1312668E+00
        -11   -1    0    0    0    0  0.00000000000E+00  0.00000000000E+00  0.45593999997E+02  0.45594000000E+02  0.51100000000E-03 0. -1.
         11   -1    0    0    0    0 -0.00000000000E+00 -0.00000000000E+00 -0.45593999997E+02  0.45594000000E+02  0.51100000000E-03 0.  1.
    9900012    2    1    2    0    0  0.33491649662E+02 -0.13797447369E+02 -0.23907382323E+02  0.47787273272E+02  0.20000010155E+02 0.  0.
         12    1    1    2    0    0 -0.33491649662E+02  0.13797447369E+02  0.23907382323E+02  0.43400726728E+02  0.00000000000E+00 0. -1.
         11    1    3    3    0    0  0.47884024711E+01 -0.93938961430E+01 -0.10957485358E+02  0.15206596220E+02  0.51100000000E-03 0. -1.
        -11    1    3    3    0    0  0.14877526616E+02 -0.38279061799E+01 -0.33055815231E+01  0.15713705273E+02  0.51100000000E-03 0.  1.
        -12    1    3    3    0    0  0.13825720575E+02 -0.57564504606E+00 -0.96443154416E+01  0.16866971778E+02  0.00000000000E+00 0.  1.
</event>
<event>
 7    1  0.2682317E-010  0.4778726E+02  0.7816164E-02  0.1312668E+00
        -11   -1    0    0    0    0  0.00000000000E+00  0.00000000000E+00  0.45593999997E+02  0.45594000000E+02  0.51100000000E-03 0.  1.
         11   -1    0    0    0    0 -0.00000000000E+00 -0.00000000000E+00 -0.45593999997E+02  0.45594000000E+02  0.51100000000E-03 0. -1.
    9900012    2    1    2    0    0 -0.32859084656E+02  0.61149155766E+01  0.27685964348E+02  0.47787259697E+02  0.19999948263E+02 0.  0.
         12    1    1    2    0    0  0.32859084656E+02 -0.61149155766E+01 -0.27685964348E+02  0.43400740303E+02  0.00000000000E+00 0. -1.
         11    1    3    3    0    0 -0.66174442074E+01  0.52421134144E+01  0.97777110609E+01  0.12917970225E+02  0.51100000000E-03 0. -1.
        -11    1    3    3    0    0 -0.15825571084E+02  0.72731177808E+01  0.81621123408E+01  0.19234526782E+02  0.51100000000E-03 0.  1.
         12    1    3    3    0    0 -0.10416069364E+02 -0.64003156186E+01  0.97461409468E+01  0.15634762690E+02  0.00000000000E+00 0. -1.
</event>
<event>
 7    1  0.2682317E-010  0.4778728E+02  0.7816164E-02  0.1312668E+00
        -11   -1    0    0    0    0  0.00000000000E+00  0.00000000000E+00  0.45593999997E+02  0.45594000000E+02  0.51100000000E-03 0.  1.
         11   -1    0    0    0    0 -0.00000000000E+00 -0.00000000000E+00 -0.45593999997E+02  0.45594000000E+02  0.51100000000E-03 0. -1.
    9900012    2    1    2    0    0 -0.17056778729E+02  0.39628122155E+02 -0.47223461164E+01  0.47787282046E+02  0.20000050159E+02 0.  0.
         12    1    1    2    0    0  0.17056778729E+02 -0.39628122155E+02  0.47223461164E+01  0.43400717954E+02  0.00000000000E+00 0. -1.
         11    1    3    3    0    0  0.26108625265E+01  0.86262784746E+00 -0.12870985651E+01  0.30360093729E+01  0.51100000000E-03 0. -1.
        -11    1    3    3    0    0 -0.28113687826E+01  0.14507697196E+01 -0.20748418951E+01  0.37833181683E+01  0.51100000000E-03 0.  1.
        -12    1    3    3    0    0 -0.16856272472E+02  0.37314724588E+02 -0.13604056562E+01  0.40967954504E+02  0.00000000000E+00 0.  1.
</event>
<event>
 7    1  0.2682317E-010  0.4778727E+02  0.7816164E-02  0.1312668E+00
        -11   -1    0    0    0    0  0.00000000000E+00  0.00000000000E+00  0.45593999997E+02  0.45594000000E+02  0.51100000000E-03 0. -1.
         11   -1    0    0    0    0 -0.00000000000E+00 -0.00000000000E+00 -0.45593999997E+02  0.45594000000E+02  0.51100000000E-03 0.  1.
    9900012    2    1    2    0    0  0.39718115868E+02  0.16022009058E+02  0.70277661157E+01  0.47787274212E+02  0.20000014442E+02 0.  0.
         12    1    1    2    0    0 -0.39718115868E+02 -0.16022009058E+02 -0.70277661157E+01  0.43400725788E+02  0.00000000000E+00 0. -1.
         11    1    3    3    0    0  0.92952567642E+00  0.24913379235E+01 -0.22974772371E+01  0.35141406557E+01  0.51100000000E-03 0. -1.
        -11    1    3    3    0    0  0.17380966352E+02  0.12810291289E+02  0.22192681269E+01  0.21705453359E+02  0.51100000000E-03 0.  1.
         12    1    3    3    0    0  0.21407623839E+02  0.72037984548E+00  0.71059752260E+01  0.22567680197E+02  0.00000000000E+00 0. -1.
</event>
<event>
 7    1  0.2682317E-010  0.4778727E+02  0.7816164E-02  0.1312668E+00
        -11   -1    0    0    0    0  0.00000000000E+00  0.00000000000E+00  0.45593999997E+02  0.45594000000E+02  0.51100000000E-03 0.  1.
         11   -1    0    0    0    0 -0.00000000000E+00 -0.00000000000E+00 -0.45593999997E+02  0.45594000000E+02  0.51100000000E-03 0. -1.
    9900012    2    1    2    0    0 -0.20228592482E+02  0.34529528672E+02  0.16796994551E+02  0.47787270397E+02  0.19999997048E+02 0.  0.
         12    1    1    2    0    0  0.20228592482E+02 -0.34529528672E+02 -0.16796994551E+02  0.43400729603E+02  0.00000000000E+00 0. -1.
         11    1    3    3    0    0 -0.30409787717E+01 -0.59875610733E+00  0.41078518141E+00  0.31264685337E+01  0.51100000000E-03 0. -1.
        -11    1    3    3    0    0  0.38625556578E+00  0.92725814048E+01 -0.17524375062E+00  0.92822771939E+01  0.51100000000E-03 0.  1.
        -12    1    3    3    0    0 -0.17573869276E+02  0.25855703375E+02  0.16561453120E+02  0.35378524669E+02  0.00000000000E+00 0.  1.
</event>
<event>
 7    1  0.2682317E-010  0.4778727E+02  0.7816164E-02  0.1312668E+00
        -11   -1    0    0    0    0  0.00000000000E+00  0.00000000000E+00  0.45593999997E+02  0.45594000000E+02  0.51100000000E-03 0.  1.
         11   -1    0    0    0    0 -0.00000000000E+00 -0.00000000000E+00 -0.45593999997E+02  0.45594000000E+02  0.51100000000E-03 0. -1.
    9900012    2    1    2    0    0  0.15163440582E+02 -0.24324945725E+01  0.40592810759E+02  0.47787271372E+02  0.20000001493E+02 0.  0.
         12    1    1    2    0    0 -0.15163440582E+02  0.24324945725E+01 -0.40592810759E+02  0.43400728628E+02  0.00000000000E+00 0. -1.
         11    1    3    3    0    0  0.29719979106E+01 -0.16357023454E+01  0.79312155820E+01  0.86262665512E+01  0.51100000000E-03 0. -1.
        -11    1    3    3    0    0  0.14240339125E+02  0.18181442757E+01  0.32833241381E+02  0.35834545440E+02  0.51100000000E-03 0.  1.
         12    1    3    3    0    0 -0.20488964540E+01 -0.26149365027E+01 -0.17164620427E+00  0.33264593808E+01  0.00000000000E+00 0. -1.
</event>
<event>
 7    1  0.2682317E-010  0.4778727E+02  0.7816164E-02  0.1312668E+00
        -11   -1    0    0    0    0  0.00000000000E+00  0.00000000000E+00  0.45593999997E+02  0.45594000000E+02  0.51100000000E-03 0.  1.
         11   -1    0    0    0    0 -0.00000000000E+00 -0.00000000000E+00 -0.45593999997E+02  0.45594000000E+02  0.51100000000E-03 0. -1.
    9900012    2    1    2    0    0 -0.29534830416E+01 -0.21761427685E+01  0.43245399067E+02  0.47787271897E+02  0.20000003887E+02 0.  0.
         12    1    1    2    0    0  0.29534830416E+01  0.21761427685E+01 -0.43245399067E+02  0.43400728103E+02  0.00000000000E+00 0. -1.
         11    1    3    3    0    0 -0.29359596698E+01 -0.89201111368E+01  0.21965826915E+02  0.23889030834E+02  0.51100000000E-03 0. -1.
        -11    1    3    3    0    0  0.24046481419E+01 -0.86723028901E+00  0.80330327809E+01  0.84299488125E+01  0.51100000000E-03 0.  1.
        -12    1    3    3    0    0 -0.24221715136E+01  0.76111986573E+01  0.13246539370E+02  0.15468292250E+02  0.00000000000E+00 0.  1.
</event>
<event>
 7    1  0.2682317E-010  0.4778727E+02  0.7816164E-02  0.1312668E+00
        -11   -1    0    0    0    0  0.00000000000E+00  0.00000000000E+00  0.45593999997E+02  0.45594000000E+02  0.51100000000E-03 0.  1.
         11   -1    0    0    0    0 -0.00000000000E+00 -0.00000000000E+00 -0.45593999997E+02  0.45594000000E+02  0.51100000000E-03 0. -1.
    9900012    2    1    2    0    0  0.37675617410E+02 -0.16780924762E+02  0.13511925360E+02  0.47787266020E+02  0.19999977090E+02 0.  0.
         12    1    1    2    0    0 -0.37675617410E+02  0.16780924762E+02 -0.13511925360E+02  0.43400733980E+02  0.00000000000E+00 0. -1.
         11    1    3    3    0    0  0.15696538865E+02 -0.35003833896E+01 -0.11732240038E+00  0.16082530305E+02  0.51100000000E-03 0. -1.
        -11    1    3    3    0    0  0.13861177853E+01  0.38204873911E+00 -0.20007423430E+01  0.24637885335E+01  0.51100000000E-03 0.  1.
        -12    1    3    3    0    0  0.20592960760E+02 -0.13662590111E+02  0.15629990103E+02  0.29240947181E+02  0.00000000000E+00 0.  1.
</event>
<event>
 7    1  0.2682317E-010  0.4778728E+02  0.7816164E-02  0.1312668E+00
        -11   -1    0    0    0    0  0.00000000000E+00  0.00000000000E+00  0.45593999997E+02  0.45594000000E+02  0.51100000000E-03 0.  1.
         11   -1    0    0    0    0 -0.00000000000E+00 -0.00000000000E+00 -0.45593999997E+02  0.45594000000E+02  0.51100000000E-03 0. -1.
    9900012    2    1    2    0    0 -0.26201474052E+02  0.26956771474E+02 -0.21689586418E+02  0.47787275008E+02  0.20000018073E+02 0.  0.
         12    1    1    2    0    0  0.26201474052E+02 -0.26956771474E+02  0.21689586418E+02  0.43400724992E+02  0.00000000000E+00 0. -1.
         11    1    3    3    0    0  0.10851653691E+01  0.10548207699E+01  0.24299932782E+01  0.28627082157E+01  0.51100000000E-03 0. -1.
        -11    1    3    3    0    0 -0.10317028782E+01  0.25336969012E+01 -0.20973099350E+01  0.34471350482E+01  0.51100000000E-03 0.  1.
        -12    1    3    3    0    0 -0.26254936543E+02  0.23368253803E+02 -0.22022269761E+02  0.41477431744E+02  0.00000000000E+00 0.  1.
</event>
<event>
 7    1  0.2682317E-010  0.4778727E+02  0.7816164E-02  0.1312668E+00
        -11   -1    0    0    0    0  0.00000000000E+00  0.00000000000E+00  0.45593999997E+02  0.45594000000E+02  0.51100000000E-03 0.  1.
         11   -1    0    0    0    0 -0.00000000000E+00 -0.00000000000E+00 -0.45593999997E+02  0.45594000000E+02  0.51100000000E-03 0. -1.
    9900012    2    1    2    0    0  0.75109043784E+01  0.42670832971E+02 -0.25317617156E+01  0.47787268573E+02  0.19999988731E+02 0.  0.
         12    1    1    2    0    0 -0.75109043784E+01 -0.42670832971E+02  0.25317617156E+01  0.43400731427E+02  0.00000000000E+00 0. -1.
         11    1    3    3    0    0  0.10520951483E+00  0.11710217465E+02 -0.66700840437E+01  0.13477027993E+02  0.51100000000E-03 0. -1.
        -11    1    3    3    0    0  0.11051042471E+01  0.21389902396E+02 -0.16326818981E+01  0.21480568669E+02  0.51100000000E-03 0.  1.
        -12    1    3    3    0    0  0.63005906165E+01  0.95707131105E+01  0.57710042262E+01  0.12829671911E+02  0.00000000000E+00 0.  1.
</event>
<event>
 7    1  0.2682317E-010  0.4778725E+02  0.7816164E-02  0.1312668E+00
        -11   -1    0    0    0    0  0.00000000000E+00  0.00000000000E+00  0.45593999997E+02  0.45594000000E+02  0.51100000000E-03 0. -1.
         11   -1    0    0    0    0 -0.00000000000E+00 -0.00000000000E+00 -0.45593999997E+02  0.45594000000E+02  0.51100000000E-03 0.  1.
    9900012    2    1    2    0    0 -0.15225683274E+02  0.40641619937E+02 -0.24924537347E+00  0.47787253168E+02  0.19999918495E+02 0.  0.
         12    1    1    2    0    0  0.15225683274E+02 -0.40641619937E+02  0.24924537347E+00  0.43400746832E+02  0.00000000000E+00 0. -1.
         11    1    3    3    0    0 -0.39536327362E+01  0.32487673115E+01  0.34894016593E+01  0.61936762152E+01  0.51100000000E-03 0. -1.
        -11    1    3    3    0    0 -0.64451131861E+01  0.37923762831E+01 -0.52924332501E+00  0.74967793493E+01  0.51100000000E-03 0.  1.
        -12    1    3    3    0    0 -0.48269373519E+01  0.33600476343E+02 -0.32094037077E+01  0.34096797604E+02  0.00000000000E+00 0.  1.
</event>
<event>
 7    1  0.2682317E-010  0.4778727E+02  0.7816164E-02  0.1312668E+00
        -11   -1    0    0    0    0  0.00000000000E+00  0.00000000000E+00  0.45593999997E+02  0.45594000000E+02  0.51100000000E-03 0. -1.
         11   -1    0    0    0    0 -0.00000000000E+00 -0.00000000000E+00 -0.45593999997E+02  0.45594000000E+02  0.51100000000E-03 0.  1.
    9900012    2    1    2    0    0 -0.42365150934E+02  0.23758384606E+01 -0.91199043078E+01  0.47787271013E+02  0.19999999854E+02 0.  0.
         12    1    1    2    0    0  0.42365150934E+02 -0.23758384606E+01  0.91199043078E+01  0.43400728987E+02  0.00000000000E+00 0. -1.
         11    1    3    3    0    0 -0.61222805670E+01 -0.46175355999E+01 -0.24841594632E+01  0.80607073422E+01  0.51100000000E-03 0. -1.
        -11    1    3    3    0    0 -0.24900948914E+02 -0.75104840163E+00 -0.73511017622E+01  0.25974218524E+02  0.51100000000E-03 0.  1.
         12    1    3    3    0    0 -0.11341921453E+02  0.77444224621E+01  0.71535691754E+00  0.13752345147E+02  0.00000000000E+00 0. -1.
</event>
<event>
 7    1  0.2682317E-010  0.4778727E+02  0.7816164E-02  0.1312668E+00
        -11   -1    0    0    0    0  0.00000000000E+00  0.00000000000E+00  0.45593999997E+02  0.45594000000E+02  0.51100000000E-03 0. -1.
         11   -1    0    0    0    0 -0.00000000000E+00 -0.00000000000E+00 -0.45593999997E+02  0.45594000000E+02  0.51100000000E-03 0.  1.
    9900012    2    1    2    0    0  0.29294144897E+02 -0.31419296488E+02  0.61890513736E+01  0.47787268740E+02  0.19999989492E+02 0.  0.
         12    1    1    2    0    0 -0.29294144897E+02  0.31419296488E+02 -0.61890513736E+01  0.43400731260E+02  0.00000000000E+00 0. -1.
         11    1    3    3    0    0  0.44746104796E+01 -0.96835094914E+01  0.69904273722E+01  0.12753766899E+02  0.51100000000E-03 0. -1.
        -11    1    3    3    0    0  0.52596072909E+01 -0.11904012357E+02  0.10918656180E+01  0.13059906195E+02  0.51100000000E-03 0.  1.
         12    1    3    3    0    0  0.19559927126E+02 -0.98317746393E+01 -0.18932416167E+01  0.21973595645E+02  0.00000000000E+00 0. -1.
</event>
<event>
 7    1  0.2682317E-010  0.4778727E+02  0.7816164E-02  0.1312668E+00
        -11   -1    0    0    0    0  0.00000000000E+00  0.00000000000E+00  0.45593999997E+02  0.45594000000E+02  0.51100000000E-03 0. -1.
         11   -1    0    0    0    0 -0.00000000000E+00 -0.00000000000E+00 -0.45593999997E+02  0.45594000000E+02  0.51100000000E-03 0.  1.
    9900012    2    1    2    0    0 -0.38478357318E+02 -0.14522918168E+02 -0.13860889926E+02  0.47787269550E+02  0.19999993188E+02 0.  0.
         12    1    1    2    0    0  0.38478357318E+02  0.14522918168E+02  0.13860889926E+02  0.43400730450E+02  0.00000000000E+00 0. -1.
         11    1    3    3    0    0 -0.39356956059E+01  0.13985944374E+01 -0.28938635127E+01  0.50813593254E+01  0.51100000000E-03 0. -1.
        -11    1    3    3    0    0 -0.31994636802E+02 -0.86023914511E+01 -0.11141074231E+02  0.34953990588E+02  0.51100000000E-03 0.  1.
         12    1    3    3    0    0 -0.25480249103E+01 -0.73191211540E+01  0.17404781743E+00  0.77519196367E+01  0.00000000000E+00 0. -1.
</event>
<event>
 7    1  0.2682317E-010  0.4778727E+02  0.7816164E-02  0.1312668E+00
        -11   -1    0    0    0    0  0.00000000000E+00  0.00000000000E+00  0.45593999997E+02  0.45594000000E+02  0.51100000000E-03 0.  1.
         11   -1    0    0    0    0 -0.00000000000E+00 -0.00000000000E+00 -0.45593999997E+02  0.45594000000E+02  0.51100000000E-03 0. -1.
    9900012    2    1    2    0    0 -0.61754505301E+01 -0.27964193744E+02  0.32611206346E+02  0.47787273044E+02  0.20000009115E+02 0.  0.
         12    1    1    2    0    0  0.61754505301E+01  0.27964193744E+02 -0.32611206346E+02  0.43400726956E+02  0.00000000000E+00 0. -1.
         11    1    3    3    0    0  0.63389391370E+00 -0.80670658422E+01  0.12330445844E+02  0.14748534428E+02  0.51100000000E-03 0. -1.
        -11    1    3    3    0    0 -0.96418574268E+01 -0.12703723887E+02  0.19613179459E+02  0.25278979884E+02  0.51100000000E-03 0.  1.
         12    1    3    3    0    0  0.28325129830E+01 -0.71934040150E+01  0.66758104295E+00  0.77597587314E+01  0.00000000000E+00 0. -1.
</event>
<event>
 7    1  0.2682317E-010  0.4778727E+02  0.7816164E-02  0.1312668E+00
        -11   -1    0    0    0    0  0.00000000000E+00  0.00000000000E+00  0.45593999997E+02  0.45594000000E+02  0.51100000000E-03 0. -1.
         11   -1    0    0    0    0 -0.00000000000E+00 -0.00000000000E+00 -0.45593999997E+02  0.45594000000E+02  0.51100000000E-03 0.  1.
    9900012    2    1    2    0    0 -0.26367263166E+02 -0.29485274001E+02 -0.17860835594E+02  0.47787269615E+02  0.19999993484E+02 0.  0.
         12    1    1    2    0    0  0.26367263166E+02  0.29485274001E+02  0.17860835594E+02  0.43400730385E+02  0.00000000000E+00 0. -1.
         11    1    3    3    0    0 -0.94229515382E+01 -0.31143525944E+01 -0.10963644432E+02  0.14788262483E+02  0.51100000000E-03 0.  1.
        -11    1    3    3    0    0 -0.60586289456E+01 -0.41539369782E+01 -0.11928767639E+00  0.73468637479E+01  0.51100000000E-03 0. -1.
        -12    1    3    3    0    0 -0.10885682682E+02 -0.22216984429E+02 -0.67779034858E+01  0.25652143385E+02  0.00000000000E+00 0.  1.
</event>
<event>
 7    1  0.2682317E-010  0.4778727E+02  0.7816164E-02  0.1312668E+00
        -11   -1    0    0    0    0  0.00000000000E+00  0.00000000000E+00  0.45593999997E+02  0.45594000000E+02  0.51100000000E-03 0. -1.
         11   -1    0    0    0    0 -0.00000000000E+00 -0.00000000000E+00 -0.45593999997E+02  0.45594000000E+02  0.51100000000E-03 0.  1.
    9900012    2    1    2    0    0  0.80494022521E+01  0.80735193640E+01 -0.41876587570E+02  0.47787272149E+02  0.20000005034E+02 0.  0.
         12    1    1    2    0    0 -0.80494022521E+01 -0.80735193640E+01  0.41876587570E+02  0.43400727851E+02  0.00000000000E+00 0. -1.
         11    1    3    3    0    0 -0.86961456584E+00  0.78330520852E+01 -0.23648775348E+02  0.24927444919E+02  0.51100000000E-03 0. -1.
        -11    1    3    3    0    0 -0.22177861470E+01  0.10864722112E+01 -0.20973438895E+01  0.32400384121E+01  0.51100000000E-03 0.  1.
        -12    1    3    3    0    0  0.11136802965E+02 -0.84600493237E+00 -0.16130468332E+02  0.19619788818E+02  0.00000000000E+00 0.  1.
</event>
<event>
 7    1  0.2682317E-010  0.4778727E+02  0.7816164E-02  0.1312668E+00
        -11   -1    0    0    0    0  0.00000000000E+00  0.00000000000E+00  0.45593999997E+02  0.45594000000E+02  0.51100000000E-03 0.  1.
         11   -1    0    0    0    0 -0.00000000000E+00 -0.00000000000E+00 -0.45593999997E+02  0.45594000000E+02  0.51100000000E-03 0. -1.
    9900012    2    1    2    0    0  0.26837265889E+02  0.33630578861E+02  0.56893583352E+01  0.47787268748E+02  0.19999989530E+02 0.  0.
         12    1    1    2    0    0 -0.26837265889E+02 -0.33630578861E+02 -0.56893583352E+01  0.43400731252E+02  0.00000000000E+00 0. -1.
         11    1    3    3    0    0  0.30074510681E+01  0.31685943611E+01  0.57205609411E+00  0.44059051951E+01  0.51100000000E-03 0. -1.
        -11    1    3    3    0    0  0.19223084089E+02  0.30754751045E+02  0.89788722180E+01  0.37363107744E+02  0.51100000000E-03 0.  1.
         12    1    3    3    0    0  0.46067307325E+01 -0.29276654549E+00 -0.38615699769E+01  0.60182558087E+01  0.00000000000E+00 0. -1.
</event>
<event>
 7    1  0.2682317E-010  0.4778726E+02  0.7816164E-02  0.1312668E+00
        -11   -1    0    0    0    0  0.00000000000E+00  0.00000000000E+00  0.45593999997E+02  0.45594000000E+02  0.51100000000E-03 0.  1.
         11   -1    0    0    0    0 -0.00000000000E+00 -0.00000000000E+00 -0.45593999997E+02  0.45594000000E+02  0.51100000000E-03 0. -1.
    9900012    2    1    2    0    0  0.26932870819E+02  0.22620147354E+02  0.25427803904E+02  0.47787264888E+02  0.19999971931E+02 0.  0.
         12    1    1    2    0    0 -0.26932870819E+02 -0.22620147354E+02 -0.25427803904E+02  0.43400735112E+02  0.00000000000E+00 0. -1.
         11    1    3    3    0    0  0.10138279585E+02  0.12835165295E+02  0.13422231753E+02  0.21158508610E+02  0.51100000000E-03 0. -1.
        -11    1    3    3    0    0  0.14505467762E+02  0.10962130376E+02  0.45515775577E+01  0.18742832121E+02  0.51100000000E-03 0.  1.
         12    1    3    3    0    0  0.22891234717E+01 -0.11771483166E+01  0.74539945929E+01  0.78859241576E+01  0.00000000000E+00 0. -1.
</event>
<event>
 7    1  0.2682317E-010  0.4778727E+02  0.7816164E-02  0.1312668E+00
        -11   -1    0    0    0    0  0.00000000000E+00  0.00000000000E+00  0.45593999997E+02  0.45594000000E+02  0.51100000000E-03 0. -1.
         11   -1    0    0    0    0 -0.00000000000E+00 -0.00000000000E+00 -0.45593999997E+02  0.45594000000E+02  0.51100000000E-03 0.  1.
    9900012    2    1    2    0    0 -0.16180885906E+02  0.39377217799E+02 -0.84402073399E+01  0.47787269013E+02  0.19999990738E+02 0.  0.
         12    1    1    2    0    0  0.16180885906E+02 -0.39377217799E+02  0.84402073399E+01  0.43400730987E+02  0.00000000000E+00 0. -1.
         11    1    3    3    0    0  0.14893223364E+01  0.60336528678E+00  0.16050094434E+01  0.22711640772E+01  0.51100000000E-03 0. -1.
        -11    1    3    3    0    0 -0.10039638142E+02  0.22246345570E+02 -0.12018538092E+02  0.27205504652E+02  0.51100000000E-03 0.  1.
         12    1    3    3    0    0 -0.76305701002E+01  0.16527506942E+02  0.19733213083E+01  0.18310600284E+02  0.00000000000E+00 0. -1.
</event>
<event>
 7    1  0.2682317E-010  0.4778728E+02  0.7816164E-02  0.1312668E+00
        -11   -1    0    0    0    0  0.00000000000E+00  0.00000000000E+00  0.45593999997E+02  0.45594000000E+02  0.51100000000E-03 0. -1.
         11   -1    0    0    0    0 -0.00000000000E+00 -0.00000000000E+00 -0.45593999997E+02  0.45594000000E+02  0.51100000000E-03 0.  1.
    9900012    2    1    2    0    0 -0.36595405369E+02 -0.85586640674E+01 -0.21705953726E+02  0.47787275905E+02  0.20000022163E+02 0.  0.
         12    1    1    2    0    0  0.36595405369E+02  0.85586640674E+01  0.21705953726E+02  0.43400724095E+02  0.00000000000E+00 0. -1.
         11    1    3    3    0    0 -0.13064356840E+02 -0.33245764474E+01 -0.37342651126E+01  0.13988386769E+02  0.51100000000E-03 0.  1.
        -11    1    3    3    0    0 -0.27071010789E+01  0.43215780209E+01 -0.78954154341E+00  0.51602140413E+01  0.51100000000E-03 0. -1.
        -12    1    3    3    0    0 -0.20823947450E+02 -0.95556656410E+01 -0.17182147070E+02  0.28638675095E+02  0.00000000000E+00 0.  1.
</event>
<event>
 7    1  0.2682317E-010  0.4778727E+02  0.7816164E-02  0.1312668E+00
        -11   -1    0    0    0    0  0.00000000000E+00  0.00000000000E+00  0.45593999997E+02  0.45594000000E+02  0.51100000000E-03 0.  1.
         11   -1    0    0    0    0 -0.00000000000E+00 -0.00000000000E+00 -0.45593999997E+02  0.45594000000E+02  0.51100000000E-03 0. -1.
    9900012    2    1    2    0    0  0.39664888816E+02  0.49449038092E+01  0.16907624234E+02  0.47787271484E+02  0.20000002004E+02 0.  0.
         12    1    1    2    0    0 -0.39664888816E+02 -0.49449038092E+01 -0.16907624234E+02  0.43400728516E+02  0.00000000000E+00 0. -1.
         11    1    3    3    0    0  0.89607626186E+00  0.43787169594E+01  0.95097162229E+00  0.45695144343E+01  0.51100000000E-03 0. -1.
        -11    1    3    3    0    0  0.15432459502E+02  0.53661973245E+01  0.63904419581E+01  0.17544076741E+02  0.51100000000E-03 0.  1.
         12    1    3    3    0    0  0.23336353052E+02 -0.48000104747E+01  0.95662106534E+01  0.25673680309E+02  0.00000000000E+00 0. -1.
</event>
<event>
 7    1  0.2682317E-010  0.4778727E+02  0.7816164E-02  0.1312668E+00
        -11   -1    0    0    0    0  0.00000000000E+00  0.00000000000E+00  0.45593999997E+02  0.45594000000E+02  0.51100000000E-03 0.  1.
         11   -1    0    0    0    0 -0.00000000000E+00 -0.00000000000E+00 -0.45593999997E+02  0.45594000000E+02  0.51100000000E-03 0. -1.
    9900012    2    1    2    0    0 -0.26848726903E+02 -0.17868427528E+01  0.34052556233E+02  0.47787268101E+02  0.19999986580E+02 0.  0.
         12    1    1    2    0    0  0.26848726903E+02  0.17868427528E+01 -0.34052556233E+02  0.43400731899E+02  0.00000000000E+00 0. -1.
         11    1    3    3    0    0 -0.39393819234E+01  0.52589811884E+01  0.13612978268E+02  0.15115845682E+02  0.51100000000E-03 0. -1.
        -11    1    3    3    0    0 -0.39030590564E+01  0.17106334274E+01  0.55081625634E+01  0.69641935504E+01  0.51100000000E-03 0.  1.
        -12    1    3    3    0    0 -0.19006285923E+02 -0.87564573686E+01  0.14931415402E+02  0.25707228869E+02  0.00000000000E+00 0.  1.
</event>
<event>
 7    1  0.2682317E-010  0.4778727E+02  0.7816164E-02  0.1312668E+00
        -11   -1    0    0    0    0  0.00000000000E+00  0.00000000000E+00  0.45593999997E+02  0.45594000000E+02  0.51100000000E-03 0. -1.
         11   -1    0    0    0    0 -0.00000000000E+00 -0.00000000000E+00 -0.45593999997E+02  0.45594000000E+02  0.51100000000E-03 0.  1.
    9900012    2    1    2    0    0 -0.42574572705E+02  0.43319035450E+01  0.72293647053E+01  0.47787270244E+02  0.19999996349E+02 0.  0.
         12    1    1    2    0    0  0.42574572705E+02 -0.43319035450E+01 -0.72293647053E+01  0.43400729756E+02  0.00000000000E+00 0. -1.
         11    1    3    3    0    0 -0.22928141996E+02  0.29592831913E+01  0.85195298089E+01  0.24638170404E+02  0.51100000000E-03 0. -1.
        -11    1    3    3    0    0 -0.98022124372E+01 -0.41504562298E+01  0.30225943359E+01  0.11065519977E+02  0.51100000000E-03 0.  1.
        -12    1    3    3    0    0 -0.98442182715E+01  0.55230765836E+01 -0.43127594395E+01  0.12083579863E+02  0.00000000000E+00 0.  1.
</event>
<event>
 7    1  0.2682317E-010  0.4778728E+02  0.7816164E-02  0.1312668E+00
        -11   -1    0    0    0    0  0.00000000000E+00  0.00000000000E+00  0.45593999997E+02  0.45594000000E+02  0.51100000000E-03 0. -1.
         11   -1    0    0    0    0 -0.00000000000E+00 -0.00000000000E+00 -0.45593999997E+02  0.45594000000E+02  0.51100000000E-03 0.  1.
    9900012    2    1    2    0    0 -0.94112966685E+01  0.18348840646E+02 -0.38188608232E+02  0.47787282763E+02  0.20000053429E+02 0.  0.
         12    1    1    2    0    0  0.94112966685E+01 -0.18348840646E+02  0.38188608232E+02  0.43400717237E+02  0.00000000000E+00 0. -1.
         11    1    3    3    0    0 -0.69218302916E+01  0.96052135880E+01 -0.92167666865E+01  0.15004021163E+02  0.51100000000E-03 0. -1.
        -11    1    3    3    0    0 -0.63293272642E+01  0.22221981210E+01 -0.77367715833E+01  0.10239930805E+02  0.51100000000E-03 0.  1.
         12    1    3    3    0    0  0.38398608873E+01  0.65214289366E+01 -0.21235069962E+02  0.22543330794E+02  0.00000000000E+00 0. -1.
</event>
<event>
 7    1  0.2682317E-010  0.4778727E+02  0.7816164E-02  0.1312668E+00
        -11   -1    0    0    0    0  0.00000000000E+00  0.00000000000E+00  0.45593999997E+02  0.45594000000E+02  0.51100000000E-03 0.  1.
         11   -1    0    0    0    0 -0.00000000000E+00 -0.00000000000E+00 -0.45593999997E+02  0.45594000000E+02  0.51100000000E-03 0. -1.
    9900012    2    1    2    0    0  0.57679564119E+01  0.66774379661E+00  0.43010563701E+02  0.47787265066E+02  0.19999972742E+02 0.  0.
         12    1    1    2    0    0 -0.57679564119E+01 -0.66774379661E+00 -0.43010563701E+02  0.43400734934E+02  0.00000000000E+00 0. -1.
         11    1    3    3    0    0 -0.43271864500E+01 -0.33331317346E+01  0.11347790450E+02  0.12593913533E+02  0.51100000000E-03 0. -1.
        -11    1    3    3    0    0  0.11459946621E+01  0.46913684846E+01  0.45562228289E+01  0.66393831605E+01  0.51100000000E-03 0.  1.
        -12    1    3    3    0    0  0.89491481998E+01 -0.69049295342E+00  0.27106550422E+02  0.28553968372E+02  0.00000000000E+00 0.  1.
</event>
<event>
 7    1  0.2682317E-010  0.4778727E+02  0.7816164E-02  0.1312668E+00
        -11   -1    0    0    0    0  0.00000000000E+00  0.00000000000E+00  0.45593999997E+02  0.45594000000E+02  0.51100000000E-03 0.  1.
         11   -1    0    0    0    0 -0.00000000000E+00 -0.00000000000E+00 -0.45593999997E+02  0.45594000000E+02  0.51100000000E-03 0. -1.
    9900012    2    1    2    0    0  0.27437306884E+01  0.39238087125E+02  0.18343069914E+02  0.47787265523E+02  0.19999974824E+02 0.  0.
         12    1    1    2    0    0 -0.27437306884E+01 -0.39238087125E+02 -0.18343069914E+02  0.43400734477E+02  0.00000000000E+00 0. -1.
         11    1    3    3    0    0 -0.35326359207E+01  0.11614054916E+01  0.10207880748E+01  0.38562141822E+01  0.51100000000E-03 0. -1.
        -11    1    3    3    0    0 -0.31588592443E+01  0.13327603146E+02  0.79398276883E+01  0.15831748524E+02  0.51100000000E-03 0.  1.
         12    1    3    3    0    0  0.94352258535E+01  0.24749078487E+02  0.93824541507E+01  0.28099302816E+02  0.00000000000E+00 0. -1.
</event>
<event>
 7    1  0.2682317E-010  0.4778727E+02  0.7816164E-02  0.1312668E+00
        -11   -1    0    0    0    0  0.00000000000E+00  0.00000000000E+00  0.45593999997E+02  0.45594000000E+02  0.51100000000E-03 0.  1.
         11   -1    0    0    0    0 -0.00000000000E+00 -0.00000000000E+00 -0.45593999997E+02  0.45594000000E+02  0.51100000000E-03 0. -1.
    9900012    2    1    2    0    0 -0.15659148500E+02 -0.18374693757E+02  0.36066398310E+02  0.47787269713E+02  0.19999993930E+02 0.  0.
         12    1    1    2    0    0  0.15659148500E+02  0.18374693757E+02 -0.36066398310E+02  0.43400730287E+02  0.00000000000E+00 0. -1.
         11    1    3    3    0    0 -0.83959767649E+01 -0.37629839969E+01  0.15390087072E+02  0.17930623379E+02  0.51100000000E-03 0. -1.
        -11    1    3    3    0    0 -0.18947806803E+01  0.27143875823E+01  0.42365359413E+01  0.53764608077E+01  0.51100000000E-03 0.  1.
         12    1    3    3    0    0 -0.53683910551E+01 -0.17326097342E+02  0.16439775296E+02  0.24480185527E+02  0.00000000000E+00 0. -1.
</event>
<event>
 7    1  0.2682317E-010  0.4778727E+02  0.7816164E-02  0.1312668E+00
        -11   -1    0    0    0    0  0.00000000000E+00  0.00000000000E+00  0.45593999997E+02  0.45594000000E+02  0.51100000000E-03 0. -1.
         11   -1    0    0    0    0 -0.00000000000E+00 -0.00000000000E+00 -0.45593999997E+02  0.45594000000E+02  0.51100000000E-03 0.  1.
    9900012    2    1    2    0    0  0.25654176709E+02 -0.28832509699E+02  0.19853792690E+02  0.47787268643E+02  0.19999989051E+02 0.  0.
         12    1    1    2    0    0 -0.25654176709E+02  0.28832509699E+02 -0.19853792690E+02  0.43400731357E+02  0.00000000000E+00 0. -1.
         11    1    3    3    0    0  0.18468594278E+02 -0.18067830888E+02  0.13684953890E+02  0.29237192937E+02  0.51100000000E-03 0. -1.
        -11    1    3    3    0    0  0.26409077458E+01 -0.12214574997E+02  0.57655796359E+01  0.13762708487E+02  0.51100000000E-03 0.  1.
         12    1    3    3    0    0  0.45446746847E+01  0.14498961861E+01  0.40325916349E+00  0.47873672193E+01  0.00000000000E+00 0. -1.
</event>
<event>
 7    1  0.5138865E-009  0.4778727E+02  0.7816164E-02  0.1312668E+00
        -11   -1    0    0    0    0  0.00000000000E+00  0.00000000000E+00  0.45593999997E+02  0.45594000000E+02  0.51100000000E-03 0.  1.
         11   -1    0    0    0    0 -0.00000000000E+00 -0.00000000000E+00 -0.45593999997E+02  0.45594000000E+02  0.51100000000E-03 0. -1.
    9900012    2    1    2    0    0  0.11636980084E+02 -0.13179329861E+02  0.39680086799E+02  0.47787270404E+02  0.19999997082E+02 0.  0.
         12    1    1    2    0    0 -0.11636980084E+02  0.13179329861E+02 -0.39680086799E+02  0.43400729596E+02  0.00000000000E+00 0. -1.
         11    1    3    3    0    0  0.20454975314E+01 -0.57864565495E+01  0.51774505221E+01  0.80295164064E+01  0.51100000000E-03 0. -1.
        -11    1    3    3    0    0  0.90199024911E+01 -0.96227159333E+01  0.35000078925E+02  0.37402684769E+02  0.51100000000E-03 0.  1.
        -12    1    3    3    0    0  0.57158006110E+00  0.22298426222E+01 -0.49744264814E+00  0.23550692292E+01  0.00000000000E+00 0.  1.
</event>
<event>
 7    1  0.2682317E-010  0.4778727E+02  0.7816164E-02  0.1312668E+00
        -11   -1    0    0    0    0  0.00000000000E+00  0.00000000000E+00  0.45593999997E+02  0.45594000000E+02  0.51100000000E-03 0.  1.
         11   -1    0    0    0    0 -0.00000000000E+00 -0.00000000000E+00 -0.45593999997E+02  0.45594000000E+02  0.51100000000E-03 0. -1.
    9900012    2    1    2    0    0  0.22959330570E+02  0.25668546301E+02  0.26412459451E+02  0.47787272544E+02  0.20000006837E+02 0.  0.
         12    1    1    2    0    0 -0.22959330570E+02 -0.25668546301E+02 -0.26412459451E+02  0.43400727456E+02  0.00000000000E+00 0. -1.
         11    1    3    3    0    0 -0.85036294217E+00  0.38730953900E+01 -0.84080683718E+00  0.40535097671E+01  0.51100000000E-03 0. -1.
        -11    1    3    3    0    0  0.68268142870E+01  0.13239272451E+02  0.91705351599E+01  0.17492353865E+02  0.51100000000E-03 0.  1.
        -12    1    3    3    0    0  0.16982879225E+02  0.85561784598E+01  0.18082731129E+02  0.26241408912E+02  0.00000000000E+00 0.  1.
</event>
<event>
 7    1  0.2682317E-010  0.4778728E+02  0.7816164E-02  0.1312668E+00
        -11   -1    0    0    0    0  0.00000000000E+00  0.00000000000E+00  0.45593999997E+02  0.45594000000E+02  0.51100000000E-03 0.  1.
         11   -1    0    0    0    0 -0.00000000000E+00 -0.00000000000E+00 -0.45593999997E+02  0.45594000000E+02  0.51100000000E-03 0. -1.
    9900012    2    1    2    0    0  0.70921948706E+01 -0.33270767443E+02  0.26951431849E+02  0.47787275662E+02  0.20000021053E+02 0.  0.
         12    1    1    2    0    0 -0.70921948706E+01  0.33270767443E+02 -0.26951431849E+02  0.43400724338E+02  0.00000000000E+00 0. -1.
         11    1    3    3    0    0  0.47818825083E+01 -0.53966509827E+01  0.38292529296E+01  0.81641546049E+01  0.51100000000E-03 0. -1.
        -11    1    3    3    0    0  0.44110298895E+01 -0.29298971317E+02  0.21550939488E+02  0.36637820596E+02  0.51100000000E-03 0.  1.
         12    1    3    3    0    0 -0.21007175272E+01  0.14248548569E+01  0.15712394321E+01  0.29853004615E+01  0.00000000000E+00 0. -1.
</event>
<event>
 7    1  0.2682317E-010  0.4778727E+02  0.7816164E-02  0.1312668E+00
        -11   -1    0    0    0    0  0.00000000000E+00  0.00000000000E+00  0.45593999997E+02  0.45594000000E+02  0.51100000000E-03 0.  1.
         11   -1    0    0    0    0 -0.00000000000E+00 -0.00000000000E+00 -0.45593999997E+02  0.45594000000E+02  0.51100000000E-03 0. -1.
    9900012    2    1    2    0    0 -0.35761484211E+02  0.80207115792E+00  0.24578364183E+02  0.47787273543E+02  0.20000011392E+02 0.  0.
         12    1    1    2    0    0  0.35761484211E+02 -0.80207115792E+00 -0.24578364183E+02  0.43400726457E+02  0.00000000000E+00 0. -1.
         11    1    3    3    0    0 -0.18215174551E+02 -0.35373470493E+01  0.12628147034E+02  0.22444943882E+02  0.51100000000E-03 0. -1.
        -11    1    3    3    0    0 -0.97185163987E+01 -0.76200513681E+00 -0.51756164316E+00  0.97620737108E+01  0.51100000000E-03 0.  1.
         12    1    3    3    0    0 -0.78277932607E+01  0.51014233440E+01  0.12467778792E+02  0.15580255950E+02  0.00000000000E+00 0. -1.
</event>
<event>
 7    1  0.2682317E-010  0.4778727E+02  0.7816164E-02  0.1312668E+00
        -11   -1    0    0    0    0  0.00000000000E+00  0.00000000000E+00  0.45593999997E+02  0.45594000000E+02  0.51100000000E-03 0.  1.
         11   -1    0    0    0    0 -0.00000000000E+00 -0.00000000000E+00 -0.45593999997E+02  0.45594000000E+02  0.51100000000E-03 0. -1.
    9900012    2    1    2    0    0  0.96555809611E+01  0.27547966119E+02  0.32117019153E+02  0.47787267284E+02  0.19999982856E+02 0.  0.
         12    1    1    2    0    0 -0.96555809611E+01 -0.27547966119E+02 -0.32117019153E+02  0.43400732716E+02  0.00000000000E+00 0. -1.
         11    1    3    3    0    0  0.40613131597E+00  0.85523333261E+01  0.91021954244E+01  0.12496291841E+02  0.51100000000E-03 0. -1.
        -11    1    3    3    0    0  0.29032856069E+01  0.19460629364E+02  0.20594737237E+02  0.28483124208E+02  0.51100000000E-03 0.  1.
         12    1    3    3    0    0  0.63461640382E+01 -0.46499657088E+00  0.24200864919E+01  0.68078512351E+01  0.00000000000E+00 0. -1.
</event>
<event>
 7    1  0.2682317E-010  0.4778725E+02  0.7816164E-02  0.1312668E+00
        -11   -1    0    0    0    0  0.00000000000E+00  0.00000000000E+00  0.45593999997E+02  0.45594000000E+02  0.51100000000E-03 0.  1.
         11   -1    0    0    0    0 -0.00000000000E+00 -0.00000000000E+00 -0.45593999997E+02  0.45594000000E+02  0.51100000000E-03 0. -1.
    9900012    2    1    2    0    0  0.27182730781E+02  0.30686006345E+02 -0.14251075371E+02  0.47787251305E+02  0.19999910000E+02 0.  0.
         12    1    1    2    0    0 -0.27182730781E+02 -0.30686006345E+02  0.14251075371E+02  0.43400748695E+02  0.00000000000E+00 0. -1.
         11    1    3    3    0    0  0.51206437836E+01  0.98132838121E+01 -0.47201427337E+01  0.12033340335E+02  0.51100000000E-03 0. -1.
        -11    1    3    3    0    0  0.23930035193E+02  0.16940018832E+02 -0.10757996707E+02  0.31230518980E+02  0.51100000000E-03 0.  1.
        -12    1    3    3    0    0 -0.18679481961E+01  0.39327037004E+01  0.12270640700E+01  0.45233919894E+01  0.00000000000E+00 0.  1.
</event>
<event>
 7    1  0.2682317E-010  0.4778727E+02  0.7816164E-02  0.1312668E+00
        -11   -1    0    0    0    0  0.00000000000E+00  0.00000000000E+00  0.45593999997E+02  0.45594000000E+02  0.51100000000E-03 0.  1.
         11   -1    0    0    0    0 -0.00000000000E+00 -0.00000000000E+00 -0.45593999997E+02  0.45594000000E+02  0.51100000000E-03 0. -1.
    9900012    2    1    2    0    0 -0.26516804493E+02 -0.15346051777E+02  0.30740543036E+02  0.47787271759E+02  0.20000003260E+02 0.  0.
         12    1    1    2    0    0  0.26516804493E+02  0.15346051777E+02 -0.30740543036E+02  0.43400728241E+02  0.00000000000E+00 0. -1.
         11    1    3    3    0    0 -0.47443738509E+01  0.10344119655E+01 -0.10497776446E+01  0.49680101365E+01  0.51100000000E-03 0. -1.
        -11    1    3    3    0    0 -0.74006307676E+01 -0.80744142901E+00  0.93985232218E+01  0.11989726287E+02  0.51100000000E-03 0.  1.
        -12    1    3    3    0    0 -0.14371799875E+02 -0.15573022314E+02  0.22391797459E+02  0.30829535336E+02  0.00000000000E+00 0.  1.
</event>
<event>
 7    1  0.2682317E-010  0.4778729E+02  0.7816164E-02  0.1312668E+00
        -11   -1    0    0    0    0  0.00000000000E+00  0.00000000000E+00  0.45593999997E+02  0.45594000000E+02  0.51100000000E-03 0.  1.
         11   -1    0    0    0    0 -0.00000000000E+00 -0.00000000000E+00 -0.45593999997E+02  0.45594000000E+02  0.51100000000E-03 0. -1.
    9900012    2    1    2    0    0  0.15079238876E+02  0.33363949919E+02  0.23304179793E+02  0.47787292689E+02  0.20000098686E+02 0.  0.
         12    1    1    2    0    0 -0.15079238876E+02 -0.33363949919E+02 -0.23304179793E+02  0.43400707311E+02  0.00000000000E+00 0. -1.
         11    1    3    3    0    0  0.14869087044E+01  0.11053669279E+02  0.38573636433E+00  0.11159896721E+02  0.51100000000E-03 0. -1.
        -11    1    3    3    0    0  0.49950649593E+00  0.81688347667E+01  0.11855507211E+02  0.14405985550E+02  0.51100000000E-03 0.  1.
        -12    1    3    3    0    0  0.13092823676E+02  0.14141445873E+02  0.11062936218E+02  0.22221410418E+02  0.00000000000E+00 0.  1.
</event>
<event>
 7    1  0.2682317E-010  0.4778730E+02  0.7816164E-02  0.1312668E+00
        -11   -1    0    0    0    0  0.00000000000E+00  0.00000000000E+00  0.45593999997E+02  0.45594000000E+02  0.51100000000E-03 0.  1.
         11   -1    0    0    0    0 -0.00000000000E+00 -0.00000000000E+00 -0.45593999997E+02  0.45594000000E+02  0.51100000000E-03 0. -1.
    9900012    2    1    2    0    0  0.30031194514E+01 -0.33196337948E+02  0.27795770458E+02  0.47787303750E+02  0.20000149118E+02 0.  0.
         12    1    1    2    0    0 -0.30031194514E+01  0.33196337948E+02 -0.27795770458E+02  0.43400696250E+02  0.00000000000E+00 0. -1.
         11    1    3    3    0    0 -0.90873131685E-01  0.14427563180E+01  0.16331585283E+01  0.21810572571E+01  0.51100000000E-03 0. -1.
        -11    1    3    3    0    0 -0.23071938312E+00 -0.84855229980E+01  0.35099381719E-01  0.84887316020E+01  0.51100000000E-03 0.  1.
         12    1    3    3    0    0  0.33247119662E+01 -0.26153571268E+02  0.26127512548E+02  0.37117514891E+02  0.00000000000E+00 0. -1.
</event>
<event>
 7    1  0.2682317E-010  0.4778726E+02  0.7816164E-02  0.1312668E+00
        -11   -1    0    0    0    0  0.00000000000E+00  0.00000000000E+00  0.45593999997E+02  0.45594000000E+02  0.51100000000E-03 0.  1.
         11   -1    0    0    0    0 -0.00000000000E+00 -0.00000000000E+00 -0.45593999997E+02  0.45594000000E+02  0.51100000000E-03 0. -1.
    9900012    2    1    2    0    0 -0.23618149226E+02 -0.16373451718E+01  0.36374804452E+02  0.47787259557E+02  0.19999947626E+02 0.  0.
         12    1    1    2    0    0  0.23618149226E+02  0.16373451718E+01 -0.36374804452E+02  0.43400740443E+02  0.00000000000E+00 0. -1.
         11    1    3    3    0    0 -0.18412363859E+02 -0.34807010863E+01  0.23465868243E+02  0.30029608648E+02  0.51100000000E-03 0. -1.
        -11    1    3    3    0    0 -0.71923348238E+01  0.42811514611E+01  0.11706319974E+02  0.14390825746E+02  0.51100000000E-03 0.  1.
        -12    1    3    3    0    0  0.19865494569E+01 -0.24377955466E+01  0.12026162348E+01  0.33668251633E+01  0.00000000000E+00 0.  1.
</event>
<event>
 7    1  0.2682317E-010  0.4778726E+02  0.7816164E-02  0.1312668E+00
        -11   -1    0    0    0    0  0.00000000000E+00  0.00000000000E+00  0.45593999997E+02  0.45594000000E+02  0.51100000000E-03 0. -1.
         11   -1    0    0    0    0 -0.00000000000E+00 -0.00000000000E+00 -0.45593999997E+02  0.45594000000E+02  0.51100000000E-03 0.  1.
    9900012    2    1    2    0    0 -0.12780891105E+02  0.40445630987E+02 -0.91882414752E+01  0.47787262393E+02  0.19999960557E+02 0.  0.
         12    1    1    2    0    0  0.12780891105E+02 -0.40445630987E+02  0.91882414752E+01  0.43400737607E+02  0.00000000000E+00 0. -1.
         11    1    3    3    0    0 -0.47896244308E+01  0.43401547539E+01 -0.68707215878E+01  0.94331469231E+01  0.51100000000E-03 0. -1.
        -11    1    3    3    0    0 -0.84349499815E+00  0.15567495419E+02 -0.51618562619E+01  0.16422641619E+02  0.51100000000E-03 0.  1.
        -12    1    3    3    0    0 -0.71477716763E+01  0.20537980814E+02  0.28443363744E+01  0.21931473851E+02  0.00000000000E+00 0.  1.
</event>
<event>
 7    1  0.2682317E-010  0.4778727E+02  0.7816164E-02  0.1312668E+00
        -11   -1    0    0    0    0  0.00000000000E+00  0.00000000000E+00  0.45593999997E+02  0.45594000000E+02  0.51100000000E-03 0. -1.
         11   -1    0    0    0    0 -0.00000000000E+00 -0.00000000000E+00 -0.45593999997E+02  0.45594000000E+02  0.51100000000E-03 0.  1.
    9900012    2    1    2    0    0  0.22016911570E+02 -0.75580501194E+01 -0.36629972889E+02  0.47787269240E+02  0.19999991773E+02 0.  0.
         12    1    1    2    0    0 -0.22016911570E+02  0.75580501194E+01  0.36629972889E+02  0.43400730760E+02  0.00000000000E+00 0. -1.
         11    1    3    3    0    0  0.15030490373E+02  0.89821667571E+00 -0.20132146212E+02  0.25140122223E+02  0.51100000000E-03 0. -1.
        -11    1    3    3    0    0  0.61785262407E+01 -0.53532786452E+00 -0.11986623610E+02  0.13495921912E+02  0.51100000000E-03 0.  1.
         12    1    3    3    0    0  0.80789495575E+00 -0.79209389305E+01 -0.45112030666E+01  0.91512251043E+01  0.00000000000E+00 0. -1.
</event>
<event>
 7    1  0.2682317E-010  0.4778728E+02  0.7816164E-02  0.1312668E+00
        -11   -1    0    0    0    0  0.00000000000E+00  0.00000000000E+00  0.45593999997E+02  0.45594000000E+02  0.51100000000E-03 0. -1.
         11   -1    0    0    0    0 -0.00000000000E+00 -0.00000000000E+00 -0.45593999997E+02  0.45594000000E+02  0.51100000000E-03 0.  1.
    9900012    2    1    2    0    0 -0.23004578520E+02  0.36544545414E+02  0.43483766072E+01  0.47787276371E+02  0.20000024284E+02 0.  0.
         12    1    1    2    0    0  0.23004578520E+02 -0.36544545414E+02 -0.43483766072E+01  0.43400723629E+02  0.00000000000E+00 0. -1.
         11    1    3    3    0    0 -0.51070998856E+01  0.12071758861E+02 -0.11217206983E+01  0.13155534532E+02  0.51100000000E-03 0.  1.
        -11    1    3    3    0    0 -0.12091494983E+02  0.16103849470E+02  0.11099130325E+02  0.22994106048E+02  0.51100000000E-03 0. -1.
         12    1    3    3    0    0 -0.58059836516E+01  0.83689370826E+01 -0.56290330200E+01  0.11637635791E+02  0.00000000000E+00 0. -1.
</event>
<event>
 7    1  0.2682317E-010  0.4778727E+02  0.7816164E-02  0.1312668E+00
        -11   -1    0    0    0    0  0.00000000000E+00  0.00000000000E+00  0.45593999997E+02  0.45594000000E+02  0.51100000000E-03 0.  1.
         11   -1    0    0    0    0 -0.00000000000E+00 -0.00000000000E+00 -0.45593999997E+02  0.45594000000E+02  0.51100000000E-03 0. -1.
    9900012    2    1    2    0    0  0.11881979798E+02 -0.86800516419E+01  0.40830117030E+02  0.47787271929E+02  0.20000004032E+02 0.  0.
         12    1    1    2    0    0 -0.11881979798E+02  0.86800516419E+01 -0.40830117030E+02  0.43400728071E+02  0.00000000000E+00 0. -1.
         11    1    3    3    0    0  0.34496052237E+01 -0.80242450451E+00 -0.73084120123E-01  0.35424571747E+01  0.51100000000E-03 0. -1.
        -11    1    3    3    0    0  0.71467440715E+01 -0.36161442116E+01  0.90632973392E+01  0.12095280431E+02  0.51100000000E-03 0.  1.
        -12    1    3    3    0    0  0.12856305030E+01 -0.42614829259E+01  0.31839903811E+02  0.32149534323E+02  0.00000000000E+00 0.  1.
</event>
<event>
 7    1  0.2682317E-010  0.4778727E+02  0.7816164E-02  0.1312668E+00
        -11   -1    0    0    0    0  0.00000000000E+00  0.00000000000E+00  0.45593999997E+02  0.45594000000E+02  0.51100000000E-03 0. -1.
         11   -1    0    0    0    0 -0.00000000000E+00 -0.00000000000E+00 -0.45593999997E+02  0.45594000000E+02  0.51100000000E-03 0.  1.
    9900012    2    1    2    0    0 -0.15924073982E+02  0.37418069530E+02 -0.15163622256E+02  0.47787268445E+02  0.19999988150E+02 0.  0.
         12    1    1    2    0    0  0.15924073982E+02 -0.37418069530E+02  0.15163622256E+02  0.43400731555E+02  0.00000000000E+00 0. -1.
         11    1    3    3    0    0 -0.18841396384E+01 -0.53549493241E-01 -0.15133158174E+01  0.24172245964E+01  0.51100000000E-03 0.  1.
        -11    1    3    3    0    0 -0.13364649345E+02  0.32305896245E+02 -0.50628305692E+01  0.35325869246E+02  0.51100000000E-03 0. -1.
        -12    1    3    3    0    0 -0.67528499823E+00  0.51657227782E+01 -0.85874758697E+01  0.10044174603E+02  0.00000000000E+00 0.  1.
</event>
<event>
 7    1  0.2682317E-010  0.4778727E+02  0.7816164E-02  0.1312668E+00
        -11   -1    0    0    0    0  0.00000000000E+00  0.00000000000E+00  0.45593999997E+02  0.45594000000E+02  0.51100000000E-03 0. -1.
         11   -1    0    0    0    0 -0.00000000000E+00 -0.00000000000E+00 -0.45593999997E+02  0.45594000000E+02  0.51100000000E-03 0.  1.
    9900012    2    1    2    0    0  0.31100589855E+02  0.25033913232E+02 -0.17019973510E+02  0.47787274207E+02  0.20000014422E+02 0.  0.
         12    1    1    2    0    0 -0.31100589855E+02 -0.25033913232E+02  0.17019973510E+02  0.43400725793E+02  0.00000000000E+00 0. -1.
         11    1    3    3    0    0 -0.45249120267E-01  0.21638452222E+01 -0.20559412257E+01  0.29851579879E+01  0.51100000000E-03 0. -1.
        -11    1    3    3    0    0  0.28176696478E+02  0.25319858224E+02 -0.11409326796E+02  0.39562535094E+02  0.51100000000E-03 0.  1.
         12    1    3    3    0    0  0.29691424973E+01 -0.24497902138E+01 -0.35547054881E+01  0.52395811253E+01  0.00000000000E+00 0. -1.
</event>
<event>
 7    1  0.2682317E-010  0.4778727E+02  0.7816164E-02  0.1312668E+00
        -11   -1    0    0    0    0  0.00000000000E+00  0.00000000000E+00  0.45593999997E+02  0.45594000000E+02  0.51100000000E-03 0.  1.
         11   -1    0    0    0    0 -0.00000000000E+00 -0.00000000000E+00 -0.45593999997E+02  0.45594000000E+02  0.51100000000E-03 0. -1.
    9900012    2    1    2    0    0  0.24322354640E+02  0.31725719159E+02 -0.16897484319E+02  0.47787272268E+02  0.20000005576E+02 0.  0.
         12    1    1    2    0    0 -0.24322354640E+02 -0.31725719159E+02  0.16897484319E+02  0.43400727732E+02  0.00000000000E+00 0. -1.
         11    1    3    3    0    0  0.55174703755E+01  0.15597887620E+01 -0.47009443479E+01  0.74144654797E+01  0.51100000000E-03 0. -1.
        -11    1    3    3    0    0  0.10426614669E+02  0.84425569427E+01 -0.10484471245E+02  0.17026896333E+02  0.51100000000E-03 0.  1.
        -12    1    3    3    0    0  0.83782695955E+01  0.21723373454E+02 -0.17120687267E+01  0.23345910455E+02  0.00000000000E+00 0.  1.
</event>
<event>
 7    1  0.2682317E-010  0.4778727E+02  0.7816164E-02  0.1312668E+00
        -11   -1    0    0    0    0  0.00000000000E+00  0.00000000000E+00  0.45593999997E+02  0.45594000000E+02  0.51100000000E-03 0.  1.
         11   -1    0    0    0    0 -0.00000000000E+00 -0.00000000000E+00 -0.45593999997E+02  0.45594000000E+02  0.51100000000E-03 0. -1.
    9900012    2    1    2    0    0 -0.38883984175E+01  0.42559671387E+02 -0.75616064538E+01  0.47787272322E+02  0.20000005827E+02 0.  0.
         12    1    1    2    0    0  0.38883984175E+01 -0.42559671387E+02  0.75616064538E+01  0.43400727678E+02  0.00000000000E+00 0. -1.
         11    1    3    3    0    0  0.12495902376E+00  0.15353548690E+01  0.26007911243E+01  0.30227543838E+01  0.51100000000E-03 0. -1.
        -11    1    3    3    0    0 -0.86846708510E+01  0.16737151338E+02 -0.39926289260E+01  0.19274253000E+02  0.51100000000E-03 0.  1.
        -12    1    3    3    0    0  0.46713134097E+01  0.24287165179E+02 -0.61697686521E+01  0.25490264939E+02  0.00000000000E+00 0.  1.
</event>
<event>
 7    1  0.2682317E-010  0.4778727E+02  0.7816164E-02  0.1312668E+00
        -11   -1    0    0    0    0  0.00000000000E+00  0.00000000000E+00  0.45593999997E+02  0.45594000000E+02  0.51100000000E-03 0.  1.
         11   -1    0    0    0    0 -0.00000000000E+00 -0.00000000000E+00 -0.45593999997E+02  0.45594000000E+02  0.51100000000E-03 0. -1.
    9900012    2    1    2    0    0 -0.70089286882E+01 -0.37021355801E+02  0.21538746969E+02  0.47787268581E+02  0.19999988767E+02 0.  0.
         12    1    1    2    0    0  0.70089286882E+01  0.37021355801E+02 -0.21538746969E+02  0.43400731419E+02  0.00000000000E+00 0. -1.
         11    1    3    3    0    0 -0.27094597354E+01 -0.11653474687E+02 -0.19963669924E+01  0.12129720762E+02  0.51100000000E-03 0. -1.
        -11    1    3    3    0    0 -0.14817843985E+01 -0.74171391098E+00  0.31723584388E+01  0.35790617282E+01  0.51100000000E-03 0.  1.
        -12    1    3    3    0    0 -0.28176845543E+01 -0.24626167204E+02  0.20362755523E+02  0.32078486091E+02  0.00000000000E+00 0.  1.
</event>
<event>
 7    1  0.2682317E-010  0.4778729E+02  0.7816164E-02  0.1312668E+00
        -11   -1    0    0    0    0  0.00000000000E+00  0.00000000000E+00  0.45593999997E+02  0.45594000000E+02  0.51100000000E-03 0.  1.
         11   -1    0    0    0    0 -0.00000000000E+00 -0.00000000000E+00 -0.45593999997E+02  0.45594000000E+02  0.51100000000E-03 0. -1.
    9900012    2    1    2    0    0 -0.39197211269E+01 -0.17338543761E+02  0.39593340670E+02  0.47787286424E+02  0.20000070121E+02 0.  0.
         12    1    1    2    0    0  0.39197211269E+01  0.17338543761E+02 -0.39593340670E+02  0.43400713576E+02  0.00000000000E+00 0. -1.
         11    1    3    3    0    0 -0.19882237000E+01 -0.92756136872E+00  0.98875141923E+01  0.10127997864E+02  0.51100000000E-03 0. -1.
        -11    1    3    3    0    0  0.10337546103E+01 -0.18497222312E+02  0.28183087999E+02  0.33726878469E+02  0.51100000000E-03 0.  1.
         12    1    3    3    0    0 -0.29652520372E+01  0.20862399191E+01  0.15227384792E+01  0.39324100906E+01  0.00000000000E+00 0. -1.
</event>
<event>
 7    1  0.2682317E-010  0.4778727E+02  0.7816164E-02  0.1312668E+00
        -11   -1    0    0    0    0  0.00000000000E+00  0.00000000000E+00  0.45593999997E+02  0.45594000000E+02  0.51100000000E-03 0.  1.
         11   -1    0    0    0    0 -0.00000000000E+00 -0.00000000000E+00 -0.45593999997E+02  0.45594000000E+02  0.51100000000E-03 0. -1.
    9900012    2    1    2    0    0  0.21683792625E+02  0.31927537043E+02  0.19851165529E+02  0.47787271238E+02  0.20000000882E+02 0.  0.
         12    1    1    2    0    0 -0.21683792625E+02 -0.31927537043E+02 -0.19851165529E+02  0.43400728762E+02  0.00000000000E+00 0. -1.
         11    1    3    3    0    0 -0.17567566323E+01  0.22220060794E+01  0.45964218928E+01  0.53991295002E+01  0.51100000000E-03 0. -1.
        -11    1    3    3    0    0  0.58452489366E+01  0.15524125511E+02  0.93030339496E+01  0.19018723641E+02  0.51100000000E-03 0.  1.
        -12    1    3    3    0    0  0.17595300320E+02  0.14181405453E+02  0.59517096862E+01  0.23369418096E+02  0.00000000000E+00 0.  1.
</event>
<event>
 7    1  0.2682317E-010  0.4778727E+02  0.7816164E-02  0.1312668E+00
        -11   -1    0    0    0    0  0.00000000000E+00  0.00000000000E+00  0.45593999997E+02  0.45594000000E+02  0.51100000000E-03 0.  1.
         11   -1    0    0    0    0 -0.00000000000E+00 -0.00000000000E+00 -0.45593999997E+02  0.45594000000E+02  0.51100000000E-03 0. -1.
    9900012    2    1    2    0    0  0.24831648582E+02  0.31922756424E+02  0.15746428375E+02  0.47787272407E+02  0.20000006212E+02 0.  0.
         12    1    1    2    0    0 -0.24831648582E+02 -0.31922756424E+02 -0.15746428375E+02  0.43400727593E+02  0.00000000000E+00 0. -1.
         11    1    3    3    0    0  0.13022264561E+02  0.14703791028E+02  0.96206721212E+01  0.21870943675E+02  0.51100000000E-03 0. -1.
        -11    1    3    3    0    0  0.61417613226E+01  0.85188659746E+01  0.10314349628E+02  0.14719990426E+02  0.51100000000E-03 0.  1.
         12    1    3    3    0    0  0.56676226982E+01  0.87000994222E+01 -0.41885933743E+01  0.11196338306E+02  0.00000000000E+00 0. -1.
</event>
<event>
 7    1  0.2682317E-010  0.4778727E+02  0.7816164E-02  0.1312668E+00
        -11   -1    0    0    0    0  0.00000000000E+00  0.00000000000E+00  0.45593999997E+02  0.45594000000E+02  0.51100000000E-03 0.  1.
         11   -1    0    0    0    0 -0.00000000000E+00 -0.00000000000E+00 -0.45593999997E+02  0.45594000000E+02  0.51100000000E-03 0. -1.
    9900012    2    1    2    0    0  0.26859105902E+01  0.12339144459E+02  0.41522942681E+02  0.47787269930E+02  0.19999994921E+02 0.  0.
         12    1    1    2    0    0 -0.26859105902E+01 -0.12339144459E+02 -0.41522942681E+02  0.43400730070E+02  0.00000000000E+00 0. -1.
         11    1    3    3    0    0 -0.39370215030E+01  0.46972999010E+01  0.24383268497E+01  0.65962264032E+01  0.51100000000E-03 0. -1.
        -11    1    3    3    0    0  0.27431407684E+01  0.65765414661E+01  0.13245627425E+02  0.15040690312E+02  0.51100000000E-03 0.  1.
         12    1    3    3    0    0  0.38797913248E+01  0.10653030918E+01  0.25838988407E+02  0.26150353215E+02  0.00000000000E+00 0. -1.
</event>
<event>
 7    1  0.2682317E-010  0.4778727E+02  0.7816164E-02  0.1312668E+00
        -11   -1    0    0    0    0  0.00000000000E+00  0.00000000000E+00  0.45593999997E+02  0.45594000000E+02  0.51100000000E-03 0. -1.
         11   -1    0    0    0    0 -0.00000000000E+00 -0.00000000000E+00 -0.45593999997E+02  0.45594000000E+02  0.51100000000E-03 0.  1.
    9900012    2    1    2    0    0  0.10811586205E+02  0.40604866501E+02 -0.10861766732E+02  0.47787267790E+02  0.19999985161E+02 0.  0.
         12    1    1    2    0    0 -0.10811586205E+02 -0.40604866501E+02  0.10861766732E+02  0.43400732210E+02  0.00000000000E+00 0. -1.
         11    1    3    3    0    0  0.71310154485E+01  0.19155018535E+02 -0.95441041871E+01  0.22557837693E+02  0.51100000000E-03 0. -1.
        -11    1    3    3    0    0  0.62079873653E+01  0.21692794589E+02 -0.52574710357E+00  0.22569733151E+02  0.51100000000E-03 0.  1.
        -12    1    3    3    0    0 -0.25274166090E+01 -0.24294662310E+00 -0.79191544098E+00  0.26596969457E+01  0.00000000000E+00 0.  1.
</event>
<event>
 7    1  0.2682317E-010  0.4778727E+02  0.7816164E-02  0.1312668E+00
        -11   -1    0    0    0    0  0.00000000000E+00  0.00000000000E+00  0.45593999997E+02  0.45594000000E+02  0.51100000000E-03 0.  1.
         11   -1    0    0    0    0 -0.00000000000E+00 -0.00000000000E+00 -0.45593999997E+02  0.45594000000E+02  0.51100000000E-03 0. -1.
    9900012    2    1    2    0    0  0.15819174127E+02 -0.40415054840E+02  0.11836524291E-01  0.47787273418E+02  0.20000010820E+02 0.  0.
         12    1    1    2    0    0 -0.15819174127E+02  0.40415054840E+02 -0.11836524291E-01  0.43400726582E+02  0.00000000000E+00 0. -1.
         11    1    3    3    0    0  0.78179527886E+01 -0.67362057516E+01 -0.69946706389E+00  0.10343408924E+02  0.51100000000E-03 0. -1.
        -11    1    3    3    0    0  0.20689651061E+01 -0.51034197313E+01  0.55983292236E+01  0.78528211441E+01  0.51100000000E-03 0.  1.
        -12    1    3    3    0    0  0.59322562323E+01 -0.28575429357E+02 -0.48870256354E+01  0.29591043350E+02  0.00000000000E+00 0.  1.
</event>
<event>
 7    1  0.2682317E-010  0.4778727E+02  0.7816164E-02  0.1312668E+00
        -11   -1    0    0    0    0  0.00000000000E+00  0.00000000000E+00  0.45593999997E+02  0.45594000000E+02  0.51100000000E-03 0.  1.
         11   -1    0    0    0    0 -0.00000000000E+00 -0.00000000000E+00 -0.45593999997E+02  0.45594000000E+02  0.51100000000E-03 0. -1.
    9900012    2    1    2    0    0  0.24826388631E+02  0.34795985272E+02  0.75175215027E+01  0.47787270823E+02  0.19999998992E+02 0.  0.
         12    1    1    2    0    0 -0.24826388631E+02 -0.34795985272E+02 -0.75175215027E+01  0.43400729177E+02  0.00000000000E+00 0. -1.
         11    1    3    3    0    0 -0.15403199087E+01 -0.45280923029E+00 -0.98634545851E+00  0.18842768493E+01  0.51100000000E-03 0. -1.
        -11    1    3    3    0    0  0.93750665094E+01  0.14289942053E+02 -0.14314404154E+01  0.17150607507E+02  0.51100000000E-03 0.  1.
        -12    1    3    3    0    0  0.16991642031E+02  0.20958852450E+02  0.99353073766E+01  0.28752386467E+02  0.00000000000E+00 0.  1.
</event>
<event>
 7    1  0.2682317E-010  0.4778727E+02  0.7816164E-02  0.1312668E+00
        -11   -1    0    0    0    0  0.00000000000E+00  0.00000000000E+00  0.45593999997E+02  0.45594000000E+02  0.51100000000E-03 0.  1.
         11   -1    0    0    0    0 -0.00000000000E+00 -0.00000000000E+00 -0.45593999997E+02  0.45594000000E+02  0.51100000000E-03 0. -1.
    9900012    2    1    2    0    0 -0.49190620675E+01  0.24467755273E+02  0.35507110565E+02  0.47787272812E+02  0.20000008060E+02 0.  0.
         12    1    1    2    0    0  0.49190620675E+01 -0.24467755273E+02 -0.35507110565E+02  0.43400727188E+02  0.00000000000E+00 0. -1.
         11    1    3    3    0    0 -0.69962005165E+01  0.12920798177E+02  0.11817553801E+02  0.18855991761E+02  0.51100000000E-03 0. -1.
        -11    1    3    3    0    0 -0.23169137969E+01  0.11492577028E+02  0.20047085044E+02  0.23223544848E+02  0.51100000000E-03 0.  1.
         12    1    3    3    0    0  0.43940522459E+01  0.54380068769E-01  0.36424717205E+01  0.57077362033E+01  0.00000000000E+00 0. -1.
</event>
<event>
 7    1  0.2682317E-010  0.4778727E+02  0.7816164E-02  0.1312668E+00
        -11   -1    0    0    0    0  0.00000000000E+00  0.00000000000E+00  0.45593999997E+02  0.45594000000E+02  0.51100000000E-03 0. -1.
         11   -1    0    0    0    0 -0.00000000000E+00 -0.00000000000E+00 -0.45593999997E+02  0.45594000000E+02  0.51100000000E-03 0.  1.
    9900012    2    1    2    0    0  0.94426598429E+01 -0.98034043067E+01 -0.41211075662E+02  0.47787270535E+02  0.19999997677E+02 0.  0.
         12    1    1    2    0    0 -0.94426598429E+01  0.98034043067E+01  0.41211075662E+02  0.43400729465E+02  0.00000000000E+00 0. -1.
         11    1    3    3    0    0 -0.33450868642E+01  0.15876771138E+01 -0.28934986972E+01  0.46992190542E+01  0.51100000000E-03 0. -1.
        -11    1    3    3    0    0  0.30425790978E+01 -0.75896609514E+00 -0.17399779415E+02  0.17680091658E+02  0.51100000000E-03 0.  1.
        -12    1    3    3    0    0  0.97451676094E+01 -0.10632115325E+02 -0.20917797550E+02  0.25407959823E+02  0.00000000000E+00 0.  1.
</event>
<event>
 7    1  0.2682317E-010  0.4778727E+02  0.7816164E-02  0.1312668E+00
        -11   -1    0    0    0    0  0.00000000000E+00  0.00000000000E+00  0.45593999997E+02  0.45594000000E+02  0.51100000000E-03 0.  1.
         11   -1    0    0    0    0 -0.00000000000E+00 -0.00000000000E+00 -0.45593999997E+02  0.45594000000E+02  0.51100000000E-03 0. -1.
    9900012    2    1    2    0    0  0.35943105209E+02  0.23395075912E+02  0.66623436072E+01  0.47787271764E+02  0.20000003283E+02 0.  0.
         12    1    1    2    0    0 -0.35943105209E+02 -0.23395075912E+02 -0.66623436072E+01  0.43400728236E+02  0.00000000000E+00 0. -1.
         11    1    3    3    0    0  0.19901372788E+02  0.10358795807E+02  0.33025733065E+00  0.22438323458E+02  0.51100000000E-03 0. -1.
        -11    1    3    3    0    0  0.54577811956E+01  0.79445738856E+01 -0.32701689898E+01  0.10178292356E+02  0.51100000000E-03 0.  1.
         12    1    3    3    0    0  0.10583951226E+02  0.50917062194E+01  0.96022552663E+01  0.15170655951E+02  0.00000000000E+00 0. -1.
</event>
<event>
 7    1  0.2682317E-010  0.4778728E+02  0.7816164E-02  0.1312668E+00
        -11   -1    0    0    0    0  0.00000000000E+00  0.00000000000E+00  0.45593999997E+02  0.45594000000E+02  0.51100000000E-03 0.  1.
         11   -1    0    0    0    0 -0.00000000000E+00 -0.00000000000E+00 -0.45593999997E+02  0.45594000000E+02  0.51100000000E-03 0. -1.
    9900012    2    1    2    0    0  0.39576691652E+02 -0.12752331137E+02  0.12437300530E+02  0.47787275168E+02  0.20000018799E+02 0.  0.
         12    1    1    2    0    0 -0.39576691652E+02  0.12752331137E+02 -0.12437300530E+02  0.43400724832E+02  0.00000000000E+00 0. -1.
         11    1    3    3    0    0  0.79161779987E+01 -0.14889957221E+01  0.75189083266E+01  0.11018936657E+02  0.51100000000E-03 0. -1.
        -11    1    3    3    0    0  0.11952773252E+02  0.16988043971E+01  0.52804461179E+01  0.13177171026E+02  0.51100000000E-03 0.  1.
         12    1    3    3    0    0  0.19707740401E+02 -0.12962139812E+02 -0.36205391490E+00  0.23591167484E+02  0.00000000000E+00 0. -1.
</event>
<event>
 7    1  0.2682317E-010  0.4778727E+02  0.7816164E-02  0.1312668E+00
        -11   -1    0    0    0    0  0.00000000000E+00  0.00000000000E+00  0.45593999997E+02  0.45594000000E+02  0.51100000000E-03 0. -1.
         11   -1    0    0    0    0 -0.00000000000E+00 -0.00000000000E+00 -0.45593999997E+02  0.45594000000E+02  0.51100000000E-03 0.  1.
    9900012    2    1    2    0    0  0.32825673047E+02  0.21099291519E+02  0.18997850862E+02  0.47787271308E+02  0.20000001203E+02 0.  0.
         12    1    1    2    0    0 -0.32825673047E+02 -0.21099291519E+02 -0.18997850862E+02  0.43400728692E+02  0.00000000000E+00 0. -1.
         11    1    3    3    0    0  0.22088640638E+01  0.62327850548E+00  0.63745888312E+01  0.67751708152E+01  0.51100000000E-03 0. -1.
        -11    1    3    3    0    0  0.31087675610E+00  0.33833314869E+01 -0.11564182926E+01  0.35889942653E+01  0.51100000000E-03 0.  1.
        -12    1    3    3    0    0  0.30305932227E+02  0.17092681527E+02  0.13779680323E+02  0.37423106228E+02  0.00000000000E+00 0.  1.
</event>
<event>
 7    1  0.2682317E-010  0.4778727E+02  0.7816164E-02  0.1312668E+00
        -11   -1    0    0    0    0  0.00000000000E+00  0.00000000000E+00  0.45593999997E+02  0.45594000000E+02  0.51100000000E-03 0.  1.
         11   -1    0    0    0    0 -0.00000000000E+00 -0.00000000000E+00 -0.45593999997E+02  0.45594000000E+02  0.51100000000E-03 0. -1.
    9900012    2    1    2    0    0  0.35105822021E+02 -0.21401862035E+02  0.13898388712E+02  0.47787266744E+02  0.19999980394E+02 0.  0.
         12    1    1    2    0    0 -0.35105822021E+02  0.21401862035E+02 -0.13898388712E+02  0.43400733256E+02  0.00000000000E+00 0. -1.
         11    1    3    3    0    0  0.13910251137E+02 -0.78833063180E+01  0.72429756604E+01  0.17552843128E+02  0.51100000000E-03 0. -1.
        -11    1    3    3    0    0  0.10358996509E+02 -0.80965828675E+01  0.11221445080E+02  0.17285378004E+02  0.51100000000E-03 0.  1.
         12    1    3    3    0    0  0.10836574375E+02 -0.54219728499E+01 -0.45660320288E+01  0.12949045612E+02  0.00000000000E+00 0. -1.
</event>
<event>
 7    1  0.2682317E-010  0.4778727E+02  0.7816164E-02  0.1312668E+00
        -11   -1    0    0    0    0  0.00000000000E+00  0.00000000000E+00  0.45593999997E+02  0.45594000000E+02  0.51100000000E-03 0. -1.
         11   -1    0    0    0    0 -0.00000000000E+00 -0.00000000000E+00 -0.45593999997E+02  0.45594000000E+02  0.51100000000E-03 0.  1.
    9900012    2    1    2    0    0  0.22993288970E+02  0.35978293084E+02  0.77778101647E+01  0.47787271413E+02  0.20000001682E+02 0.  0.
         12    1    1    2    0    0 -0.22993288970E+02 -0.35978293084E+02 -0.77778101647E+01  0.43400728587E+02  0.00000000000E+00 0. -1.
         11    1    3    3    0    0 -0.18737696204E+01  0.22430370139E-01 -0.45718558125E+00  0.19288687432E+01  0.51100000000E-03 0. -1.
        -11    1    3    3    0    0  0.34977728200E+01  0.60394515162E+01 -0.27289311447E+01  0.74937610564E+01  0.51100000000E-03 0.  1.
         12    1    3    3    0    0  0.21369285771E+02  0.29916411197E+02  0.10963926891E+02  0.38364641614E+02  0.00000000000E+00 0. -1.
</event>
<event>
 7    1  0.2682317E-010  0.4778727E+02  0.7816164E-02  0.1312668E+00
        -11   -1    0    0    0    0  0.00000000000E+00  0.00000000000E+00  0.45593999997E+02  0.45594000000E+02  0.51100000000E-03 0. -1.
         11   -1    0    0    0    0 -0.00000000000E+00 -0.00000000000E+00 -0.45593999997E+02  0.45594000000E+02  0.51100000000E-03 0.  1.
    9900012    2    1    2    0    0  0.43019864387E+02 -0.41837401116E+01  0.39256513880E+01  0.47787272448E+02  0.20000006399E+02 0.  0.
         12    1    1    2    0    0 -0.43019864387E+02  0.41837401116E+01 -0.39256513880E+01  0.43400727552E+02  0.00000000000E+00 0. -1.
         11    1    3    3    0    0  0.18715416955E+02 -0.50131975371E+01  0.75829895362E+01  0.20806266169E+02  0.51100000000E-03 0. -1.
        -11    1    3    3    0    0  0.40392776856E+01 -0.34785296452E+01  0.16753003737E+01  0.55877154828E+01  0.51100000000E-03 0.  1.
         12    1    3    3    0    0  0.20265169747E+02  0.43079870707E+01 -0.53326385219E+01  0.21393290796E+02  0.00000000000E+00 0. -1.
</event>
<event>
 7    1  0.2682317E-010  0.4778727E+02  0.7816164E-02  0.1312668E+00
        -11   -1    0    0    0    0  0.00000000000E+00  0.00000000000E+00  0.45593999997E+02  0.45594000000E+02  0.51100000000E-03 0. -1.
         11   -1    0    0    0    0 -0.00000000000E+00 -0.00000000000E+00 -0.45593999997E+02  0.45594000000E+02  0.51100000000E-03 0.  1.
    9900012    2    1    2    0    0 -0.22793042232E+02 -0.35546280056E+02 -0.10028070489E+02  0.47787274226E+02  0.20000014506E+02 0.  0.
         12    1    1    2    0    0  0.22793042232E+02  0.35546280056E+02  0.10028070489E+02  0.43400725774E+02  0.00000000000E+00 0. -1.
         11    1    3    3    0    0 -0.11347830027E+02 -0.12563822756E+02 -0.21127354622E+01  0.17061258452E+02  0.51100000000E-03 0. -1.
        -11    1    3    3    0    0 -0.10677468864E+02 -0.21747811455E+02 -0.11529010462E+02  0.26830835375E+02  0.51100000000E-03 0.  1.
         12    1    3    3    0    0 -0.76774334131E+00 -0.12346458442E+01  0.36136754345E+01  0.38951803995E+01  0.00000000000E+00 0. -1.
</event>
<event>
 7    1  0.2682317E-010  0.4778727E+02  0.7816164E-02  0.1312668E+00
        -11   -1    0    0    0    0  0.00000000000E+00  0.00000000000E+00  0.45593999997E+02  0.45594000000E+02  0.51100000000E-03 0.  1.
         11   -1    0    0    0    0 -0.00000000000E+00 -0.00000000000E+00 -0.45593999997E+02  0.45594000000E+02  0.51100000000E-03 0. -1.
    9900012    2    1    2    0    0  0.52970773501E+01 -0.32176084562E+02  0.28640247433E+02  0.47787271674E+02  0.20000002871E+02 0.  0.
         12    1    1    2    0    0 -0.52970773501E+01  0.32176084562E+02 -0.28640247433E+02  0.43400728326E+02  0.00000000000E+00 0. -1.
         11    1    3    3    0    0 -0.63070890466E+01 -0.61869916136E+01  0.74248160562E+01  0.11540629584E+02  0.51100000000E-03 0. -1.
        -11    1    3    3    0    0 -0.43001927851E+00 -0.58925459369E+01  0.33935337020E+01  0.68134488657E+01  0.51100000000E-03 0.  1.
        -12    1    3    3    0    0  0.12034185675E+02 -0.20096547011E+02  0.17821897675E+02  0.29433193224E+02  0.00000000000E+00 0.  1.
</event>
<event>
 7    1  0.2682317E-010  0.4778728E+02  0.7816164E-02  0.1312668E+00
        -11   -1    0    0    0    0  0.00000000000E+00  0.00000000000E+00  0.45593999997E+02  0.45594000000E+02  0.51100000000E-03 0.  1.
         11   -1    0    0    0    0 -0.00000000000E+00 -0.00000000000E+00 -0.45593999997E+02  0.45594000000E+02  0.51100000000E-03 0. -1.
    9900012    2    1    2    0    0 -0.37529188714E+02  0.19863437975E+01  0.21707995562E+02  0.47787278364E+02  0.20000033373E+02 0.  0.
         12    1    1    2    0    0  0.37529188714E+02 -0.19863437975E+01 -0.21707995562E+02  0.43400721636E+02  0.00000000000E+00 0. -1.
         11    1    3    3    0    0 -0.13008861366E+02 -0.53704947336E+01  0.75651514524E+01  0.15978241595E+02  0.51100000000E-03 0. -1.
        -11    1    3    3    0    0 -0.15501558843E+02 -0.70171951560E+00  0.11788578836E+02  0.19487465923E+02  0.51100000000E-03 0.  1.
        -12    1    3    3    0    0 -0.90187685043E+01  0.80585580468E+01  0.23542652737E+01  0.12321570846E+02  0.00000000000E+00 0.  1.
</event>
<event>
 7    1  0.2682317E-010  0.4778727E+02  0.7816164E-02  0.1312668E+00
        -11   -1    0    0    0    0  0.00000000000E+00  0.00000000000E+00  0.45593999997E+02  0.45594000000E+02  0.51100000000E-03 0.  1.
         11   -1    0    0    0    0 -0.00000000000E+00 -0.00000000000E+00 -0.45593999997E+02  0.45594000000E+02  0.51100000000E-03 0. -1.
    9900012    2    1    2    0    0 -0.35438737126E+02 -0.21186207511E+02 -0.13374011998E+02  0.47787266427E+02  0.19999978945E+02 0.  0.
         12    1    1    2    0    0  0.35438737126E+02  0.21186207511E+02  0.13374011998E+02  0.43400733573E+02  0.00000000000E+00 0. -1.
         11    1    3    3    0    0  0.84934250072E+00 -0.80600307703E+00 -0.31575690749E+01  0.33676796712E+01  0.51100000000E-03 0. -1.
        -11    1    3    3    0    0 -0.79238161092E+01 -0.91871216064E+01  0.37959476501E+00  0.12138128257E+02  0.51100000000E-03 0.  1.
        -12    1    3    3    0    0 -0.28364263518E+02 -0.11193082827E+02 -0.10596037688E+02  0.32281458498E+02  0.00000000000E+00 0.  1.
</event>
<event>
 7    1  0.2682317E-010  0.4778727E+02  0.7816164E-02  0.1312668E+00
        -11   -1    0    0    0    0  0.00000000000E+00  0.00000000000E+00  0.45593999997E+02  0.45594000000E+02  0.51100000000E-03 0.  1.
         11   -1    0    0    0    0 -0.00000000000E+00 -0.00000000000E+00 -0.45593999997E+02  0.45594000000E+02  0.51100000000E-03 0. -1.
    9900012    2    1    2    0    0 -0.94815506685E+01  0.17625363006E+02  0.38510649588E+02  0.47787270100E+02  0.19999995693E+02 0.  0.
         12    1    1    2    0    0  0.94815506685E+01 -0.17625363006E+02 -0.38510649588E+02  0.43400729900E+02  0.00000000000E+00 0. -1.
         11    1    3    3    0    0 -0.10716115197E+01 -0.15040316678E+01  0.31955053221E+00  0.18741865730E+01  0.51100000000E-03 0. -1.
        -11    1    3    3    0    0 -0.43429328198E+01  0.69757534117E+01  0.29000721718E+02  0.30142396413E+02  0.51100000000E-03 0.  1.
         12    1    3    3    0    0 -0.40670063290E+01  0.12153641262E+02  0.91903773386E+01  0.15770687113E+02  0.00000000000E+00 0. -1.
</event>
<event>
 7    1  0.2682317E-010  0.4778726E+02  0.7816164E-02  0.1312668E+00
        -11   -1    0    0    0    0  0.00000000000E+00  0.00000000000E+00  0.45593999997E+02  0.45594000000E+02  0.51100000000E-03 0.  1.
         11   -1    0    0    0    0 -0.00000000000E+00 -0.00000000000E+00 -0.45593999997E+02  0.45594000000E+02  0.51100000000E-03 0. -1.
    9900012    2    1    2    0    0 -0.18221526832E+02 -0.21845064296E+02  0.32777934175E+02  0.47787264488E+02  0.19999970108E+02 0.  0.
         12    1    1    2    0    0  0.18221526832E+02  0.21845064296E+02 -0.32777934175E+02  0.43400735512E+02  0.00000000000E+00 0. -1.
         11    1    3    3    0    0 -0.41869063570E+01 -0.12821979156E+02  0.64643257818E+01  0.14957300639E+02  0.51100000000E-03 0. -1.
        -11    1    3    3    0    0 -0.46531727667E+01 -0.46649790847E+01  0.28337840436E+01  0.71724736963E+01  0.51100000000E-03 0.  1.
         12    1    3    3    0    0 -0.93814477088E+01 -0.43581060552E+01  0.23479824349E+02  0.25657490153E+02  0.00000000000E+00 0. -1.
</event>
<event>
 7    1  0.2682317E-010  0.4778727E+02  0.7816164E-02  0.1312668E+00
        -11   -1    0    0    0    0  0.00000000000E+00  0.00000000000E+00  0.45593999997E+02  0.45594000000E+02  0.51100000000E-03 0.  1.
         11   -1    0    0    0    0 -0.00000000000E+00 -0.00000000000E+00 -0.45593999997E+02  0.45594000000E+02  0.51100000000E-03 0. -1.
    9900012    2    1    2    0    0 -0.11002273964E+02 -0.12230307065E+02  0.40162082829E+02  0.47787270277E+02  0.19999996502E+02 0.  0.
         12    1    1    2    0    0  0.11002273964E+02  0.12230307065E+02 -0.40162082829E+02  0.43400729723E+02  0.00000000000E+00 0. -1.
         11    1    3    3    0    0 -0.98480760481E+01 -0.57461592321E+01  0.10846356257E+02  0.15736784681E+02  0.51100000000E-03 0. -1.
        -11    1    3    3    0    0 -0.33775105096E+01 -0.72622589216E+01  0.28425550516E+02  0.29532353517E+02  0.51100000000E-03 0.  1.
         12    1    3    3    0    0  0.22233125941E+01  0.77811108832E+00  0.89017605659E+00  0.25181320792E+01  0.00000000000E+00 0. -1.
</event>
<event>
 7    1  0.2682317E-010  0.4778727E+02  0.7816164E-02  0.1312668E+00
        -11   -1    0    0    0    0  0.00000000000E+00  0.00000000000E+00  0.45593999997E+02  0.45594000000E+02  0.51100000000E-03 0.  1.
         11   -1    0    0    0    0 -0.00000000000E+00 -0.00000000000E+00 -0.45593999997E+02  0.45594000000E+02  0.51100000000E-03 0. -1.
    9900012    2    1    2    0    0  0.37287532592E+02  0.37413358592E+01  0.21892133717E+02  0.47787271901E+02  0.20000003907E+02 0.  0.
         12    1    1    2    0    0 -0.37287532592E+02 -0.37413358592E+01 -0.21892133717E+02  0.43400728099E+02  0.00000000000E+00 0. -1.
         11    1    3    3    0    0 -0.14387050770E+01 -0.99226792687E+00 -0.56017206327E+00  0.18352822504E+01  0.51100000000E-03 0. -1.
        -11    1    3    3    0    0  0.68182605164E+01  0.29808786037E+00  0.25371725570E+00  0.68294879420E+01  0.51100000000E-03 0.  1.
        -12    1    3    3    0    0  0.31907977152E+02  0.44355159257E+01  0.22198588525E+02  0.39122501709E+02  0.00000000000E+00 0.  1.
</event>
<event>
 7    1  0.2682317E-010  0.4778728E+02  0.7816164E-02  0.1312668E+00
        -11   -1    0    0    0    0  0.00000000000E+00  0.00000000000E+00  0.45593999997E+02  0.45594000000E+02  0.51100000000E-03 0. -1.
         11   -1    0    0    0    0 -0.00000000000E+00 -0.00000000000E+00 -0.45593999997E+02  0.45594000000E+02  0.51100000000E-03 0.  1.
    9900012    2    1    2    0    0  0.19387179556E+02 -0.25480858580E+02 -0.29299926047E+02  0.47787279367E+02  0.20000037946E+02 0.  0.
         12    1    1    2    0    0 -0.19387179556E+02  0.25480858580E+02  0.29299926047E+02  0.43400720633E+02  0.00000000000E+00 0. -1.
         11    1    3    3    0    0 -0.14286984368E+01 -0.54725572256E+01 -0.71111749153E-01  0.56564228053E+01  0.51100000000E-03 0. -1.
        -11    1    3    3    0    0  0.15971285874E+01 -0.63660052100E+01 -0.44268693017E+01  0.79166921207E+01  0.51100000000E-03 0.  1.
        -12    1    3    3    0    0  0.19218749406E+02 -0.13642296144E+02 -0.24801944996E+02  0.34214164441E+02  0.00000000000E+00 0.  1.
</event>
<event>
 7    1  0.2682317E-010  0.4778722E+02  0.7816164E-02  0.1312668E+00
        -11   -1    0    0    0    0  0.00000000000E+00  0.00000000000E+00  0.45593999997E+02  0.45594000000E+02  0.51100000000E-03 0.  1.
         11   -1    0    0    0    0 -0.00000000000E+00 -0.00000000000E+00 -0.45593999997E+02  0.45594000000E+02  0.51100000000E-03 0. -1.
    9900012    2    1    2    0    0  0.27084841034E+02  0.54698716915E+00  0.33907820717E+02  0.47787215277E+02  0.19999745733E+02 0.  0.
         12    1    1    2    0    0 -0.27084841034E+02 -0.54698716915E+00 -0.33907820717E+02  0.43400784723E+02  0.00000000000E+00 0. -1.
         11    1    3    3    0    0  0.75871123390E+00  0.36991299487E+01  0.56002089976E+01  0.67543723759E+01  0.51100000000E-03 0. -1.
        -11    1    3    3    0    0  0.90513499684E+01 -0.19585395675E+01  0.18990936774E+01  0.94535374620E+01  0.51100000000E-03 0.  1.
        -12    1    3    3    0    0  0.17274779832E+02 -0.11936032121E+01  0.26408518042E+02  0.31579305439E+02  0.00000000000E+00 0.  1.
</event>
<event>
 7    1  0.2682317E-010  0.4778728E+02  0.7816164E-02  0.1312668E+00
        -11   -1    0    0    0    0  0.00000000000E+00  0.00000000000E+00  0.45593999997E+02  0.45594000000E+02  0.51100000000E-03 0.  1.
         11   -1    0    0    0    0 -0.00000000000E+00 -0.00000000000E+00 -0.45593999997E+02  0.45594000000E+02  0.51100000000E-03 0. -1.
    9900012    2    1    2    0    0 -0.13576254305E+02 -0.10188323582E+02  0.39943788641E+02  0.47787275705E+02  0.20000021247E+02 0.  0.
         12    1    1    2    0    0  0.13576254305E+02  0.10188323582E+02 -0.39943788641E+02  0.43400724295E+02  0.00000000000E+00 0. -1.
         11    1    3    3    0    0  0.33095113882E+01 -0.12895780904E+01  0.49670364617E+01  0.61063351327E+01  0.51100000000E-03 0. -1.
        -11    1    3    3    0    0  0.90447953810E+00  0.87396574413E+00  0.19280618235E-01  0.12578836831E+01  0.51100000000E-03 0.  1.
        -12    1    3    3    0    0 -0.17790245231E+02 -0.97727112359E+01  0.34957471561E+02  0.40423056889E+02  0.00000000000E+00 0.  1.
</event>
<event>
 7    1  0.2682317E-010  0.4778727E+02  0.7816164E-02  0.1312668E+00
        -11   -1    0    0    0    0  0.00000000000E+00  0.00000000000E+00  0.45593999997E+02  0.45594000000E+02  0.51100000000E-03 0.  1.
         11   -1    0    0    0    0 -0.00000000000E+00 -0.00000000000E+00 -0.45593999997E+02  0.45594000000E+02  0.51100000000E-03 0. -1.
    9900012    2    1    2    0    0  0.29245295938E+00 -0.35449333057E+02  0.25037619758E+02  0.47787272517E+02  0.20000006713E+02 0.  0.
         12    1    1    2    0    0 -0.29245295938E+00  0.35449333057E+02 -0.25037619758E+02  0.43400727483E+02  0.00000000000E+00 0. -1.
         11    1    3    3    0    0  0.54450119125E+01 -0.96692045560E+01  0.12965946085E+02  0.17066265837E+02  0.51100000000E-03 0. -1.
        -11    1    3    3    0    0 -0.13185906127E+01 -0.15598318441E+02  0.12190335598E+02  0.19840627551E+02  0.51100000000E-03 0.  1.
        -12    1    3    3    0    0 -0.38339683404E+01 -0.10181810060E+02 -0.11866192417E+00  0.10880379129E+02  0.00000000000E+00 0.  1.
</event>
<event>
 7    1  0.2682317E-010  0.4778726E+02  0.7816164E-02  0.1312668E+00
        -11   -1    0    0    0    0  0.00000000000E+00  0.00000000000E+00  0.45593999997E+02  0.45594000000E+02  0.51100000000E-03 0. -1.
         11   -1    0    0    0    0 -0.00000000000E+00 -0.00000000000E+00 -0.45593999997E+02  0.45594000000E+02  0.51100000000E-03 0.  1.
    9900012    2    1    2    0    0 -0.10927308279E+01 -0.32696614974E+02 -0.28519487219E+02  0.47787264492E+02  0.19999970125E+02 0.  0.
         12    1    1    2    0    0  0.10927308279E+01  0.32696614974E+02  0.28519487219E+02  0.43400735508E+02  0.00000000000E+00 0. -1.
         11    1    3    3    0    0 -0.19922690236E+01 -0.20914362537E+01 -0.43401016480E+01  0.52134176930E+01  0.51100000000E-03 0. -1.
        -11    1    3    3    0    0 -0.78507366058E+01 -0.11946809370E+02 -0.11773272586E+02  0.18519456445E+02  0.51100000000E-03 0.  1.
        -12    1    3    3    0    0  0.87502748015E+01 -0.18658369351E+02 -0.12406112985E+02  0.24054390354E+02  0.00000000000E+00 0.  1.
</event>
<event>
 7    1  0.2682317E-010  0.4778727E+02  0.7816164E-02  0.1312668E+00
        -11   -1    0    0    0    0  0.00000000000E+00  0.00000000000E+00  0.45593999997E+02  0.45594000000E+02  0.51100000000E-03 0.  1.
         11   -1    0    0    0    0 -0.00000000000E+00 -0.00000000000E+00 -0.45593999997E+02  0.45594000000E+02  0.51100000000E-03 0. -1.
    9900012    2    1    2    0    0 -0.31910211647E+02 -0.24782608330E+02  0.15848779666E+02  0.47787273049E+02  0.20000009141E+02 0.  0.
         12    1    1    2    0    0  0.31910211647E+02  0.24782608330E+02 -0.15848779666E+02  0.43400726951E+02  0.00000000000E+00 0. -1.
         11    1    3    3    0    0 -0.40625029986E+01 -0.83728782166E-01  0.82001199180E+01  0.91516614914E+01  0.51100000000E-03 0. -1.
        -11    1    3    3    0    0 -0.30360177093E+01 -0.48457399618E+01  0.31889201242E+01  0.65473514591E+01  0.51100000000E-03 0.  1.
        -12    1    3    3    0    0 -0.24811690939E+02 -0.19853139586E+02  0.44597396234E+01  0.32088260099E+02  0.00000000000E+00 0.  1.
</event>
<event>
 7    1  0.2682317E-010  0.4778727E+02  0.7816164E-02  0.1312668E+00
        -11   -1    0    0    0    0  0.00000000000E+00  0.00000000000E+00  0.45593999997E+02  0.45594000000E+02  0.51100000000E-03 0.  1.
         11   -1    0    0    0    0 -0.00000000000E+00 -0.00000000000E+00 -0.45593999997E+02  0.45594000000E+02  0.51100000000E-03 0. -1.
    9900012    2    1    2    0    0  0.12906731751E+02 -0.25394977674E+02  0.32743468634E+02  0.47787270124E+02  0.19999995805E+02 0.  0.
         12    1    1    2    0    0 -0.12906731751E+02  0.25394977674E+02 -0.32743468634E+02  0.43400729876E+02  0.00000000000E+00 0. -1.
         11    1    3    3    0    0  0.48438925966E+00  0.71746141729E-01  0.61726303570E+01  0.61920227914E+01  0.51100000000E-03 0. -1.
        -11    1    3    3    0    0 -0.29871521277E+01 -0.17052138206E+01  0.14285432437E+01  0.37244554056E+01  0.51100000000E-03 0.  1.
        -12    1    3    3    0    0  0.15409494619E+02 -0.23761509995E+02  0.25142295033E+02  0.37870791927E+02  0.00000000000E+00 0.  1.
</event>
<event>
 7    1  0.2682317E-010  0.4778727E+02  0.7816164E-02  0.1312668E+00
        -11   -1    0    0    0    0  0.00000000000E+00  0.00000000000E+00  0.45593999997E+02  0.45594000000E+02  0.51100000000E-03 0.  1.
         11   -1    0    0    0    0 -0.00000000000E+00 -0.00000000000E+00 -0.45593999997E+02  0.45594000000E+02  0.51100000000E-03 0. -1.
    9900012    2    1    2    0    0  0.19528573994E+02  0.65707094670E+01  0.38197955331E+02  0.47787271705E+02  0.20000003010E+02 0.  0.
         12    1    1    2    0    0 -0.19528573994E+02 -0.65707094670E+01 -0.38197955331E+02  0.43400728295E+02  0.00000000000E+00 0. -1.
         11    1    3    3    0    0  0.40647251274E+01  0.54712593348E+01  0.22641448730E+02  0.23645123597E+02  0.51100000000E-03 0. -1.
        -11    1    3    3    0    0  0.53750310446E+01 -0.35173870585E+01  0.95956150386E+01  0.11547242038E+02  0.51100000000E-03 0.  1.
         12    1    3    3    0    0  0.10088817822E+02  0.46168371907E+01  0.59608915620E+01  0.12594906069E+02  0.00000000000E+00 0. -1.
</event>
<event>
 7    1  0.2682317E-010  0.4778728E+02  0.7816164E-02  0.1312668E+00
        -11   -1    0    0    0    0  0.00000000000E+00  0.00000000000E+00  0.45593999997E+02  0.45594000000E+02  0.51100000000E-03 0. -1.
         11   -1    0    0    0    0 -0.00000000000E+00 -0.00000000000E+00 -0.45593999997E+02  0.45594000000E+02  0.51100000000E-03 0.  1.
    9900012    2    1    2    0    0  0.41344646812E+01  0.27314862943E+02 -0.33472783584E+02  0.47787276773E+02  0.20000026120E+02 0.  0.
         12    1    1    2    0    0 -0.41344646812E+01 -0.27314862943E+02  0.33472783584E+02  0.43400723227E+02  0.00000000000E+00 0. -1.
         11    1    3    3    0    0  0.15312478007E+01 -0.20788651424E+00 -0.43742375338E+01  0.46391692029E+01  0.51100000000E-03 0. -1.
        -11    1    3    3    0    0 -0.22363749851E+01  0.88792023621E+01 -0.11834299836E+01  0.92326656199E+01  0.51100000000E-03 0.  1.
        -12    1    3    3    0    0  0.48395918656E+01  0.18643547095E+02 -0.27915116066E+02  0.33915441950E+02  0.00000000000E+00 0.  1.
</event>
<event>
 7    1  0.2682317E-010  0.4778727E+02  0.7816164E-02  0.1312668E+00
        -11   -1    0    0    0    0  0.00000000000E+00  0.00000000000E+00  0.45593999997E+02  0.45594000000E+02  0.51100000000E-03 0.  1.
         11   -1    0    0    0    0 -0.00000000000E+00 -0.00000000000E+00 -0.45593999997E+02  0.45594000000E+02  0.51100000000E-03 0. -1.
    9900012    2    1    2    0    0  0.21937015582E+02  0.16512684104E+02  0.33611337635E+02  0.47787269516E+02  0.19999993033E+02 0.  0.
         12    1    1    2    0    0 -0.21937015582E+02 -0.16512684104E+02 -0.33611337635E+02  0.43400730484E+02  0.00000000000E+00 0. -1.
         11    1    3    3    0    0 -0.50974385316E+00 -0.11741754316E+01  0.75456841452E+01  0.76534878468E+01  0.51100000000E-03 0. -1.
        -11    1    3    3    0    0  0.79838336280E+00  0.45420703550E+01  0.14974270110E+01  0.48487222047E+01  0.51100000000E-03 0.  1.
        -12    1    3    3    0    0  0.21648376072E+02  0.13144789180E+02  0.24568226478E+02  0.35285059465E+02  0.00000000000E+00 0.  1.
</event>
<event>
 7    1  0.2682317E-010  0.4778727E+02  0.7816164E-02  0.1312668E+00
        -11   -1    0    0    0    0  0.00000000000E+00  0.00000000000E+00  0.45593999997E+02  0.45594000000E+02  0.51100000000E-03 0.  1.
         11   -1    0    0    0    0 -0.00000000000E+00 -0.00000000000E+00 -0.45593999997E+02  0.45594000000E+02  0.51100000000E-03 0. -1.
    9900012    2    1    2    0    0  0.33515739180E+02  0.27570698047E+02 -0.41850055875E+00  0.47787270670E+02  0.19999998295E+02 0.  0.
         12    1    1    2    0    0 -0.33515739180E+02 -0.27570698047E+02  0.41850055875E+00  0.43400729330E+02  0.00000000000E+00 0. -1.
         11    1    3    3    0    0  0.84904937805E+01  0.11958870070E+02 -0.33893141786E+01  0.15052923598E+02  0.51100000000E-03 0. -1.
        -11    1    3    3    0    0  0.23189673544E+02  0.17404585603E+02  0.25142759244E+00  0.28995581995E+02  0.51100000000E-03 0.  1.
        -12    1    3    3    0    0  0.18355718555E+01 -0.17927576256E+01  0.27193860274E+01  0.37387650778E+01  0.00000000000E+00 0.  1.
</event>
<event>
 7    1  0.2682317E-010  0.4778727E+02  0.7816164E-02  0.1312668E+00
        -11   -1    0    0    0    0  0.00000000000E+00  0.00000000000E+00  0.45593999997E+02  0.45594000000E+02  0.51100000000E-03 0. -1.
         11   -1    0    0    0    0 -0.00000000000E+00 -0.00000000000E+00 -0.45593999997E+02  0.45594000000E+02  0.51100000000E-03 0.  1.
    9900012    2    1    2    0    0  0.18231128314E+02  0.60449789202E+01 -0.38919244654E+02  0.47787269428E+02  0.19999992628E+02 0.  0.
         12    1    1    2    0    0 -0.18231128314E+02 -0.60449789202E+01  0.38919244654E+02  0.43400730572E+02  0.00000000000E+00 0. -1.
         11    1    3    3    0    0 -0.31275848224E+01  0.26579756981E+01 -0.35102221819E+01  0.54007667660E+01  0.51100000000E-03 0. -1.
        -11    1    3    3    0    0  0.52242485173E+01 -0.29038749752E+01 -0.94252104250E+01  0.11160638613E+02  0.51100000000E-03 0.  1.
        -12    1    3    3    0    0  0.16134464619E+02  0.62908781973E+01 -0.25983812048E+02  0.31225864048E+02  0.00000000000E+00 0.  1.
</event>
<event>
 7    1  0.2682317E-010  0.4778727E+02  0.7816164E-02  0.1312668E+00
        -11   -1    0    0    0    0  0.00000000000E+00  0.00000000000E+00  0.45593999997E+02  0.45594000000E+02  0.51100000000E-03 0. -1.
         11   -1    0    0    0    0 -0.00000000000E+00 -0.00000000000E+00 -0.45593999997E+02  0.45594000000E+02  0.51100000000E-03 0.  1.
    9900012    2    1    2    0    0  0.29934997443E+02  0.22536158879E+02 -0.21900698718E+02  0.47787272664E+02  0.20000007385E+02 0.  0.
         12    1    1    2    0    0 -0.29934997443E+02 -0.22536158879E+02  0.21900698718E+02  0.43400727336E+02  0.00000000000E+00 0. -1.
         11    1    3    3    0    0  0.17872586993E+01 -0.51419483464E+00 -0.36808795469E+01  0.41240228523E+01  0.51100000000E-03 0.  1.
        -11    1    3    3    0    0  0.87840102655E+01  0.17155161193E+02 -0.68960860368E+01  0.20469841103E+02  0.51100000000E-03 0. -1.
        -12    1    3    3    0    0  0.19363728478E+02  0.58951925207E+01 -0.11323733135E+02  0.23193408709E+02  0.00000000000E+00 0.  1.
</event>
<event>
 7    1  0.2682317E-010  0.4778730E+02  0.7816164E-02  0.1312668E+00
        -11   -1    0    0    0    0  0.00000000000E+00  0.00000000000E+00  0.45593999997E+02  0.45594000000E+02  0.51100000000E-03 0.  1.
         11   -1    0    0    0    0 -0.00000000000E+00 -0.00000000000E+00 -0.45593999997E+02  0.45594000000E+02  0.51100000000E-03 0. -1.
    9900012    2    1    2    0    0 -0.27345841940E+02 -0.14865772584E+01  0.33669212260E+02  0.47787299112E+02  0.20000127970E+02 0.  0.
         12    1    1    2    0    0  0.27345841940E+02  0.14865772584E+01 -0.33669212260E+02  0.43400700888E+02  0.00000000000E+00 0. -1.
         11    1    3    3    0    0 -0.14071342863E+01 -0.26272275761E+01  0.35607551301E+00  0.30015232247E+01  0.51100000000E-03 0. -1.
        -11    1    3    3    0    0  0.86316019100E+00  0.21151127689E+00 -0.93307889205E+00  0.12885724720E+01  0.51100000000E-03 0.  1.
        -12    1    3    3    0    0 -0.26801867845E+02  0.92913904075E+00  0.34246215639E+02  0.43497203415E+02  0.00000000000E+00 0.  1.
</event>
<event>
 7    1  0.2682317E-010  0.4778728E+02  0.7816164E-02  0.1312668E+00
        -11   -1    0    0    0    0  0.00000000000E+00  0.00000000000E+00  0.45593999997E+02  0.45594000000E+02  0.51100000000E-03 0.  1.
         11   -1    0    0    0    0 -0.00000000000E+00 -0.00000000000E+00 -0.45593999997E+02  0.45594000000E+02  0.51100000000E-03 0. -1.
    9900012    2    1    2    0    0 -0.29171394869E+02 -0.77338153119E+01  0.31190381933E+02  0.47787284533E+02  0.20000061502E+02 0.  0.
         12    1    1    2    0    0  0.29171394869E+02  0.77338153119E+01 -0.31190381933E+02  0.43400715467E+02  0.00000000000E+00 0. -1.
         11    1    3    3    0    0 -0.22198493292E+01 -0.20133188387E+01 -0.12354331075E+01  0.32415241808E+01  0.51100000000E-03 0. -1.
        -11    1    3    3    0    0 -0.56390679712E+01 -0.55953890787E+01  0.15166051713E+02  0.17120648100E+02  0.51100000000E-03 0.  1.
         12    1    3    3    0    0 -0.21312477569E+02 -0.12510739444E+00  0.17259763327E+02  0.27425112253E+02  0.00000000000E+00 0. -1.
</event>
<event>
 7    1  0.2682317E-010  0.4778731E+02  0.7816164E-02  0.1312668E+00
        -11   -1    0    0    0    0  0.00000000000E+00  0.00000000000E+00  0.45593999997E+02  0.45594000000E+02  0.51100000000E-03 0.  1.
         11   -1    0    0    0    0 -0.00000000000E+00 -0.00000000000E+00 -0.45593999997E+02  0.45594000000E+02  0.51100000000E-03 0. -1.
    9900012    2    1    2    0    0 -0.26469945331E+02 -0.29930815336E+02  0.16944256776E+02  0.47787313943E+02  0.20000195592E+02 0.  0.
         12    1    1    2    0    0  0.26469945331E+02  0.29930815336E+02 -0.16944256776E+02  0.43400686057E+02  0.00000000000E+00 0. -1.
         11    1    3    3    0    0 -0.61602610797E+01 -0.51632843977E+01 -0.52987464548E+00  0.80553764495E+01  0.51100000000E-03 0. -1.
        -11    1    3    3    0    0 -0.24484572391E+01 -0.28493044537E+01 -0.30128117634E+01  0.48156529884E+01  0.51100000000E-03 0.  1.
        -12    1    3    3    0    0 -0.17861227012E+02 -0.21918226485E+02  0.20486943185E+02  0.34916284505E+02  0.00000000000E+00 0.  1.
</event>
<event>
 7    1  0.2682317E-010  0.4778725E+02  0.7816164E-02  0.1312668E+00
        -11   -1    0    0    0    0  0.00000000000E+00  0.00000000000E+00  0.45593999997E+02  0.45594000000E+02  0.51100000000E-03 0.  1.
         11   -1    0    0    0    0 -0.00000000000E+00 -0.00000000000E+00 -0.45593999997E+02  0.45594000000E+02  0.51100000000E-03 0. -1.
    9900012    2    1    2    0    0  0.25652359832E+02 -0.14886282258E+02  0.31685642762E+02  0.47787252061E+02  0.19999913449E+02 0.  0.
         12    1    1    2    0    0 -0.25652359832E+02  0.14886282258E+02 -0.31685642762E+02  0.43400747939E+02  0.00000000000E+00 0. -1.
         11    1    3    3    0    0  0.19093941015E+02 -0.97899508452E+01  0.12634700930E+02  0.24900951566E+02  0.51100000000E-03 0. -1.
        -11    1    3    3    0    0  0.78956902618E+01 -0.59421688059E+01  0.11459930497E+02  0.15132128141E+02  0.51100000000E-03 0.  1.
         12    1    3    3    0    0 -0.13372714449E+01  0.84583739312E+00  0.75910113354E+01  0.77541723547E+01  0.00000000000E+00 0. -1.
</event>
<event>
 7    1  0.2682317E-010  0.4778726E+02  0.7816164E-02  0.1312668E+00
        -11   -1    0    0    0    0  0.00000000000E+00  0.00000000000E+00  0.45593999997E+02  0.45594000000E+02  0.51100000000E-03 0.  1.
         11   -1    0    0    0    0 -0.00000000000E+00 -0.00000000000E+00 -0.45593999997E+02  0.45594000000E+02  0.51100000000E-03 0. -1.
    9900012    2    1    2    0    0  0.12539873610E+02 -0.20380519934E+02  0.36207875337E+02  0.47787259691E+02  0.19999948233E+02 0.  0.
         12    1    1    2    0    0 -0.12539873610E+02  0.20380519934E+02 -0.36207875337E+02  0.43400740309E+02  0.00000000000E+00 0. -1.
         11    1    3    3    0    0 -0.18744855197E+00 -0.10015729389E+02  0.13765841680E+02  0.17024933761E+02  0.51100000000E-03 0. -1.
        -11    1    3    3    0    0  0.17320129616E+01 -0.90717346762E+01  0.14285945597E+02  0.17011304500E+02  0.51100000000E-03 0.  1.
         12    1    3    3    0    0  0.10995309201E+02 -0.12930558689E+01  0.81560880610E+01  0.13751021430E+02  0.00000000000E+00 0. -1.
</event>
<event>
 7    1  0.2682317E-010  0.4778727E+02  0.7816164E-02  0.1312668E+00
        -11   -1    0    0    0    0  0.00000000000E+00  0.00000000000E+00  0.45593999997E+02  0.45594000000E+02  0.51100000000E-03 0. -1.
         11   -1    0    0    0    0 -0.00000000000E+00 -0.00000000000E+00 -0.45593999997E+02  0.45594000000E+02  0.51100000000E-03 0.  1.
    9900012    2    1    2    0    0  0.26559200927E+02  0.34146229939E+02 -0.35024734640E+01  0.47787268517E+02  0.19999988476E+02 0.  0.
         12    1    1    2    0    0 -0.26559200927E+02 -0.34146229939E+02  0.35024734640E+01  0.43400731483E+02  0.00000000000E+00 0. -1.
         11    1    3    3    0    0 -0.99339924464E+00  0.64074130370E+00 -0.34981000002E+01  0.36924375891E+01  0.51100000000E-03 0. -1.
        -11    1    3    3    0    0  0.15439552700E+01  0.81343049532E+00  0.14864879051E+01  0.22924034548E+01  0.51100000000E-03 0.  1.
        -12    1    3    3    0    0  0.26008644901E+02  0.32692058140E+02 -0.14908613690E+01  0.41802427473E+02  0.00000000000E+00 0.  1.
</event>
<event>
 7    1  0.2682317E-010  0.4778727E+02  0.7816164E-02  0.1312668E+00
        -11   -1    0    0    0    0  0.00000000000E+00  0.00000000000E+00  0.45593999997E+02  0.45594000000E+02  0.51100000000E-03 0.  1.
         11   -1    0    0    0    0 -0.00000000000E+00 -0.00000000000E+00 -0.45593999997E+02  0.45594000000E+02  0.51100000000E-03 0. -1.
    9900012    2    1    2    0    0  0.23583370911E+02  0.27559342283E+02  0.23831295383E+02  0.47787269934E+02  0.19999994938E+02 0.  0.
         12    1    1    2    0    0 -0.23583370911E+02 -0.27559342283E+02 -0.23831295383E+02  0.43400730066E+02  0.00000000000E+00 0. -1.
         11    1    3    3    0    0  0.16408353354E+01  0.20188487808E+01 -0.20633318231E+01  0.33204562143E+01  0.51100000000E-03 0. -1.
        -11    1    3    3    0    0  0.18628046360E+01  0.73406947765E+00  0.72142542137E+01  0.74869461886E+01  0.51100000000E-03 0.  1.
        -12    1    3    3    0    0  0.20079730939E+02  0.24806424025E+02  0.18680372993E+02  0.36979867531E+02  0.00000000000E+00 0.  1.
</event>
<event>
 7    1  0.2682317E-010  0.4778727E+02  0.7816164E-02  0.1312668E+00
        -11   -1    0    0    0    0  0.00000000000E+00  0.00000000000E+00  0.45593999997E+02  0.45594000000E+02  0.51100000000E-03 0.  1.
         11   -1    0    0    0    0 -0.00000000000E+00 -0.00000000000E+00 -0.45593999997E+02  0.45594000000E+02  0.51100000000E-03 0. -1.
    9900012    2    1    2    0    0  0.69661610050E+01 -0.32226404857E+02  0.28223303414E+02  0.47787269306E+02  0.19999992075E+02 0.  0.
         12    1    1    2    0    0 -0.69661610050E+01  0.32226404857E+02 -0.28223303414E+02  0.43400730694E+02  0.00000000000E+00 0. -1.
         11    1    3    3    0    0  0.99818514467E+01 -0.17004005394E+02  0.63980879129E+01  0.20729425630E+02  0.51100000000E-03 0. -1.
        -11    1    3    3    0    0 -0.79880178235E+00 -0.10622483094E+02  0.12475894056E+02  0.16404973762E+02  0.51100000000E-03 0.  1.
         12    1    3    3    0    0 -0.22168886594E+01 -0.45999163688E+01  0.93493214447E+01  0.10652869914E+02  0.00000000000E+00 0. -1.
</event>
<event>
 7    1  0.2682317E-010  0.4778727E+02  0.7816164E-02  0.1312668E+00
        -11   -1    0    0    0    0  0.00000000000E+00  0.00000000000E+00  0.45593999997E+02  0.45594000000E+02  0.51100000000E-03 0.  1.
         11   -1    0    0    0    0 -0.00000000000E+00 -0.00000000000E+00 -0.45593999997E+02  0.45594000000E+02  0.51100000000E-03 0. -1.
    9900012    2    1    2    0    0  0.23872817181E+01 -0.43332398853E+02 -0.47679311998E+00  0.47787271481E+02  0.20000001989E+02 0.  0.
         12    1    1    2    0    0 -0.23872817181E+01  0.43332398853E+02  0.47679311998E+00  0.43400728519E+02  0.00000000000E+00 0. -1.
         11    1    3    3    0    0 -0.23139498660E+01  0.42344989751E+00  0.78433663822E-01  0.23536834747E+01  0.51100000000E-03 0. -1.
        -11    1    3    3    0    0 -0.19662158021E+01 -0.14707277592E+01  0.86271596098E+00  0.26025610103E+01  0.51100000000E-03 0.  1.
        -12    1    3    3    0    0  0.66674473862E+01 -0.42285120991E+02 -0.14179427448E+01  0.42831026996E+02  0.00000000000E+00 0.  1.
</event>
<event>
 7    1  0.2682317E-010  0.4778727E+02  0.7816164E-02  0.1312668E+00
        -11   -1    0    0    0    0  0.00000000000E+00  0.00000000000E+00  0.45593999997E+02  0.45594000000E+02  0.51100000000E-03 0.  1.
         11   -1    0    0    0    0 -0.00000000000E+00 -0.00000000000E+00 -0.45593999997E+02  0.45594000000E+02  0.51100000000E-03 0. -1.
    9900012    2    1    2    0    0  0.69146041924E+01 -0.41619992178E+02 -0.10177792016E+02  0.47787274772E+02  0.20000016994E+02 0.  0.
         12    1    1    2    0    0 -0.69146041924E+01  0.41619992178E+02  0.10177792016E+02  0.43400725228E+02  0.00000000000E+00 0. -1.
         11    1    3    3    0    0 -0.14602627247E+01 -0.16895752082E+02  0.23062806056E+01  0.17114839647E+02  0.51100000000E-03 0. -1.
        -11    1    3    3    0    0 -0.20480400384E+01 -0.84066702039E+01 -0.36864587276E+01  0.94051342429E+01  0.51100000000E-03 0.  1.
         12    1    3    3    0    0  0.10422906956E+02 -0.16317569892E+02 -0.87976138935E+01  0.21267300882E+02  0.00000000000E+00 0. -1.
</event>
<event>
 7    1  0.2682317E-010  0.4778727E+02  0.7816164E-02  0.1312668E+00
        -11   -1    0    0    0    0  0.00000000000E+00  0.00000000000E+00  0.45593999997E+02  0.45594000000E+02  0.51100000000E-03 0.  1.
         11   -1    0    0    0    0 -0.00000000000E+00 -0.00000000000E+00 -0.45593999997E+02  0.45594000000E+02  0.51100000000E-03 0. -1.
    9900012    2    1    2    0    0 -0.55275484771E+01 -0.83258369156E+01  0.42234460604E+02  0.47787274027E+02  0.20000013597E+02 0.  0.
         12    1    1    2    0    0  0.55275484771E+01  0.83258369156E+01 -0.42234460604E+02  0.43400725973E+02  0.00000000000E+00 0. -1.
         11    1    3    3    0    0 -0.29988829491E+01 -0.47841127914E+01  0.14228965447E+02  0.15308314476E+02  0.51100000000E-03 0. -1.
        -11    1    3    3    0    0 -0.36130722175E+01  0.14859930780E+01  0.26945877227E+02  0.27227610363E+02  0.51100000000E-03 0.  1.
         12    1    3    3    0    0  0.10844066895E+01 -0.50277172022E+01  0.10596179299E+01  0.52513491877E+01  0.00000000000E+00 0. -1.
</event>
<event>
 7    1  0.2682317E-010  0.4778727E+02  0.7816164E-02  0.1312668E+00
        -11   -1    0    0    0    0  0.00000000000E+00  0.00000000000E+00  0.45593999997E+02  0.45594000000E+02  0.51100000000E-03 0.  1.
         11   -1    0    0    0    0 -0.00000000000E+00 -0.00000000000E+00 -0.45593999997E+02  0.45594000000E+02  0.51100000000E-03 0. -1.
    9900012    2    1    2    0    0 -0.19245984176E+02  0.62604502828E+01  0.38392997544E+02  0.47787269533E+02  0.19999993110E+02 0.  0.
         12    1    1    2    0    0  0.19245984176E+02 -0.62604502828E+01 -0.38392997544E+02  0.43400730467E+02  0.00000000000E+00 0. -1.
         11    1    3    3    0    0 -0.47999155933E+01  0.22313157836E+01  0.29445041428E+01  0.60570673380E+01  0.51100000000E-03 0. -1.
        -11    1    3    3    0    0 -0.16429246424E+02  0.37718135432E+01  0.35917305268E+02  0.39676183454E+02  0.51100000000E-03 0.  1.
         12    1    3    3    0    0  0.19831778408E+01  0.25732095605E+00 -0.46881186767E+00  0.20540187414E+01  0.00000000000E+00 0. -1.
</event>
<event>
 7    1  0.2682317E-010  0.4778727E+02  0.7816164E-02  0.1312668E+00
        -11   -1    0    0    0    0  0.00000000000E+00  0.00000000000E+00  0.45593999997E+02  0.45594000000E+02  0.51100000000E-03 0.  1.
         11   -1    0    0    0    0 -0.00000000000E+00 -0.00000000000E+00 -0.45593999997E+02  0.45594000000E+02  0.51100000000E-03 0. -1.
    9900012    2    1    2    0    0  0.79624646628E+01  0.13286440951E+02  0.40542481548E+02  0.47787272279E+02  0.20000005630E+02 0.  0.
         12    1    1    2    0    0 -0.79624646628E+01 -0.13286440951E+02 -0.40542481548E+02  0.43400727721E+02  0.00000000000E+00 0. -1.
         11    1    3    3    0    0  0.30623541081E+00 -0.10982227361E+01 -0.10882476375E+01  0.15761207081E+01  0.51100000000E-03 0. -1.
        -11    1    3    3    0    0 -0.29151977861E+01  0.32695712328E+01  0.60933639534E+01  0.75045025624E+01  0.51100000000E-03 0.  1.
         12    1    3    3    0    0  0.10571427038E+02  0.11115092454E+02  0.35537365232E+02  0.38706649009E+02  0.00000000000E+00 0. -1.
</event>
<event>
 7    1  0.2682317E-010  0.4778727E+02  0.7816164E-02  0.1312668E+00
        -11   -1    0    0    0    0  0.00000000000E+00  0.00000000000E+00  0.45593999997E+02  0.45594000000E+02  0.51100000000E-03 0. -1.
         11   -1    0    0    0    0 -0.00000000000E+00 -0.00000000000E+00 -0.45593999997E+02  0.45594000000E+02  0.51100000000E-03 0.  1.
    9900012    2    1    2    0    0  0.65524300995E-02  0.41503970071E+02 -0.12690301687E+02  0.47787270381E+02  0.19999996975E+02 0.  0.
         12    1    1    2    0    0 -0.65524300995E-02 -0.41503970071E+02  0.12690301687E+02  0.43400729619E+02  0.00000000000E+00 0. -1.
         11    1    3    3    0    0 -0.31149990782E+01  0.80363372248E+01 -0.41502268800E+00  0.86289153050E+01  0.51100000000E-03 0. -1.
        -11    1    3    3    0    0  0.39145861703E+01  0.18731510700E+02  0.12006204231E+01  0.19173809420E+02  0.51100000000E-03 0.  1.
         12    1    3    3    0    0 -0.79303466199E+00  0.14736122145E+02 -0.13475899422E+02  0.19984545656E+02  0.00000000000E+00 0. -1.
</event>
<event>
 7    1  0.2682317E-010  0.4778727E+02  0.7816164E-02  0.1312668E+00
        -11   -1    0    0    0    0  0.00000000000E+00  0.00000000000E+00  0.45593999997E+02  0.45594000000E+02  0.51100000000E-03 0.  1.
         11   -1    0    0    0    0 -0.00000000000E+00 -0.00000000000E+00 -0.45593999997E+02  0.45594000000E+02  0.51100000000E-03 0. -1.
    9900012    2    1    2    0    0 -0.33315321881E+02 -0.14653405457E+02  0.23642978825E+02  0.47787269462E+02  0.19999992784E+02 0.  0.
         12    1    1    2    0    0  0.33315321881E+02  0.14653405457E+02 -0.23642978825E+02  0.43400730538E+02  0.00000000000E+00 0. -1.
         11    1    3    3    0    0 -0.78358314651E+00 -0.24934983883E+01 -0.52822123901E+00  0.26665623373E+01  0.51100000000E-03 0. -1.
        -11    1    3    3    0    0 -0.17418294036E+02 -0.10281475763E+02  0.53738989750E+01  0.20928079259E+02  0.51100000000E-03 0.  1.
         12    1    3    3    0    0 -0.15113444698E+02 -0.18784313056E+01  0.18797301089E+02  0.24192627866E+02  0.00000000000E+00 0. -1.
</event>
<event>
 7    1  0.2682317E-010  0.4778727E+02  0.7816164E-02  0.1312668E+00
        -11   -1    0    0    0    0  0.00000000000E+00  0.00000000000E+00  0.45593999997E+02  0.45594000000E+02  0.51100000000E-03 0.  1.
         11   -1    0    0    0    0 -0.00000000000E+00 -0.00000000000E+00 -0.45593999997E+02  0.45594000000E+02  0.51100000000E-03 0. -1.
    9900012    2    1    2    0    0  0.28878822857E+02 -0.80323476626E+01  0.31386595045E+02  0.47787269971E+02  0.19999995104E+02 0.  0.
         12    1    1    2    0    0 -0.28878822857E+02  0.80323476626E+01 -0.31386595045E+02  0.43400730029E+02  0.00000000000E+00 0. -1.
         11    1    3    3    0    0  0.18367070177E+02 -0.72605082344E+01  0.12661678476E+02  0.23460229087E+02  0.51100000000E-03 0. -1.
        -11    1    3    3    0    0  0.11644900187E+02 -0.38306994764E+01  0.15125312415E+02  0.19469284392E+02  0.51100000000E-03 0.  1.
         12    1    3    3    0    0 -0.11331475070E+01  0.30588600482E+01  0.35996041537E+01  0.48577564915E+01  0.00000000000E+00 0. -1.
</event>
<event>
 7    1  0.2682317E-010  0.4778727E+02  0.7816164E-02  0.1312668E+00
        -11   -1    0    0    0    0  0.00000000000E+00  0.00000000000E+00  0.45593999997E+02  0.45594000000E+02  0.51100000000E-03 0.  1.
         11   -1    0    0    0    0 -0.00000000000E+00 -0.00000000000E+00 -0.45593999997E+02  0.45594000000E+02  0.51100000000E-03 0. -1.
    9900012    2    1    2    0    0 -0.37115781280E+02 -0.26495875536E+01  0.22338793679E+02  0.47787271467E+02  0.20000001926E+02 0.  0.
         12    1    1    2    0    0  0.37115781280E+02  0.26495875536E+01 -0.22338793679E+02  0.43400728533E+02  0.00000000000E+00 0. -1.
         11    1    3    3    0    0 -0.23459370067E+02 -0.81343458642E+01  0.79626608691E+01  0.26075152827E+02  0.51100000000E-03 0. -1.
        -11    1    3    3    0    0 -0.40974581774E+00  0.82882394572E+00 -0.66260106150E+00  0.11374889872E+01  0.51100000000E-03 0.  1.
        -12    1    3    3    0    0 -0.13246665395E+02  0.46559343649E+01  0.15038733871E+02  0.20574629652E+02  0.00000000000E+00 0.  1.
</event>
<event>
 7    1  0.2682317E-010  0.4778727E+02  0.7816164E-02  0.1312668E+00
        -11   -1    0    0    0    0  0.00000000000E+00  0.00000000000E+00  0.45593999997E+02  0.45594000000E+02  0.51100000000E-03 0.  1.
         11   -1    0    0    0    0 -0.00000000000E+00 -0.00000000000E+00 -0.45593999997E+02  0.45594000000E+02  0.51100000000E-03 0. -1.
    9900012    2    1    2    0    0 -0.24907310270E+02  0.20978204855E+02  0.28690835907E+02  0.47787271333E+02  0.20000001314E+02 0.  0.
         12    1    1    2    0    0  0.24907310270E+02 -0.20978204855E+02 -0.28690835907E+02  0.43400728667E+02  0.00000000000E+00 0. -1.
         11    1    3    3    0    0 -0.77860132250E+01 -0.57340819237E+00  0.55730557602E+01  0.95921712695E+01  0.51100000000E-03 0. -1.
        -11    1    3    3    0    0 -0.46068502939E+01  0.56803042018E+01  0.14465776217E+02  0.16209491271E+02  0.51100000000E-03 0.  1.
         12    1    3    3    0    0 -0.12514446751E+02  0.15871308846E+02  0.86520039299E+01  0.21985608792E+02  0.00000000000E+00 0. -1.
</event>
<event>
 7    1  0.2682317E-010  0.4778727E+02  0.7816164E-02  0.1312668E+00
        -11   -1    0    0    0    0  0.00000000000E+00  0.00000000000E+00  0.45593999997E+02  0.45594000000E+02  0.51100000000E-03 0. -1.
         11   -1    0    0    0    0 -0.00000000000E+00 -0.00000000000E+00 -0.45593999997E+02  0.45594000000E+02  0.51100000000E-03 0.  1.
    9900012    2    1    2    0    0  0.15227822528E+02  0.29165398699E+02 -0.28303996646E+02  0.47787270900E+02  0.19999999343E+02 0.  0.
         12    1    1    2    0    0 -0.15227822528E+02 -0.29165398699E+02  0.28303996646E+02  0.43400729100E+02  0.00000000000E+00 0. -1.
         11    1    3    3    0    0  0.15415973901E+01  0.99034228432E+01 -0.40308891990E+01  0.10802887323E+02  0.51100000000E-03 0. -1.
        -11    1    3    3    0    0  0.71307887781E+01  0.12466323810E+02 -0.44630487415E+01  0.15039154972E+02  0.51100000000E-03 0.  1.
        -12    1    3    3    0    0  0.65554363596E+01  0.67956520460E+01 -0.19810058706E+02  0.21945228605E+02  0.00000000000E+00 0.  1.
</event>
<event>
 7    1  0.2682317E-010  0.4778726E+02  0.7816164E-02  0.1312668E+00
        -11   -1    0    0    0    0  0.00000000000E+00  0.00000000000E+00  0.45593999997E+02  0.45594000000E+02  0.51100000000E-03 0. -1.
         11   -1    0    0    0    0 -0.00000000000E+00 -0.00000000000E+00 -0.45593999997E+02  0.45594000000E+02  0.51100000000E-03 0.  1.
    9900012    2    1    2    0    0  0.23352745156E+02  0.31126749983E+02 -0.19219743618E+02  0.47787264804E+02  0.19999971547E+02 0.  0.
         12    1    1    2    0    0 -0.23352745156E+02 -0.31126749983E+02  0.19219743618E+02  0.43400735196E+02  0.00000000000E+00 0. -1.
         11    1    3    3    0    0  0.75775618310E+01 -0.99096580608E-01 -0.30326234991E+01  0.81624793404E+01  0.51100000000E-03 0.  1.
        -11    1    3    3    0    0  0.47363239472E+01  0.64808135633E+01  0.67878391828E-01  0.80273480498E+01  0.51100000000E-03 0. -1.
        -12    1    3    3    0    0  0.11038859378E+02  0.24745033000E+02 -0.16254998511E+02  0.31597437414E+02  0.00000000000E+00 0.  1.
</event>
<event>
 7    1  0.2682317E-010  0.4778727E+02  0.7816164E-02  0.1312668E+00
        -11   -1    0    0    0    0  0.00000000000E+00  0.00000000000E+00  0.45593999997E+02  0.45594000000E+02  0.51100000000E-03 0.  1.
         11   -1    0    0    0    0 -0.00000000000E+00 -0.00000000000E+00 -0.45593999997E+02  0.45594000000E+02  0.51100000000E-03 0. -1.
    9900012    2    1    2    0    0 -0.37109134505E+02 -0.43699037659E+01 -0.22078035864E+02  0.47787267400E+02  0.19999983383E+02 0.  0.
         12    1    1    2    0    0  0.37109134505E+02  0.43699037659E+01  0.22078035864E+02  0.43400732600E+02  0.00000000000E+00 0. -1.
         11    1    3    3    0    0 -0.20891599540E+01  0.21790810928E+01 -0.39067415992E+01  0.49371665869E+01  0.51100000000E-03 0. -1.
        -11    1    3    3    0    0 -0.18382377906E+02 -0.28378735314E-01 -0.15539426598E+01  0.18447963597E+02  0.51100000000E-03 0.  1.
         12    1    3    3    0    0 -0.16637596645E+02 -0.65206061234E+01 -0.16617351605E+02  0.24402137216E+02  0.00000000000E+00 0. -1.
</event>
<event>
 7    1  0.2682317E-010  0.4778727E+02  0.7816164E-02  0.1312668E+00
        -11   -1    0    0    0    0  0.00000000000E+00  0.00000000000E+00  0.45593999997E+02  0.45594000000E+02  0.51100000000E-03 0. -1.
         11   -1    0    0    0    0 -0.00000000000E+00 -0.00000000000E+00 -0.45593999997E+02  0.45594000000E+02  0.51100000000E-03 0.  1.
    9900012    2    1    2    0    0  0.37025626168E+02  0.21860840587E+02 -0.59016713381E+01  0.47787273406E+02  0.20000010768E+02 0.  0.
         12    1    1    2    0    0 -0.37025626168E+02 -0.21860840587E+02  0.59016713381E+01  0.43400726594E+02  0.00000000000E+00 0. -1.
         11    1    3    3    0    0  0.94711494377E+01  0.39121402723E+01 -0.18185720544E+01  0.10407435696E+02  0.51100000000E-03 0.  1.
        -11    1    3    3    0    0  0.10087162746E+02  0.21234598114E+01  0.57928368159E+01  0.11824419329E+02  0.51100000000E-03 0. -1.
         12    1    3    3    0    0  0.17467313984E+02  0.15825240503E+02 -0.98759360997E+01  0.25555418382E+02  0.00000000000E+00 0. -1.
</event>
<event>
 7    1  0.2682317E-010  0.4778727E+02  0.7816164E-02  0.1312668E+00
        -11   -1    0    0    0    0  0.00000000000E+00  0.00000000000E+00  0.45593999997E+02  0.45594000000E+02  0.51100000000E-03 0.  1.
         11   -1    0    0    0    0 -0.00000000000E+00 -0.00000000000E+00 -0.45593999997E+02  0.45594000000E+02  0.51100000000E-03 0. -1.
    9900012    2    1    2    0    0  0.40725590675E+02 -0.11946686508E+02  0.90733871660E+01  0.47787269487E+02  0.19999992900E+02 0.  0.
         12    1    1    2    0    0 -0.40725590675E+02  0.11946686508E+02 -0.90733871660E+01  0.43400730513E+02  0.00000000000E+00 0. -1.
         11    1    3    3    0    0  0.78375824047E+01 -0.50807229593E+01  0.17554069312E+01  0.95038359359E+01  0.51100000000E-03 0. -1.
        -11    1    3    3    0    0  0.29553596889E+02 -0.10950750887E+02  0.33711370040E+01  0.31696980913E+02  0.51100000000E-03 0.  1.
         12    1    3    3    0    0  0.33344113819E+01  0.40847873385E+01  0.39468432308E+01  0.65864526380E+01  0.00000000000E+00 0. -1.
</event>
<event>
 7    1  0.2682317E-010  0.4778727E+02  0.7816164E-02  0.1312668E+00
        -11   -1    0    0    0    0  0.00000000000E+00  0.00000000000E+00  0.45593999997E+02  0.45594000000E+02  0.51100000000E-03 0. -1.
         11   -1    0    0    0    0 -0.00000000000E+00 -0.00000000000E+00 -0.45593999997E+02  0.45594000000E+02  0.51100000000E-03 0.  1.
    9900012    2    1    2    0    0 -0.23840802272E+02 -0.18052947038E+02 -0.31453631733E+02  0.47787266148E+02  0.19999977674E+02 0.  0.
         12    1    1    2    0    0  0.23840802272E+02  0.18052947038E+02  0.31453631733E+02  0.43400733852E+02  0.00000000000E+00 0. -1.
         11    1    3    3    0    0  0.16295060237E+01 -0.47633837954E+01 -0.62124105513E+01  0.79961966073E+01  0.51100000000E-03 0. -1.
        -11    1    3    3    0    0 -0.12568475941E+02 -0.12104854450E+02 -0.17423181775E+02  0.24658900060E+02  0.51100000000E-03 0.  1.
        -12    1    3    3    0    0 -0.12901832354E+02 -0.11847087924E+01 -0.78180394063E+01  0.15132169480E+02  0.00000000000E+00 0.  1.
</event>
<event>
 7    1  0.2682317E-010  0.4778727E+02  0.7816164E-02  0.1312668E+00
        -11   -1    0    0    0    0  0.00000000000E+00  0.00000000000E+00  0.45593999997E+02  0.45594000000E+02  0.51100000000E-03 0.  1.
         11   -1    0    0    0    0 -0.00000000000E+00 -0.00000000000E+00 -0.45593999997E+02  0.45594000000E+02  0.51100000000E-03 0. -1.
    9900012    2    1    2    0    0  0.14789666782E+02  0.54636762732E+01  0.40435592867E+02  0.47787272213E+02  0.20000005326E+02 0.  0.
         12    1    1    2    0    0 -0.14789666782E+02 -0.54636762732E+01 -0.40435592867E+02  0.43400727787E+02  0.00000000000E+00 0. -1.
         11    1    3    3    0    0  0.17208638830E+01  0.45476164082E+01  0.38702780310E+01  0.62145989250E+01  0.51100000000E-03 0.  1.
        -11    1    3    3    0    0  0.96513368915E+01  0.72710808469E+01  0.18256618109E+02  0.21893401415E+02  0.51100000000E-03 0. -1.
        -12    1    3    3    0    0  0.34174660078E+01 -0.63550209819E+01  0.18308696727E+02  0.19679271873E+02  0.00000000000E+00 0.  1.
</event>
<event>
 7    1  0.2682317E-010  0.4778728E+02  0.7816164E-02  0.1312668E+00
        -11   -1    0    0    0    0  0.00000000000E+00  0.00000000000E+00  0.45593999997E+02  0.45594000000E+02  0.51100000000E-03 0. -1.
         11   -1    0    0    0    0 -0.00000000000E+00 -0.00000000000E+00 -0.45593999997E+02  0.45594000000E+02  0.51100000000E-03 0.  1.
    9900012    2    1    2    0    0 -0.28923302687E+02 -0.11147533462E+02  0.30377588894E+02  0.47787275955E+02  0.20000022389E+02 0.  0.
         12    1    1    2    0    0  0.28923302687E+02  0.11147533462E+02 -0.30377588894E+02  0.43400724045E+02  0.00000000000E+00 0. -1.
         11    1    3    3    0    0 -0.86975510922E+01 -0.54522367259E+01  0.57693901407E+01  0.11775404162E+02  0.51100000000E-03 0. -1.
        -11    1    3    3    0    0 -0.16573926906E+02 -0.10758160929E+02  0.20849485971E+02  0.28725148306E+02  0.51100000000E-03 0.  1.
         12    1    3    3    0    0 -0.36518246884E+01  0.50628641937E+01  0.37587127829E+01  0.72867234875E+01  0.00000000000E+00 0. -1.
</event>
<event>
 7    1  0.2682317E-010  0.4778728E+02  0.7816164E-02  0.1312668E+00
        -11   -1    0    0    0    0  0.00000000000E+00  0.00000000000E+00  0.45593999997E+02  0.45594000000E+02  0.51100000000E-03 0.  1.
         11   -1    0    0    0    0 -0.00000000000E+00 -0.00000000000E+00 -0.45593999997E+02  0.45594000000E+02  0.51100000000E-03 0. -1.
    9900012    2    1    2    0    0  0.41435618593E+02 -0.92566059737E+01  0.90015221388E+01  0.47787278311E+02  0.20000033131E+02 0.  0.
         12    1    1    2    0    0 -0.41435618593E+02  0.92566059737E+01 -0.90015221388E+01  0.43400721689E+02  0.00000000000E+00 0. -1.
         11    1    3    3    0    0  0.13861194327E+02 -0.54291052302E+01  0.35392453312E+01  0.15301442728E+02  0.51100000000E-03 0. -1.
        -11    1    3    3    0    0  0.27600728959E+02 -0.44528216427E-01  0.68808763115E+01  0.28445538857E+02  0.51100000000E-03 0.  1.
         12    1    3    3    0    0 -0.26304693424E-01 -0.37829725271E+01 -0.14185995039E+01  0.40402967255E+01  0.00000000000E+00 0. -1.
</event>
<event>
 7    1  0.2682317E-010  0.4778727E+02  0.7816164E-02  0.1312668E+00
        -11   -1    0    0    0    0  0.00000000000E+00  0.00000000000E+00  0.45593999997E+02  0.45594000000E+02  0.51100000000E-03 0.  1.
         11   -1    0    0    0    0 -0.00000000000E+00 -0.00000000000E+00 -0.45593999997E+02  0.45594000000E+02  0.51100000000E-03 0. -1.
    9900012    2    1    2    0    0  0.14347246664E+02 -0.20774221281E+02  0.35301719723E+02  0.47787272217E+02  0.20000005347E+02 0.  0.
         12    1    1    2    0    0 -0.14347246664E+02  0.20774221281E+02 -0.35301719723E+02  0.43400727783E+02  0.00000000000E+00 0. -1.
         11    1    3    3    0    0  0.13239393141E+02 -0.18983408227E+02  0.27462806116E+02  0.35914579751E+02  0.51100000000E-03 0. -1.
        -11    1    3    3    0    0  0.20655063515E+01 -0.80179703956E+00  0.94772133654E+01  0.97327677675E+01  0.51100000000E-03 0.  1.
         12    1    3    3    0    0 -0.95765282914E+00 -0.98901601469E+00 -0.16382997583E+01  0.21399246988E+01  0.00000000000E+00 0. -1.
</event>
<event>
 7    1  0.2682317E-010  0.4778729E+02  0.7816164E-02  0.1312668E+00
        -11   -1    0    0    0    0  0.00000000000E+00  0.00000000000E+00  0.45593999997E+02  0.45594000000E+02  0.51100000000E-03 0. -1.
         11   -1    0    0    0    0 -0.00000000000E+00 -0.00000000000E+00 -0.45593999997E+02  0.45594000000E+02  0.51100000000E-03 0.  1.
    9900012    2    1    2    0    0 -0.18991630031E+01 -0.30917848112E+02 -0.30399040180E+02  0.47787288072E+02  0.20000077637E+02 0.  0.
         12    1    1    2    0    0  0.18991630031E+01  0.30917848112E+02  0.30399040180E+02  0.43400711928E+02  0.00000000000E+00 0. -1.
         11    1    3    3    0    0 -0.83970084695E+00  0.11094185873E+01  0.32468779519E+00  0.14287510419E+01  0.51100000000E-03 0. -1.
        -11    1    3    3    0    0 -0.59429090356E+01 -0.11853181643E+02 -0.16630619677E+02  0.21269546163E+02  0.51100000000E-03 0.  1.
         12    1    3    3    0    0  0.48834468794E+01 -0.20174085056E+02 -0.14093108298E+02  0.25088990868E+02  0.00000000000E+00 0. -1.
</event>
<event>
 7    1  0.2682317E-010  0.4778727E+02  0.7816164E-02  0.1312668E+00
        -11   -1    0    0    0    0  0.00000000000E+00  0.00000000000E+00  0.45593999997E+02  0.45594000000E+02  0.51100000000E-03 0.  1.
         11   -1    0    0    0    0 -0.00000000000E+00 -0.00000000000E+00 -0.45593999997E+02  0.45594000000E+02  0.51100000000E-03 0. -1.
    9900012    2    1    2    0    0  0.22481364730E+02  0.43186880737E+01  0.36872217422E+02  0.47787271384E+02  0.20000001547E+02 0.  0.
         12    1    1    2    0    0 -0.22481364730E+02 -0.43186880737E+01 -0.36872217422E+02  0.43400728616E+02  0.00000000000E+00 0. -1.
         11    1    3    3    0    0 -0.71148201799E+00  0.41945966320E+01  0.63185452513E+01  0.76174051961E+01  0.51100000000E-03 0. -1.
        -11    1    3    3    0    0  0.14842953891E+02  0.49133223564E+01  0.23542332194E+02  0.28261199943E+02  0.51100000000E-03 0.  1.
        -12    1    3    3    0    0  0.83498928565E+01 -0.47892309146E+01  0.70113399767E+01  0.11908666245E+02  0.00000000000E+00 0.  1.
</event>
<event>
 7    1  0.2682317E-010  0.4778729E+02  0.7816164E-02  0.1312668E+00
        -11   -1    0    0    0    0  0.00000000000E+00  0.00000000000E+00  0.45593999997E+02  0.45594000000E+02  0.51100000000E-03 0. -1.
         11   -1    0    0    0    0 -0.00000000000E+00 -0.00000000000E+00 -0.45593999997E+02  0.45594000000E+02  0.51100000000E-03 0.  1.
    9900012    2    1    2    0    0 -0.18933746773E+02 -0.22532462897E+02 -0.31897072212E+02  0.47787287255E+02  0.20000073912E+02 0.  0.
         12    1    1    2    0    0  0.18933746773E+02  0.22532462897E+02  0.31897072212E+02  0.43400712745E+02  0.00000000000E+00 0. -1.
         11    1    3    3    0    0 -0.47039266987E+01 -0.24756693459E+01 -0.14080779657E+02  0.15050721614E+02  0.51100000000E-03 0. -1.
        -11    1    3    3    0    0 -0.61614232212E+01 -0.78100806518E+01 -0.14690046058E+02  0.17741419034E+02  0.51100000000E-03 0.  1.
        -12    1    3    3    0    0 -0.80683968528E+01 -0.12246712899E+02 -0.31262464972E+01  0.14995146607E+02  0.00000000000E+00 0.  1.
</event>
<event>
 7    1  0.2682317E-010  0.4778729E+02  0.7816164E-02  0.1312668E+00
        -11   -1    0    0    0    0  0.00000000000E+00  0.00000000000E+00  0.45593999997E+02  0.45594000000E+02  0.51100000000E-03 0.  1.
         11   -1    0    0    0    0 -0.00000000000E+00 -0.00000000000E+00 -0.45593999997E+02  0.45594000000E+02  0.51100000000E-03 0. -1.
    9900012    2    1    2    0    0  0.39830744613E+02  0.12248128008E+02  0.12129176347E+02  0.47787288312E+02  0.20000078731E+02 0.  0.
         12    1    1    2    0    0 -0.39830744613E+02 -0.12248128008E+02 -0.12129176347E+02  0.43400711688E+02  0.00000000000E+00 0. -1.
         11    1    3    3    0    0  0.14768350647E+01 -0.57022957501E-02  0.20432153046E+01  0.25210718686E+01  0.51100000000E-03 0. -1.
        -11    1    3    3    0    0  0.38557775596E+02  0.74227194109E+01  0.94714025197E+01  0.40391908698E+02  0.51100000000E-03 0.  1.
         12    1    3    3    0    0 -0.20386604682E+00  0.48311108924E+01  0.61455852230E+00  0.48743077455E+01  0.00000000000E+00 0. -1.
</event>
<event>
 7    1  0.2682317E-010  0.4778727E+02  0.7816164E-02  0.1312668E+00
        -11   -1    0    0    0    0  0.00000000000E+00  0.00000000000E+00  0.45593999997E+02  0.45594000000E+02  0.51100000000E-03 0.  1.
         11   -1    0    0    0    0 -0.00000000000E+00 -0.00000000000E+00 -0.45593999997E+02  0.45594000000E+02  0.51100000000E-03 0. -1.
    9900012    2    1    2    0    0  0.33766921782E+02 -0.22392144896E+02  0.15556673082E+02  0.47787271468E+02  0.20000001933E+02 0.  0.
         12    1    1    2    0    0 -0.33766921782E+02  0.22392144896E+02 -0.15556673082E+02  0.43400728532E+02  0.00000000000E+00 0. -1.
         11    1    3    3    0    0  0.82776264646E+01 -0.26902979278E+01 -0.93829729874E+00  0.87542678112E+01  0.51100000000E-03 0. -1.
        -11    1    3    3    0    0  0.20138139560E+02 -0.10158226729E+02  0.48817918788E+01  0.23077394295E+02  0.51100000000E-03 0.  1.
        -12    1    3    3    0    0  0.53511557572E+01 -0.95436202385E+01  0.11613178502E+02  0.15955609362E+02  0.00000000000E+00 0.  1.
</event>
<event>
 7    1  0.2682317E-010  0.4778727E+02  0.7816164E-02  0.1312668E+00
        -11   -1    0    0    0    0  0.00000000000E+00  0.00000000000E+00  0.45593999997E+02  0.45594000000E+02  0.51100000000E-03 0.  1.
         11   -1    0    0    0    0 -0.00000000000E+00 -0.00000000000E+00 -0.45593999997E+02  0.45594000000E+02  0.51100000000E-03 0. -1.
    9900012    2    1    2    0    0 -0.27194537191E+02 -0.32433909338E+02  0.95980132021E+01  0.47787272064E+02  0.20000004649E+02 0.  0.
         12    1    1    2    0    0  0.27194537191E+02  0.32433909338E+02 -0.95980132021E+01  0.43400727936E+02  0.00000000000E+00 0. -1.
         11    1    3    3    0    0 -0.25598710706E+01 -0.11167866285E+02  0.46896526162E+00  0.11467087945E+02  0.51100000000E-03 0. -1.
        -11    1    3    3    0    0  0.39214255393E+00  0.64458797194E+00  0.22235809549E+01  0.23481017781E+01  0.51100000000E-03 0.  1.
        -12    1    3    3    0    0 -0.25026808674E+02 -0.21910631025E+02  0.69054669856E+01  0.33972082341E+02  0.00000000000E+00 0.  1.
</event>
<event>
 7    1  0.2682317E-010  0.4778727E+02  0.7816164E-02  0.1312668E+00
        -11   -1    0    0    0    0  0.00000000000E+00  0.00000000000E+00  0.45593999997E+02  0.45594000000E+02  0.51100000000E-03 0.  1.
         11   -1    0    0    0    0 -0.00000000000E+00 -0.00000000000E+00 -0.45593999997E+02  0.45594000000E+02  0.51100000000E-03 0. -1.
    9900012    2    1    2    0    0  0.36928692269E+02 -0.99703954632E+01  0.20505762203E+02  0.47787269800E+02  0.19999994325E+02 0.  0.
         12    1    1    2    0    0 -0.36928692269E+02  0.99703954632E+01 -0.20505762203E+02  0.43400730200E+02  0.00000000000E+00 0. -1.
         11    1    3    3    0    0  0.15147749840E+02 -0.12000740133E+02  0.16238042730E+02  0.25241753523E+02  0.51100000000E-03 0.  1.
        -11    1    3    3    0    0  0.17036448539E+00  0.36553194166E+00 -0.14071967459E+00  0.42712989382E+00  0.51100000000E-03 0. -1.
        -12    1    3    3    0    0  0.21610577943E+02  0.16648127282E+01  0.44084391477E+01  0.22118386383E+02  0.00000000000E+00 0.  1.
</event>
<event>
 7    1  0.2682317E-010  0.4778727E+02  0.7816164E-02  0.1312668E+00
        -11   -1    0    0    0    0  0.00000000000E+00  0.00000000000E+00  0.45593999997E+02  0.45594000000E+02  0.51100000000E-03 0. -1.
         11   -1    0    0    0    0 -0.00000000000E+00 -0.00000000000E+00 -0.45593999997E+02  0.45594000000E+02  0.51100000000E-03 0.  1.
    9900012    2    1    2    0    0 -0.20834500209E+02 -0.17231222860E+02 -0.33950430556E+02  0.47787272182E+02  0.20000005185E+02 0.  0.
         12    1    1    2    0    0  0.20834500209E+02  0.17231222860E+02  0.33950430556E+02  0.43400727818E+02  0.00000000000E+00 0. -1.
         11    1    3    3    0    0 -0.19796940632E+01 -0.65094107348E+01 -0.71683819587E+01  0.98831835390E+01  0.51100000000E-03 0. -1.
        -11    1    3    3    0    0 -0.16762946440E+01 -0.93833805426E+01 -0.10768736373E+02  0.14381358680E+02  0.51100000000E-03 0.  1.
         12    1    3    3    0    0 -0.17178511502E+02 -0.13384315827E+01 -0.16013312224E+02  0.23522729963E+02  0.00000000000E+00 0. -1.
</event>
<event>
 7    1  0.2682317E-010  0.4778727E+02  0.7816164E-02  0.1312668E+00
        -11   -1    0    0    0    0  0.00000000000E+00  0.00000000000E+00  0.45593999997E+02  0.45594000000E+02  0.51100000000E-03 0. -1.
         11   -1    0    0    0    0 -0.00000000000E+00 -0.00000000000E+00 -0.45593999997E+02  0.45594000000E+02  0.51100000000E-03 0.  1.
    9900012    2    1    2    0    0 -0.24571281554E+02  0.32788152183E+02 -0.14311271150E+02  0.47787270943E+02  0.19999999536E+02 0.  0.
         12    1    1    2    0    0  0.24571281554E+02 -0.32788152183E+02  0.14311271150E+02  0.43400729057E+02  0.00000000000E+00 0. -1.
         11    1    3    3    0    0  0.76451361957E-01  0.22066478521E+01 -0.25845454393E+00  0.22230471354E+01  0.51100000000E-03 0. -1.
        -11    1    3    3    0    0 -0.25732467185E+02  0.26242962390E+02 -0.16697080918E+02  0.40368867384E+02  0.51100000000E-03 0.  1.
        -12    1    3    3    0    0  0.10847342696E+01  0.43385419409E+01  0.26442643118E+01  0.51953564228E+01  0.00000000000E+00 0.  1.
</event>
<event>
 7    1  0.2682317E-010  0.4778727E+02  0.7816164E-02  0.1312668E+00
        -11   -1    0    0    0    0  0.00000000000E+00  0.00000000000E+00  0.45593999997E+02  0.45594000000E+02  0.51100000000E-03 0.  1.
         11   -1    0    0    0    0 -0.00000000000E+00 -0.00000000000E+00 -0.45593999997E+02  0.45594000000E+02  0.51100000000E-03 0. -1.
    9900012    2    1    2    0    0 -0.35813291009E+02 -0.17277111355E+02  0.17393472339E+02  0.47787271093E+02  0.20000000221E+02 0.  0.
         12    1    1    2    0    0  0.35813291009E+02  0.17277111355E+02 -0.17393472339E+02  0.43400728907E+02  0.00000000000E+00 0. -1.
         11    1    3    3    0    0 -0.11615397158E+02 -0.16186207286E+01  0.39268636618E+01  0.12367604565E+02  0.51100000000E-03 0. -1.
        -11    1    3    3    0    0 -0.13387198731E+02 -0.85212878806E+01  0.15644055636E+02  0.22283758974E+02  0.51100000000E-03 0.  1.
        -12    1    3    3    0    0 -0.10810695120E+02 -0.71372027459E+01 -0.21774469587E+01  0.13135907554E+02  0.00000000000E+00 0.  1.
</event>
<event>
 7    1  0.2682317E-010  0.4778728E+02  0.7816164E-02  0.1312668E+00
        -11   -1    0    0    0    0  0.00000000000E+00  0.00000000000E+00  0.45593999997E+02  0.45594000000E+02  0.51100000000E-03 0.  1.
         11   -1    0    0    0    0 -0.00000000000E+00 -0.00000000000E+00 -0.45593999997E+02  0.45594000000E+02  0.51100000000E-03 0. -1.
    9900012    2    1    2    0    0  0.14247749558E+02  0.36366248173E+02  0.18924063639E+02  0.47787279289E+02  0.20000037591E+02 0.  0.
         12    1    1    2    0    0 -0.14247749558E+02 -0.36366248173E+02 -0.18924063639E+02  0.43400720711E+02  0.00000000000E+00 0. -1.
         11    1    3    3    0    0  0.89654346539E+01  0.19746620983E+02  0.10935005661E+02  0.24287494887E+02  0.51100000000E-03 0. -1.
        -11    1    3    3    0    0  0.70138834615E+01  0.16669859983E+02  0.10143167993E+02  0.20735540751E+02  0.51100000000E-03 0.  1.
         12    1    3    3    0    0 -0.17315685578E+01 -0.50232793342E-01 -0.21541100156E+01  0.27642436512E+01  0.00000000000E+00 0. -1.
</event>
<event>
 7    1  0.2682317E-010  0.4778727E+02  0.7816164E-02  0.1312668E+00
        -11   -1    0    0    0    0  0.00000000000E+00  0.00000000000E+00  0.45593999997E+02  0.45594000000E+02  0.51100000000E-03 0.  1.
         11   -1    0    0    0    0 -0.00000000000E+00 -0.00000000000E+00 -0.45593999997E+02  0.45594000000E+02  0.51100000000E-03 0. -1.
    9900012    2    1    2    0    0  0.25794382798E+02  0.15420875601E+02  0.31312455448E+02  0.47787268965E+02  0.19999990518E+02 0.  0.
         12    1    1    2    0    0 -0.25794382798E+02 -0.15420875601E+02 -0.31312455448E+02  0.43400731035E+02  0.00000000000E+00 0. -1.
         11    1    3    3    0    0  0.13358531484E+02  0.39971610980E+01  0.75972123512E+01  0.15879083601E+02  0.51100000000E-03 0. -1.
        -11    1    3    3    0    0  0.11697736673E+02  0.11492231697E+02  0.12375234460E+02  0.20543973832E+02  0.51100000000E-03 0.  1.
         12    1    3    3    0    0  0.73811464121E+00 -0.68517194063E-01  0.11340008637E+02  0.11364211531E+02  0.00000000000E+00 0. -1.
</event>
<event>
 7    1  0.2682317E-010  0.4778726E+02  0.7816164E-02  0.1312668E+00
        -11   -1    0    0    0    0  0.00000000000E+00  0.00000000000E+00  0.45593999997E+02  0.45594000000E+02  0.51100000000E-03 0.  1.
         11   -1    0    0    0    0 -0.00000000000E+00 -0.00000000000E+00 -0.45593999997E+02  0.45594000000E+02  0.51100000000E-03 0. -1.
    9900012    2    1    2    0    0  0.19652415017E+02 -0.33860850113E+02  0.18730975716E+02  0.47787262245E+02  0.19999959882E+02 0.  0.
         12    1    1    2    0    0 -0.19652415017E+02  0.33860850113E+02 -0.18730975716E+02  0.43400737755E+02  0.00000000000E+00 0. -1.
         11    1    3    3    0    0 -0.13722540392E+01 -0.42493993702E+01 -0.41651933521E-01  0.44656703081E+01  0.51100000000E-03 0. -1.
        -11    1    3    3    0    0  0.12287067254E+01 -0.10979880190E+02  0.15913606580E+01  0.11162433346E+02  0.51100000000E-03 0.  1.
        -12    1    3    3    0    0  0.19795962331E+02 -0.18631570553E+02  0.17181266991E+02  0.32159158591E+02  0.00000000000E+00 0.  1.
</event>
<event>
 7    1  0.2682317E-010  0.4778728E+02  0.7816164E-02  0.1312668E+00
        -11   -1    0    0    0    0  0.00000000000E+00  0.00000000000E+00  0.45593999997E+02  0.45594000000E+02  0.51100000000E-03 0. -1.
         11   -1    0    0    0    0 -0.00000000000E+00 -0.00000000000E+00 -0.45593999997E+02  0.45594000000E+02  0.51100000000E-03 0.  1.
    9900012    2    1    2    0    0 -0.24773919420E+02  0.34295040967E+02 -0.96812079681E+01  0.47787277586E+02  0.20000029824E+02 0.  0.
         12    1    1    2    0    0  0.24773919420E+02 -0.34295040967E+02  0.96812079681E+01  0.43400722414E+02  0.00000000000E+00 0. -1.
         11    1    3    3    0    0 -0.15050454452E+02  0.12010781125E+02 -0.20213202872E+01  0.19361321711E+02  0.51100000000E-03 0. -1.
        -11    1    3    3    0    0 -0.23527619982E+01  0.89114551150E+01  0.31245422997E+01  0.97320237428E+01  0.51100000000E-03 0.  1.
        -12    1    3    3    0    0 -0.73707029703E+01  0.13372804727E+02 -0.10784429981E+02  0.18693932132E+02  0.00000000000E+00 0.  1.
</event>
<event>
 7    1  0.2682317E-010  0.4778727E+02  0.7816164E-02  0.1312668E+00
        -11   -1    0    0    0    0  0.00000000000E+00  0.00000000000E+00  0.45593999997E+02  0.45594000000E+02  0.51100000000E-03 0. -1.
         11   -1    0    0    0    0 -0.00000000000E+00 -0.00000000000E+00 -0.45593999997E+02  0.45594000000E+02  0.51100000000E-03 0.  1.
    9900012    2    1    2    0    0  0.32247689854E+02 -0.14115850141E+01 -0.29012365903E+02  0.47787269033E+02  0.19999990830E+02 0.  0.
         12    1    1    2    0    0 -0.32247689854E+02  0.14115850141E+01  0.29012365903E+02  0.43400730967E+02  0.00000000000E+00 0. -1.
         11    1    3    3    0    0  0.50845414945E+01  0.52590139156E+01 -0.54293427481E+01  0.91097504088E+01  0.51100000000E-03 0. -1.
        -11    1    3    3    0    0  0.19608366169E+02 -0.53458764101E+00 -0.10141115001E+02  0.22082029379E+02  0.51100000000E-03 0.  1.
         12    1    3    3    0    0  0.75547821902E+01 -0.61360112886E+01 -0.13441908153E+02  0.16595489245E+02  0.00000000000E+00 0. -1.
</event>
<event>
 7    1  0.2682317E-010  0.4778727E+02  0.7816164E-02  0.1312668E+00
        -11   -1    0    0    0    0  0.00000000000E+00  0.00000000000E+00  0.45593999997E+02  0.45594000000E+02  0.51100000000E-03 0.  1.
         11   -1    0    0    0    0 -0.00000000000E+00 -0.00000000000E+00 -0.45593999997E+02  0.45594000000E+02  0.51100000000E-03 0. -1.
    9900012    2    1    2    0    0  0.25019032425E+02  0.62456870063E+01  0.34909348173E+02  0.47787272131E+02  0.20000004956E+02 0.  0.
         12    1    1    2    0    0 -0.25019032425E+02 -0.62456870063E+01 -0.34909348173E+02  0.43400727869E+02  0.00000000000E+00 0. -1.
         11    1    3    3    0    0  0.21299285643E+02  0.56445071589E+01  0.31256958291E+02  0.38242874785E+02  0.51100000000E-03 0. -1.
        -11    1    3    3    0    0  0.47775924394E+01  0.33688366295E+01  0.22179294064E+01  0.62524923723E+01  0.51100000000E-03 0.  1.
         12    1    3    3    0    0 -0.10578456580E+01 -0.27676567821E+01  0.14344604758E+01  0.32919049738E+01  0.00000000000E+00 0. -1.
</event>
<event>
 7    1  0.2682317E-010  0.4778727E+02  0.7816164E-02  0.1312668E+00
        -11   -1    0    0    0    0  0.00000000000E+00  0.00000000000E+00  0.45593999997E+02  0.45594000000E+02  0.51100000000E-03 0.  1.
         11   -1    0    0    0    0 -0.00000000000E+00 -0.00000000000E+00 -0.45593999997E+02  0.45594000000E+02  0.51100000000E-03 0. -1.
    9900012    2    1    2    0    0 -0.83932099906E+01  0.34665640286E+02  0.24727933945E+02  0.47787270656E+02  0.19999998231E+02 0.  0.
         12    1    1    2    0    0  0.83932099906E+01 -0.34665640286E+02 -0.24727933945E+02  0.43400729344E+02  0.00000000000E+00 0. -1.
         11    1    3    3    0    0 -0.11129047876E+02  0.21004527365E+02  0.19186346314E+02  0.30547696502E+02  0.51100000000E-03 0. -1.
        -11    1    3    3    0    0 -0.26530560139E+01  0.78894279563E+01  0.18684555407E+01  0.85307037259E+01  0.51100000000E-03 0.  1.
        -12    1    3    3    0    0  0.53888938989E+01  0.57716849646E+01  0.36731320900E+01  0.87088704282E+01  0.00000000000E+00 0.  1.
</event>
<event>
 7    1  0.2682317E-010  0.4778727E+02  0.7816164E-02  0.1312668E+00
        -11   -1    0    0    0    0  0.00000000000E+00  0.00000000000E+00  0.45593999997E+02  0.45594000000E+02  0.51100000000E-03 0.  1.
         11   -1    0    0    0    0 -0.00000000000E+00 -0.00000000000E+00 -0.45593999997E+02  0.45594000000E+02  0.51100000000E-03 0. -1.
    9900012    2    1    2    0    0  0.34809841564E+02  0.10759797474E+02  0.23582299627E+02  0.47787272275E+02  0.20000005610E+02 0.  0.
         12    1    1    2    0    0 -0.34809841564E+02 -0.10759797474E+02 -0.23582299627E+02  0.43400727725E+02  0.00000000000E+00 0. -1.
         11    1    3    3    0    0  0.17750330131E+02  0.32716872235E+01  0.14044538950E+02  0.22869788622E+02  0.51100000000E-03 0.  1.
        -11    1    3    3    0    0  0.19092547790E+02  0.77900530745E+01  0.72890628986E+01  0.21871002405E+02  0.51100000000E-03 0. -1.
        -12    1    3    3    0    0 -0.20330363562E+01 -0.30194282439E+00  0.22486977782E+01  0.30464812476E+01  0.00000000000E+00 0.  1.
</event>
<event>
 7    1  0.2682317E-010  0.4778727E+02  0.7816164E-02  0.1312668E+00
        -11   -1    0    0    0    0  0.00000000000E+00  0.00000000000E+00  0.45593999997E+02  0.45594000000E+02  0.51100000000E-03 0. -1.
         11   -1    0    0    0    0 -0.00000000000E+00 -0.00000000000E+00 -0.45593999997E+02  0.45594000000E+02  0.51100000000E-03 0.  1.
    9900012    2    1    2    0    0  0.24663701570E+01 -0.81822995605E+01 -0.42551029115E+02  0.47787273202E+02  0.20000009838E+02 0.  0.
         12    1    1    2    0    0 -0.24663701570E+01  0.81822995605E+01  0.42551029115E+02  0.43400726798E+02  0.00000000000E+00 0. -1.
         11    1    3    3    0    0  0.37216052948E+01 -0.70885399896E+01 -0.48037261657E+01  0.93366766299E+01  0.51100000000E-03 0. -1.
        -11    1    3    3    0    0 -0.22901336242E+01 -0.32459903288E+01 -0.13131875893E+02  0.13719596567E+02  0.51100000000E-03 0.  1.
         12    1    3    3    0    0  0.10348984864E+01  0.21522307580E+01 -0.24615427056E+02  0.24731000005E+02  0.00000000000E+00 0. -1.
</event>
<event>
 7    1  0.2682317E-010  0.4778727E+02  0.7816164E-02  0.1312668E+00
        -11   -1    0    0    0    0  0.00000000000E+00  0.00000000000E+00  0.45593999997E+02  0.45594000000E+02  0.51100000000E-03 0. -1.
         11   -1    0    0    0    0 -0.00000000000E+00 -0.00000000000E+00 -0.45593999997E+02  0.45594000000E+02  0.51100000000E-03 0.  1.
    9900012    2    1    2    0    0  0.83237672839E+01 -0.42277188573E+02  0.51939675766E+01  0.47787273340E+02  0.20000010466E+02 0.  0.
         12    1    1    2    0    0 -0.83237672839E+01  0.42277188573E+02 -0.51939675766E+01  0.43400726660E+02  0.00000000000E+00 0. -1.
         11    1    3    3    0    0  0.33482624391E+01 -0.10415728833E+02 -0.20197364905E+01  0.11125538379E+02  0.51100000000E-03 0. -1.
        -11    1    3    3    0    0  0.78526426301E+01 -0.31250174253E+02  0.42752501644E+01  0.32504078996E+02  0.51100000000E-03 0.  1.
         12    1    3    3    0    0 -0.28771377853E+01 -0.61128548682E+00  0.29384539027E+01  0.41576559646E+01  0.00000000000E+00 0. -1.
</event>
<event>
 7    1  0.2682317E-010  0.4778727E+02  0.7816164E-02  0.1312668E+00
        -11   -1    0    0    0    0  0.00000000000E+00  0.00000000000E+00  0.45593999997E+02  0.45594000000E+02  0.51100000000E-03 0.  1.
         11   -1    0    0    0    0 -0.00000000000E+00 -0.00000000000E+00 -0.45593999997E+02  0.45594000000E+02  0.51100000000E-03 0. -1.
    9900012    2    1    2    0    0 -0.19736795525E+02  0.38435917981E+02  0.40941853020E+01  0.47787271412E+02  0.20000001678E+02 0.  0.
         12    1    1    2    0    0  0.19736795525E+02 -0.38435917981E+02 -0.40941853020E+01  0.43400728588E+02  0.00000000000E+00 0. -1.
         11    1    3    3    0    0 -0.76022760696E+01  0.14027622008E+02 -0.71204555040E+01  0.17471968049E+02  0.51100000000E-03 0. -1.
        -11    1    3    3    0    0  0.20938651475E-01 -0.46616704747E+00  0.30631320398E+00  0.55819188755E+00  0.51100000000E-03 0.  1.
        -12    1    3    3    0    0 -0.12155458107E+02  0.24874463020E+02  0.10908327602E+02  0.29757111476E+02  0.00000000000E+00 0.  1.
</event>
<event>
 7    1  0.2682317E-010  0.4778727E+02  0.7816164E-02  0.1312668E+00
        -11   -1    0    0    0    0  0.00000000000E+00  0.00000000000E+00  0.45593999997E+02  0.45594000000E+02  0.51100000000E-03 0.  1.
         11   -1    0    0    0    0 -0.00000000000E+00 -0.00000000000E+00 -0.45593999997E+02  0.45594000000E+02  0.51100000000E-03 0. -1.
    9900012    2    1    2    0    0 -0.20444312221E+02 -0.26321895148E+02  0.27799485469E+02  0.47787268915E+02  0.19999990290E+02 0.  0.
         12    1    1    2    0    0  0.20444312221E+02  0.26321895148E+02 -0.27799485469E+02  0.43400731085E+02  0.00000000000E+00 0. -1.
         11    1    3    3    0    0 -0.28606448615E+01 -0.10573379444E+02  0.65332985667E+01  0.12753965357E+02  0.51100000000E-03 0. -1.
        -11    1    3    3    0    0 -0.44390288110E+01 -0.12827973538E+02  0.65025598296E+01  0.15051417425E+02  0.51100000000E-03 0.  1.
         12    1    3    3    0    0 -0.13144638548E+02 -0.29205421654E+01  0.14763627073E+02  0.19981886134E+02  0.00000000000E+00 0. -1.
</event>
<event>
 7    1  0.2682317E-010  0.4778725E+02  0.7816164E-02  0.1312668E+00
        -11   -1    0    0    0    0  0.00000000000E+00  0.00000000000E+00  0.45593999997E+02  0.45594000000E+02  0.51100000000E-03 0.  1.
         11   -1    0    0    0    0 -0.00000000000E+00 -0.00000000000E+00 -0.45593999997E+02  0.45594000000E+02  0.51100000000E-03 0. -1.
    9900012    2    1    2    0    0 -0.12819816058E+02 -0.13083766759E+02  0.39345809038E+02  0.47787247412E+02  0.19999892249E+02 0.  0.
         12    1    1    2    0    0  0.12819816058E+02  0.13083766759E+02 -0.39345809038E+02  0.43400752588E+02  0.00000000000E+00 0. -1.
         11    1    3    3    0    0  0.20779446206E+00 -0.43583089439E+01  0.13088282101E+02  0.13796418521E+02  0.51100000000E-03 0. -1.
        -11    1    3    3    0    0 -0.12629762898E+02 -0.12503606543E+02  0.22087216560E+02  0.28349536559E+02  0.51100000000E-03 0.  1.
         12    1    3    3    0    0 -0.39784762198E+00  0.37781487277E+01  0.41703103764E+01  0.56412923320E+01  0.00000000000E+00 0. -1.
</event>
<event>
 7    1  0.2682317E-010  0.4778728E+02  0.7816164E-02  0.1312668E+00
        -11   -1    0    0    0    0  0.00000000000E+00  0.00000000000E+00  0.45593999997E+02  0.45594000000E+02  0.51100000000E-03 0.  1.
         11   -1    0    0    0    0 -0.00000000000E+00 -0.00000000000E+00 -0.45593999997E+02  0.45594000000E+02  0.51100000000E-03 0. -1.
    9900012    2    1    2    0    0  0.42989067229E+02  0.59619047301E+01 -0.13509729978E+00  0.47787280415E+02  0.20000042722E+02 0.  0.
         12    1    1    2    0    0 -0.42989067229E+02 -0.59619047301E+01  0.13509729978E+00  0.43400719585E+02  0.00000000000E+00 0. -1.
         11    1    3    3    0    0  0.30357062592E+00  0.12670094655E+01 -0.19733484699E+01  0.23646506201E+01  0.51100000000E-03 0. -1.
        -11    1    3    3    0    0  0.65186210479E+01 -0.82388146827E+00 -0.49324835525E+01  0.82158745911E+01  0.51100000000E-03 0.  1.
        -12    1    3    3    0    0  0.36166875555E+02  0.55187767329E+01  0.67707347226E+01  0.37206755203E+02  0.00000000000E+00 0.  1.
</event>
<event>
 7    1  0.2682317E-010  0.4778727E+02  0.7816164E-02  0.1312668E+00
        -11   -1    0    0    0    0  0.00000000000E+00  0.00000000000E+00  0.45593999997E+02  0.45594000000E+02  0.51100000000E-03 0.  1.
         11   -1    0    0    0    0 -0.00000000000E+00 -0.00000000000E+00 -0.45593999997E+02  0.45594000000E+02  0.51100000000E-03 0. -1.
    9900012    2    1    2    0    0 -0.21952237222E+02 -0.22232435332E+02  0.30123770855E+02  0.47787268780E+02  0.19999989675E+02 0.  0.
         12    1    1    2    0    0  0.21952237222E+02  0.22232435332E+02 -0.30123770855E+02  0.43400731220E+02  0.00000000000E+00 0. -1.
         11    1    3    3    0    0 -0.12675959500E+02 -0.57994431487E+01  0.85137955917E+01  0.16333958667E+02  0.51100000000E-03 0. -1.
        -11    1    3    3    0    0 -0.76142008417E+01 -0.18606332358E+02  0.19372027189E+02  0.27918579762E+02  0.51100000000E-03 0.  1.
         12    1    3    3    0    0 -0.16620768805E+01  0.21733401742E+01  0.22379480749E+01  0.35347303511E+01  0.00000000000E+00 0. -1.
</event>
<event>
 7    1  0.2682317E-010  0.4778729E+02  0.7816164E-02  0.1312668E+00
        -11   -1    0    0    0    0  0.00000000000E+00  0.00000000000E+00  0.45593999997E+02  0.45594000000E+02  0.51100000000E-03 0.  1.
         11   -1    0    0    0    0 -0.00000000000E+00 -0.00000000000E+00 -0.45593999997E+02  0.45594000000E+02  0.51100000000E-03 0. -1.
    9900012    2    1    2    0    0  0.18886740007E+02  0.59677596113E+01  0.38617336513E+02  0.47787288229E+02  0.20000078351E+02 0.  0.
         12    1    1    2    0    0 -0.18886740007E+02 -0.59677596113E+01 -0.38617336513E+02  0.43400711771E+02  0.00000000000E+00 0. -1.
         11    1    3    3    0    0  0.18264467777E+01 -0.98546897201E+00  0.11901407736E+01  0.23923821285E+01  0.51100000000E-03 0. -1.
        -11    1    3    3    0    0  0.19710273846E+02  0.37558870292E+01  0.35584536964E+02  0.40851693400E+02  0.51100000000E-03 0.  1.
         12    1    3    3    0    0 -0.26499806163E+01  0.31973415540E+01  0.18426587753E+01  0.45432127006E+01  0.00000000000E+00 0. -1.
</event>
<event>
 7    1  0.2682317E-010  0.4778729E+02  0.7816164E-02  0.1312668E+00
        -11   -1    0    0    0    0  0.00000000000E+00  0.00000000000E+00  0.45593999997E+02  0.45594000000E+02  0.51100000000E-03 0. -1.
         11   -1    0    0    0    0 -0.00000000000E+00 -0.00000000000E+00 -0.45593999997E+02  0.45594000000E+02  0.51100000000E-03 0.  1.
    9900012    2    1    2    0    0 -0.37378995584E+02  0.18499826455E+02 -0.12007861992E+02  0.47787289875E+02  0.20000085856E+02 0.  0.
         12    1    1    2    0    0  0.37378995584E+02 -0.18499826455E+02  0.12007861992E+02  0.43400710125E+02  0.00000000000E+00 0. -1.
         11    1    3    3    0    0 -0.98800837209E+00  0.51767993125E+01  0.12150989628E+00  0.52716388894E+01  0.51100000000E-03 0. -1.
        -11    1    3    3    0    0 -0.92174169428E+01  0.37487384179E+01 -0.92074108003E+01  0.13556925490E+02  0.51100000000E-03 0.  1.
         12    1    3    3    0    0 -0.27173570269E+02  0.95742887243E+01 -0.29219610884E+01  0.28958725496E+02  0.00000000000E+00 0. -1.
</event>
<event>
 7    1  0.2682317E-010  0.4778727E+02  0.7816164E-02  0.1312668E+00
        -11   -1    0    0    0    0  0.00000000000E+00  0.00000000000E+00  0.45593999997E+02  0.45594000000E+02  0.51100000000E-03 0.  1.
         11   -1    0    0    0    0 -0.00000000000E+00 -0.00000000000E+00 -0.45593999997E+02  0.45594000000E+02  0.51100000000E-03 0. -1.
    9900012    2    1    2    0    0  0.19669352040E+02  0.12491101901E+02  0.36615736391E+02  0.47787272035E+02  0.20000004517E+02 0.  0.
         12    1    1    2    0    0 -0.19669352040E+02 -0.12491101901E+02 -0.36615736391E+02  0.43400727965E+02  0.00000000000E+00 0. -1.
         11    1    3    3    0    0 -0.99671416884E+00 -0.37722124340E+00 -0.59657041572E+00  0.12213236765E+01  0.51100000000E-03 0. -1.
        -11    1    3    3    0    0  0.34819914074E+01  0.95492653952E+01  0.17213031764E+02  0.19990027426E+02  0.51100000000E-03 0.  1.
         12    1    3    3    0    0  0.17184074802E+02  0.33190577492E+01  0.19999275044E+02  0.26575920932E+02  0.00000000000E+00 0. -1.
</event>
<event>
 7    1  0.2682317E-010  0.4778727E+02  0.7816164E-02  0.1312668E+00
        -11   -1    0    0    0    0  0.00000000000E+00  0.00000000000E+00  0.45593999997E+02  0.45594000000E+02  0.51100000000E-03 0.  1.
         11   -1    0    0    0    0 -0.00000000000E+00 -0.00000000000E+00 -0.45593999997E+02  0.45594000000E+02  0.51100000000E-03 0. -1.
    9900012    2    1    2    0    0  0.91595897978E+01 -0.38747066742E+02  0.17273962153E+02  0.47787273798E+02  0.20000012553E+02 0.  0.
         12    1    1    2    0    0 -0.91595897978E+01  0.38747066742E+02 -0.17273962153E+02  0.43400726202E+02  0.00000000000E+00 0. -1.
         11    1    3    3    0    0 -0.14894012297E+01 -0.16701156187E+02  0.19940314793E+01  0.16885588406E+02  0.51100000000E-03 0. -1.
        -11    1    3    3    0    0  0.52185285858E+01 -0.18514921144E+02  0.71854576473E+01  0.20534511132E+02  0.51100000000E-03 0.  1.
         12    1    3    3    0    0  0.54304624417E+01 -0.35309894116E+01  0.80944730268E+01  0.10367174260E+02  0.00000000000E+00 0. -1.
</event>
<event>
 7    1  0.2682317E-010  0.4778727E+02  0.7816164E-02  0.1312668E+00
        -11   -1    0    0    0    0  0.00000000000E+00  0.00000000000E+00  0.45593999997E+02  0.45594000000E+02  0.51100000000E-03 0.  1.
         11   -1    0    0    0    0 -0.00000000000E+00 -0.00000000000E+00 -0.45593999997E+02  0.45594000000E+02  0.51100000000E-03 0. -1.
    9900012    2    1    2    0    0  0.14082891517E+02  0.14205525399E+02  0.38516210719E+02  0.47787271049E+02  0.20000000019E+02 0.  0.
         12    1    1    2    0    0 -0.14082891517E+02 -0.14205525399E+02 -0.38516210719E+02  0.43400728951E+02  0.00000000000E+00 0. -1.
         11    1    3    3    0    0 -0.16814507799E+01  0.42445601171E+01  0.25153860518E+01  0.52125554734E+01  0.51100000000E-03 0. -1.
        -11    1    3    3    0    0  0.42260388444E+01  0.54895436818E+01  0.34259037078E+01  0.77286034071E+01  0.51100000000E-03 0.  1.
        -12    1    3    3    0    0  0.11538303453E+02  0.44714216000E+01  0.32574920960E+02  0.34846112168E+02  0.00000000000E+00 0.  1.
</event>
<event>
 7    1  0.2682317E-010  0.4778727E+02  0.7816164E-02  0.1312668E+00
        -11   -1    0    0    0    0  0.00000000000E+00  0.00000000000E+00  0.45593999997E+02  0.45594000000E+02  0.51100000000E-03 0.  1.
         11   -1    0    0    0    0 -0.00000000000E+00 -0.00000000000E+00 -0.45593999997E+02  0.45594000000E+02  0.51100000000E-03 0. -1.
    9900012    2    1    2    0    0 -0.70612982162E+01  0.70013228736E+01  0.42246215894E+02  0.47787271759E+02  0.20000003257E+02 0.  0.
         12    1    1    2    0    0  0.70612982162E+01 -0.70013228736E+01 -0.42246215894E+02  0.43400728241E+02  0.00000000000E+00 0. -1.
         11    1    3    3    0    0  0.84231302828E+00  0.22907228966E+00  0.23463956422E+00  0.90389232640E+00  0.51100000000E-03 0. -1.
        -11    1    3    3    0    0 -0.37229317369E+01  0.11378545989E+02  0.37019810080E+02  0.38907555412E+02  0.51100000000E-03 0.  1.
        -12    1    3    3    0    0 -0.41806795076E+01 -0.46062954052E+01  0.49917662501E+01  0.79758240202E+01  0.00000000000E+00 0.  1.
</event>
<event>
 7    1  0.2682317E-010  0.4778727E+02  0.7816164E-02  0.1312668E+00
        -11   -1    0    0    0    0  0.00000000000E+00  0.00000000000E+00  0.45593999997E+02  0.45594000000E+02  0.51100000000E-03 0.  1.
         11   -1    0    0    0    0 -0.00000000000E+00 -0.00000000000E+00 -0.45593999997E+02  0.45594000000E+02  0.51100000000E-03 0. -1.
    9900012    2    1    2    0    0  0.23348857936E+02  0.80458064443E+01  0.35689201324E+02  0.47787271211E+02  0.20000000761E+02 0.  0.
         12    1    1    2    0    0 -0.23348857936E+02 -0.80458064443E+01 -0.35689201324E+02  0.43400728789E+02  0.00000000000E+00 0. -1.
         11    1    3    3    0    0 -0.24069396807E+01 -0.74459762563E+00  0.61797288521E+01  0.66735922259E+01  0.51100000000E-03 0. -1.
        -11    1    3    3    0    0  0.31212305900E+01  0.79953924086E+00  0.89378814742E+01  0.95008983207E+01  0.51100000000E-03 0.  1.
        -12    1    3    3    0    0  0.22634567026E+02  0.79908648291E+01  0.20571590998E+02  0.31612780665E+02  0.00000000000E+00 0.  1.
</event>
<event>
 7    1  0.2682317E-010  0.4778727E+02  0.7816164E-02  0.1312668E+00
        -11   -1    0    0    0    0  0.00000000000E+00  0.00000000000E+00  0.45593999997E+02  0.45594000000E+02  0.51100000000E-03 0.  1.
         11   -1    0    0    0    0 -0.00000000000E+00 -0.00000000000E+00 -0.45593999997E+02  0.45594000000E+02  0.51100000000E-03 0. -1.
    9900012    2    1    2    0    0 -0.34738788401E+02 -0.57006807684E+01  0.25383892408E+02  0.47787272189E+02  0.20000005217E+02 0.  0.
         12    1    1    2    0    0  0.34738788401E+02  0.57006807684E+01 -0.25383892408E+02  0.43400727811E+02  0.00000000000E+00 0. -1.
         11    1    3    3    0    0 -0.16600859372E+02  0.72193424913E+01  0.11801292386E+02  0.21609672375E+02  0.51100000000E-03 0. -1.
        -11    1    3    3    0    0 -0.42537140690E+01 -0.34591319769E+01  0.44060305145E+01  0.70336891153E+01  0.51100000000E-03 0.  1.
         12    1    3    3    0    0 -0.13884214959E+02 -0.94608912829E+01  0.91765695076E+01  0.19143910699E+02  0.00000000000E+00 0. -1.
</event>
<event>
 7    1  0.2682317E-010  0.4778727E+02  0.7816164E-02  0.1312668E+00
        -11   -1    0    0    0    0  0.00000000000E+00  0.00000000000E+00  0.45593999997E+02  0.45594000000E+02  0.51100000000E-03 0.  1.
         11   -1    0    0    0    0 -0.00000000000E+00 -0.00000000000E+00 -0.45593999997E+02  0.45594000000E+02  0.51100000000E-03 0. -1.
    9900012    2    1    2    0    0  0.41500687431E+02 -0.11645397109E+01 -0.12647534584E+02  0.47787270270E+02  0.19999996471E+02 0.  0.
         12    1    1    2    0    0 -0.41500687431E+02  0.11645397109E+01  0.12647534584E+02  0.43400729730E+02  0.00000000000E+00 0. -1.
         11    1    3    3    0    0  0.65455410450E+01  0.13566469778E+01 -0.66369886893E+01  0.94198841669E+01  0.51100000000E-03 0. -1.
        -11    1    3    3    0    0  0.31307586916E+02 -0.42788211180E+01 -0.95280736104E+01  0.33003901219E+02  0.51100000000E-03 0.  1.
         12    1    3    3    0    0  0.36475594705E+01  0.17576344293E+01  0.35175277161E+01  0.53634848850E+01  0.00000000000E+00 0. -1.
</event>
<event>
 7    1  0.2682317E-010  0.4778727E+02  0.7816164E-02  0.1312668E+00
        -11   -1    0    0    0    0  0.00000000000E+00  0.00000000000E+00  0.45593999997E+02  0.45594000000E+02  0.51100000000E-03 0. -1.
         11   -1    0    0    0    0 -0.00000000000E+00 -0.00000000000E+00 -0.45593999997E+02  0.45594000000E+02  0.51100000000E-03 0.  1.
    9900012    2    1    2    0    0 -0.71039462398E+01  0.13645178998E+02 -0.40582837014E+02  0.47787267032E+02  0.19999981706E+02 0.  0.
         12    1    1    2    0    0  0.71039462398E+01 -0.13645178998E+02  0.40582837014E+02  0.43400732968E+02  0.00000000000E+00 0. -1.
         11    1    3    3    0    0 -0.66584608865E+01  0.11445715591E+01 -0.21004124154E+02  0.22063961049E+02  0.51100000000E-03 0. -1.
        -11    1    3    3    0    0 -0.50563956205E+01  0.74301814486E+01 -0.14982290701E+02  0.17471226859E+02  0.51100000000E-03 0.  1.
         12    1    3    3    0    0  0.46109102671E+01  0.50704259908E+01 -0.45964221588E+01  0.82520791247E+01  0.00000000000E+00 0. -1.
</event>
<event>
 7    1  0.2682317E-010  0.4778728E+02  0.7816164E-02  0.1312668E+00
        -11   -1    0    0    0    0  0.00000000000E+00  0.00000000000E+00  0.45593999997E+02  0.45594000000E+02  0.51100000000E-03 0.  1.
         11   -1    0    0    0    0 -0.00000000000E+00 -0.00000000000E+00 -0.45593999997E+02  0.45594000000E+02  0.51100000000E-03 0. -1.
    9900012    2    1    2    0    0  0.56698977486E+01  0.42998040106E+02 -0.16257448637E+01  0.47787282957E+02  0.20000054314E+02 0.  0.
         12    1    1    2    0    0 -0.56698977486E+01 -0.42998040106E+02  0.16257448637E+01  0.43400717043E+02  0.00000000000E+00 0. -1.
         11    1    3    3    0    0  0.16838266556E+01  0.19131385776E+02 -0.24535036598E+01  0.19361427489E+02  0.51100000000E-03 0.  1.
        -11    1    3    3    0    0  0.31567775903E+01  0.51261619286E+00  0.36893393920E+01  0.48825449846E+01  0.51100000000E-03 0. -1.
         12    1    3    3    0    0  0.82929350274E+00  0.23354038137E+02 -0.28615805959E+01  0.23543310484E+02  0.00000000000E+00 0. -1.
</event>
<event>
 7    1  0.2682317E-010  0.4778727E+02  0.7816164E-02  0.1312668E+00
        -11   -1    0    0    0    0  0.00000000000E+00  0.00000000000E+00  0.45593999997E+02  0.45594000000E+02  0.51100000000E-03 0.  1.
         11   -1    0    0    0    0 -0.00000000000E+00 -0.00000000000E+00 -0.45593999997E+02  0.45594000000E+02  0.51100000000E-03 0. -1.
    9900012    2    1    2    0    0  0.73520946606E+01 -0.37388473202E+02  0.20776713870E+02  0.47787273468E+02  0.20000011049E+02 0.  0.
         12    1    1    2    0    0 -0.73520946606E+01  0.37388473202E+02 -0.20776713870E+02  0.43400726532E+02  0.00000000000E+00 0. -1.
         11    1    3    3    0    0 -0.13282554164E+01 -0.43724878596E+01  0.14645625046E+01  0.47987348462E+01  0.51100000000E-03 0. -1.
        -11    1    3    3    0    0  0.10524319445E+02 -0.22388531741E+02  0.20511122899E+02  0.32135864950E+02  0.51100000000E-03 0.  1.
        -12    1    3    3    0    0 -0.18439693675E+01 -0.10627453602E+02 -0.11989715328E+01  0.10852673671E+02  0.00000000000E+00 0.  1.
</event>
<event>
 7    1  0.2682317E-010  0.4778727E+02  0.7816164E-02  0.1312668E+00
        -11   -1    0    0    0    0  0.00000000000E+00  0.00000000000E+00  0.45593999997E+02  0.45594000000E+02  0.51100000000E-03 0.  1.
         11   -1    0    0    0    0 -0.00000000000E+00 -0.00000000000E+00 -0.45593999997E+02  0.45594000000E+02  0.51100000000E-03 0. -1.
    9900012    2    1    2    0    0 -0.18990010205E+02 -0.10094970759E+01  0.39012610698E+02  0.47787269989E+02  0.19999995190E+02 0.  0.
         12    1    1    2    0    0  0.18990010205E+02  0.10094970759E+01 -0.39012610698E+02  0.43400730011E+02  0.00000000000E+00 0. -1.
         11    1    3    3    0    0 -0.61770310010E+01 -0.29641387921E+01  0.76332765980E+01  0.10257131307E+02  0.51100000000E-03 0. -1.
        -11    1    3    3    0    0 -0.12419705762E+02  0.23196203968E+01  0.33257651333E+02  0.35576693248E+02  0.51100000000E-03 0.  1.
         12    1    3    3    0    0 -0.39327344224E+00 -0.36497868060E+00 -0.18783172328E+01  0.19534454343E+01  0.00000000000E+00 0. -1.
</event>
<event>
 7    1  0.2682317E-010  0.4778726E+02  0.7816164E-02  0.1312668E+00
        -11   -1    0    0    0    0  0.00000000000E+00  0.00000000000E+00  0.45593999997E+02  0.45594000000E+02  0.51100000000E-03 0.  1.
         11   -1    0    0    0    0 -0.00000000000E+00 -0.00000000000E+00 -0.45593999997E+02  0.45594000000E+02  0.51100000000E-03 0. -1.
    9900012    2    1    2    0    0 -0.13402270517E+02  0.14841720528E+02  0.38519170215E+02  0.47787262710E+02  0.19999961999E+02 0.  0.
         12    1    1    2    0    0  0.13402270517E+02 -0.14841720528E+02 -0.38519170215E+02  0.43400737290E+02  0.00000000000E+00 0. -1.
         11    1    3    3    0    0  0.64048517127E-01  0.64105369382E+01  0.53480001126E+00  0.64331250074E+01  0.51100000000E-03 0. -1.
        -11    1    3    3    0    0 -0.32376966784E+01  0.32513131047E+01  0.75898208093E+01  0.88689963843E+01  0.51100000000E-03 0.  1.
         12    1    3    3    0    0 -0.10228622356E+02  0.51798704852E+01  0.30394549395E+02  0.32485141318E+02  0.00000000000E+00 0. -1.
</event>
<event>
 7    1  0.2682317E-010  0.4778727E+02  0.7816164E-02  0.1312668E+00
        -11   -1    0    0    0    0  0.00000000000E+00  0.00000000000E+00  0.45593999997E+02  0.45594000000E+02  0.51100000000E-03 0.  1.
         11   -1    0    0    0    0 -0.00000000000E+00 -0.00000000000E+00 -0.45593999997E+02  0.45594000000E+02  0.51100000000E-03 0. -1.
    9900012    2    1    2    0    0  0.32770656220E+02  0.11881271822E+02  0.25856197068E+02  0.47787268946E+02  0.19999990432E+02 0.  0.
         12    1    1    2    0    0 -0.32770656220E+02 -0.11881271822E+02 -0.25856197068E+02  0.43400731054E+02  0.00000000000E+00 0. -1.
         11    1    3    3    0    0  0.50738516444E+01  0.62676306031E+01  0.23374182698E+01  0.83958732908E+01  0.51100000000E-03 0. -1.
        -11    1    3    3    0    0  0.49093892351E+01  0.50096601205E+01  0.11881219531E+02  0.13797179965E+02  0.51100000000E-03 0.  1.
        -12    1    3    3    0    0  0.22787415341E+02  0.60398109857E+00  0.11637559267E+02  0.25594215690E+02  0.00000000000E+00 0.  1.
</event>
<event>
 7    1  0.2682317E-010  0.4778727E+02  0.7816164E-02  0.1312668E+00
        -11   -1    0    0    0    0  0.00000000000E+00  0.00000000000E+00  0.45593999997E+02  0.45594000000E+02  0.51100000000E-03 0. -1.
         11   -1    0    0    0    0 -0.00000000000E+00 -0.00000000000E+00 -0.45593999997E+02  0.45594000000E+02  0.51100000000E-03 0.  1.
    9900012    2    1    2    0    0  0.20794088715E+02  0.36632515558E+02 -0.10454079709E+02  0.47787273000E+02  0.20000008915E+02 0.  0.
         12    1    1    2    0    0 -0.20794088715E+02 -0.36632515558E+02  0.10454079709E+02  0.43400727000E+02  0.00000000000E+00 0. -1.
         11    1    3    3    0    0  0.16442282787E+02  0.15286247705E+02 -0.58330627658E+01  0.23195746456E+02  0.51100000000E-03 0. -1.
        -11    1    3    3    0    0  0.75413741378E+01  0.14966454235E+02 -0.48768366415E+01  0.17454243385E+02  0.51100000000E-03 0.  1.
         12    1    3    3    0    0 -0.31895682103E+01  0.63798136182E+01  0.25581969865E+00  0.71372831588E+01  0.00000000000E+00 0. -1.
</event>
<event>
 7    1  0.2682317E-010  0.4778727E+02  0.7816164E-02  0.1312668E+00
        -11   -1    0    0    0    0  0.00000000000E+00  0.00000000000E+00  0.45593999997E+02  0.45594000000E+02  0.51100000000E-03 0.  1.
         11   -1    0    0    0    0 -0.00000000000E+00 -0.00000000000E+00 -0.45593999997E+02  0.45594000000E+02  0.51100000000E-03 0. -1.
    9900012    2    1    2    0    0  0.30804828434E+01  0.21206845036E+02  0.37741274458E+02  0.47787269031E+02  0.19999990822E+02 0.  0.
         12    1    1    2    0    0 -0.30804828434E+01 -0.21206845036E+02 -0.37741274458E+02  0.43400730969E+02  0.00000000000E+00 0. -1.
         11    1    3    3    0    0 -0.42626702840E-02  0.71702027144E+01  0.17801586168E+01  0.73878812997E+01  0.51100000000E-03 0. -1.
        -11    1    3    3    0    0 -0.38395032547E+01  0.24687178364E+01  0.59513515844E+01  0.75003292555E+01  0.51100000000E-03 0.  1.
         12    1    3    3    0    0  0.69242487684E+01  0.11567924485E+02  0.30009764256E+02  0.32899058476E+02  0.00000000000E+00 0. -1.
</event>
<event>
 7    1  0.2682317E-010  0.4778728E+02  0.7816164E-02  0.1312668E+00
        -11   -1    0    0    0    0  0.00000000000E+00  0.00000000000E+00  0.45593999997E+02  0.45594000000E+02  0.51100000000E-03 0.  1.
         11   -1    0    0    0    0 -0.00000000000E+00 -0.00000000000E+00 -0.45593999997E+02  0.45594000000E+02  0.51100000000E-03 0. -1.
    9900012    2    1    2    0    0 -0.14132282130E+02 -0.28208920338E+02  0.29801985484E+02  0.47787275079E+02  0.20000018397E+02 0.  0.
         12    1    1    2    0    0  0.14132282130E+02  0.28208920338E+02 -0.29801985484E+02  0.43400724921E+02  0.00000000000E+00 0. -1.
         11    1    3    3    0    0  0.35802401922E+01 -0.62454928869E+01  0.15294072620E+01  0.73595779817E+01  0.51100000000E-03 0. -1.
        -11    1    3    3    0    0 -0.59630837100E+00  0.23881455105E+00  0.16341711388E+01  0.17558848582E+01  0.51100000000E-03 0.  1.
        -12    1    3    3    0    0 -0.17116213951E+02 -0.22202242002E+02  0.26638407084E+02  0.38671812240E+02  0.00000000000E+00 0.  1.
</event>
<event>
 7    1  0.2682317E-010  0.4778727E+02  0.7816164E-02  0.1312668E+00
        -11   -1    0    0    0    0  0.00000000000E+00  0.00000000000E+00  0.45593999997E+02  0.45594000000E+02  0.51100000000E-03 0.  1.
         11   -1    0    0    0    0 -0.00000000000E+00 -0.00000000000E+00 -0.45593999997E+02  0.45594000000E+02  0.51100000000E-03 0. -1.
    9900012    2    1    2    0    0  0.22044756579E+02  0.35509960749E+02 -0.11691652963E+02  0.47787270121E+02  0.19999995791E+02 0.  0.
         12    1    1    2    0    0 -0.22044756579E+02 -0.35509960749E+02  0.11691652963E+02  0.43400729879E+02  0.00000000000E+00 0. -1.
         11    1    3    3    0    0  0.15298187830E+01  0.10507057488E+02  0.11869556630E+01  0.10683981775E+02  0.51100000000E-03 0. -1.
        -11    1    3    3    0    0  0.48379372701E+01  0.15607072558E+02 -0.42024168964E+01  0.16871474710E+02  0.51100000000E-03 0.  1.
        -12    1    3    3    0    0  0.15677000526E+02  0.93958307027E+01 -0.86761917294E+01  0.20231813636E+02  0.00000000000E+00 0.  1.
</event>
<event>
 7    1  0.2682317E-010  0.4778727E+02  0.7816164E-02  0.1312668E+00
        -11   -1    0    0    0    0  0.00000000000E+00  0.00000000000E+00  0.45593999997E+02  0.45594000000E+02  0.51100000000E-03 0.  1.
         11   -1    0    0    0    0 -0.00000000000E+00 -0.00000000000E+00 -0.45593999997E+02  0.45594000000E+02  0.51100000000E-03 0. -1.
    9900012    2    1    2    0    0  0.75337473456E+01  0.39502698530E+02  0.16321848617E+02  0.47787270945E+02  0.19999999548E+02 0.  0.
         12    1    1    2    0    0 -0.75337473456E+01 -0.39502698530E+02 -0.16321848617E+02  0.43400729055E+02  0.00000000000E+00 0. -1.
         11    1    3    3    0    0 -0.28056835692E+01  0.10453669564E+02  0.10628997195E+02  0.15169925816E+02  0.51100000000E-03 0. -1.
        -11    1    3    3    0    0  0.76327126226E+00  0.12604762239E+02  0.49808537453E+01  0.13574664579E+02  0.51100000000E-03 0.  1.
        -12    1    3    3    0    0  0.95761596525E+01  0.16444266726E+02  0.71199767703E+00  0.19042680550E+02  0.00000000000E+00 0.  1.
</event>
<event>
 7    1  0.2682317E-010  0.4778728E+02  0.7816164E-02  0.1312668E+00
        -11   -1    0    0    0    0  0.00000000000E+00  0.00000000000E+00  0.45593999997E+02  0.45594000000E+02  0.51100000000E-03 0. -1.
         11   -1    0    0    0    0 -0.00000000000E+00 -0.00000000000E+00 -0.45593999997E+02  0.45594000000E+02  0.51100000000E-03 0.  1.
    9900012    2    1    2    0    0 -0.38975949263E+02  0.18754761410E+02 -0.35717190531E+01  0.47787275657E+02  0.20000021029E+02 0.  0.
         12    1    1    2    0    0  0.38975949263E+02 -0.18754761410E+02  0.35717190531E+01  0.43400724343E+02  0.00000000000E+00 0. -1.
         11    1    3    3    0    0 -0.79392008527E+01 -0.13530218006E+01  0.15608795733E+01  0.82035311589E+01  0.51100000000E-03 0. -1.
        -11    1    3    3    0    0 -0.26769428750E+02  0.10595138684E+02 -0.44907936403E+01  0.29138059426E+02  0.51100000000E-03 0.  1.
         12    1    3    3    0    0 -0.42673196608E+01  0.95126445264E+01 -0.64180498618E+00  0.10445685072E+02  0.00000000000E+00 0. -1.
</event>
<event>
 7    1  0.2682317E-010  0.4778727E+02  0.7816164E-02  0.1312668E+00
        -11   -1    0    0    0    0  0.00000000000E+00  0.00000000000E+00  0.45593999997E+02  0.45594000000E+02  0.51100000000E-03 0. -1.
         11   -1    0    0    0    0 -0.00000000000E+00 -0.00000000000E+00 -0.45593999997E+02  0.45594000000E+02  0.51100000000E-03 0.  1.
    9900012    2    1    2    0    0  0.13785334478E+02 -0.38111270534E+02  0.15528001102E+02  0.47787271820E+02  0.20000003535E+02 0.  0.
         12    1    1    2    0    0 -0.13785334478E+02  0.38111270534E+02 -0.15528001102E+02  0.43400728180E+02  0.00000000000E+00 0. -1.
         11    1    3    3    0    0  0.12068818842E+02 -0.79505549563E+01  0.81960593249E+01  0.16614544865E+02  0.51100000000E-03 0.  1.
        -11    1    3    3    0    0 -0.52469152522E+00 -0.30338690916E+01  0.73156567661E+00  0.31646250113E+01  0.51100000000E-03 0. -1.
        -12    1    3    3    0    0  0.22412071611E+01 -0.27126846486E+02  0.66003761007E+01  0.28008101943E+02  0.00000000000E+00 0.  1.
</event>
<event>
 7    1  0.2682317E-010  0.4778727E+02  0.7816164E-02  0.1312668E+00
        -11   -1    0    0    0    0  0.00000000000E+00  0.00000000000E+00  0.45593999997E+02  0.45594000000E+02  0.51100000000E-03 0. -1.
         11   -1    0    0    0    0 -0.00000000000E+00 -0.00000000000E+00 -0.45593999997E+02  0.45594000000E+02  0.51100000000E-03 0.  1.
    9900012    2    1    2    0    0  0.84493240504E+01 -0.99016066728E+01 -0.41402781038E+02  0.47787272249E+02  0.20000005492E+02 0.  0.
         12    1    1    2    0    0 -0.84493240504E+01  0.99016066728E+01  0.41402781038E+02  0.43400727751E+02  0.00000000000E+00 0. -1.
         11    1    3    3    0    0  0.22963699406E+01 -0.33741650410E+01 -0.13760985048E+01  0.43071976950E+01  0.51100000000E-03 0. -1.
        -11    1    3    3    0    0 -0.44674139723E+01 -0.54685948544E+00 -0.75266996845E+01  0.87697235589E+01  0.51100000000E-03 0.  1.
        -12    1    3    3    0    0  0.10620368082E+02 -0.59805821464E+01 -0.32499982849E+02  0.34710350995E+02  0.00000000000E+00 0.  1.
</event>
<event>
 7    1  0.2682317E-010  0.4778728E+02  0.7816164E-02  0.1312668E+00
        -11   -1    0    0    0    0  0.00000000000E+00  0.00000000000E+00  0.45593999997E+02  0.45594000000E+02  0.51100000000E-03 0.  1.
         11   -1    0    0    0    0 -0.00000000000E+00 -0.00000000000E+00 -0.45593999997E+02  0.45594000000E+02  0.51100000000E-03 0. -1.
    9900012    2    1    2    0    0 -0.14493271454E+01  0.42905247917E+02 -0.63766654549E+01  0.47787277537E+02  0.20000029603E+02 0.  0.
         12    1    1    2    0    0  0.14493271454E+01 -0.42905247917E+02  0.63766654549E+01  0.43400722463E+02  0.00000000000E+00 0. -1.
         11    1    3    3    0    0 -0.11259157282E+01 -0.15425644947E+01  0.41653334002E-01  0.19102164036E+01  0.51100000000E-03 0. -1.
        -11    1    3    3    0    0  0.30427578674E+01  0.52398012380E+01 -0.12511777880E+01  0.61870298667E+01  0.51100000000E-03 0.  1.
        -12    1    3    3    0    0 -0.33661692847E+01  0.39208011173E+02 -0.51671410009E+01  0.39690031267E+02  0.00000000000E+00 0.  1.
</event>
<event>
 7    1  0.2682317E-010  0.4778726E+02  0.7816164E-02  0.1312668E+00
        -11   -1    0    0    0    0  0.00000000000E+00  0.00000000000E+00  0.45593999997E+02  0.45594000000E+02  0.51100000000E-03 0. -1.
         11   -1    0    0    0    0 -0.00000000000E+00 -0.00000000000E+00 -0.45593999997E+02  0.45594000000E+02  0.51100000000E-03 0.  1.
    9900012    2    1    2    0    0 -0.43181120148E+02 -0.22675324978E+01 -0.37246598381E+01  0.47787263465E+02  0.19999965443E+02 0.  0.
         12    1    1    2    0    0  0.43181120148E+02  0.22675324978E+01  0.37246598381E+01  0.43400736535E+02  0.00000000000E+00 0. -1.
         11    1    3    3    0    0 -0.95734405788E+01 -0.10792714204E+01  0.55566683526E+01  0.11121697476E+02  0.51100000000E-03 0. -1.
        -11    1    3    3    0    0 -0.60014633819E+01 -0.47267041419E+01 -0.20138675010E+01  0.79003137496E+01  0.51100000000E-03 0.  1.
         12    1    3    3    0    0 -0.27606216187E+02  0.35384430645E+01 -0.72674606897E+01  0.28765252239E+02  0.00000000000E+00 0. -1.
</event>
<event>
 7    1  0.2682317E-010  0.4778727E+02  0.7816164E-02  0.1312668E+00
        -11   -1    0    0    0    0  0.00000000000E+00  0.00000000000E+00  0.45593999997E+02  0.45594000000E+02  0.51100000000E-03 0. -1.
         11   -1    0    0    0    0 -0.00000000000E+00 -0.00000000000E+00 -0.45593999997E+02  0.45594000000E+02  0.51100000000E-03 0.  1.
    9900012    2    1    2    0    0 -0.25303885813E+02  0.72968712526E+01 -0.34497714840E+02  0.47787270784E+02  0.19999998812E+02 0.  0.
         12    1    1    2    0    0  0.25303885813E+02 -0.72968712526E+01  0.34497714840E+02  0.43400729216E+02  0.00000000000E+00 0. -1.
         11    1    3    3    0    0 -0.14027053334E+01  0.14429875354E+00 -0.65983113782E+00  0.15568499523E+01  0.51100000000E-03 0. -1.
        -11    1    3    3    0    0 -0.18027129760E+02 -0.42438762364E+01 -0.22244530247E+02  0.28944896252E+02  0.51100000000E-03 0.  1.
         12    1    3    3    0    0 -0.58740507198E+01  0.11396448736E+02 -0.11593353455E+02  0.17285524579E+02  0.00000000000E+00 0. -1.
</event>
<event>
 7    1  0.2682317E-010  0.4778727E+02  0.7816164E-02  0.1312668E+00
        -11   -1    0    0    0    0  0.00000000000E+00  0.00000000000E+00  0.45593999997E+02  0.45594000000E+02  0.51100000000E-03 0. -1.
         11   -1    0    0    0    0 -0.00000000000E+00 -0.00000000000E+00 -0.45593999997E+02  0.45594000000E+02  0.51100000000E-03 0.  1.
    9900012    2    1    2    0    0  0.37860495723E+02 -0.20851630272E+02  0.39262380073E+01  0.47787274588E+02  0.20000016158E+02 0.  0.
         12    1    1    2    0    0 -0.37860495723E+02  0.20851630272E+02 -0.39262380073E+01  0.43400725412E+02  0.00000000000E+00 0. -1.
         11    1    3    3    0    0  0.78670018010E+01 -0.77989298395E+01  0.30162307899E+01  0.11480882911E+02  0.51100000000E-03 0. -1.
        -11    1    3    3    0    0  0.14214098858E+02 -0.11374798820E+02  0.67229720284E+01  0.19406828893E+02  0.51100000000E-03 0.  1.
        -12    1    3    3    0    0  0.15779395063E+02 -0.16779016129E+01 -0.58129648111E+01  0.16899562784E+02  0.00000000000E+00 0.  1.
</event>
<event>
 7    1  0.2682317E-010  0.4778729E+02  0.7816164E-02  0.1312668E+00
        -11   -1    0    0    0    0  0.00000000000E+00  0.00000000000E+00  0.45593999997E+02  0.45594000000E+02  0.51100000000E-03 0. -1.
         11   -1    0    0    0    0 -0.00000000000E+00 -0.00000000000E+00 -0.45593999997E+02  0.45594000000E+02  0.51100000000E-03 0.  1.
    9900012    2    1    2    0    0  0.12398194902E+02  0.10640740476E+02 -0.40207974349E+02  0.47787288070E+02  0.20000077628E+02 0.  0.
         12    1    1    2    0    0 -0.12398194902E+02 -0.10640740476E+02  0.40207974349E+02  0.43400711930E+02  0.00000000000E+00 0. -1.
         11    1    3    3    0    0  0.10466160016E+02  0.24073711792E+01 -0.15988424749E+02  0.19260469041E+02  0.51100000000E-03 0. -1.
        -11    1    3    3    0    0  0.56145866298E+01  0.93614309223E+01 -0.15146981056E+02  0.18670592045E+02  0.51100000000E-03 0.  1.
         12    1    3    3    0    0 -0.36825517432E+01 -0.11280616252E+01 -0.90725685445E+01  0.98562269843E+01  0.00000000000E+00 0. -1.
</event>
<event>
 7    1  0.2682317E-010  0.4778727E+02  0.7816164E-02  0.1312668E+00
        -11   -1    0    0    0    0  0.00000000000E+00  0.00000000000E+00  0.45593999997E+02  0.45594000000E+02  0.51100000000E-03 0.  1.
         11   -1    0    0    0    0 -0.00000000000E+00 -0.00000000000E+00 -0.45593999997E+02  0.45594000000E+02  0.51100000000E-03 0. -1.
    9900012    2    1    2    0    0 -0.17500669207E+02  0.36312697088E+02  0.16085326364E+02  0.47787272855E+02  0.20000008255E+02 0.  0.
         12    1    1    2    0    0  0.17500669207E+02 -0.36312697088E+02 -0.16085326364E+02  0.43400727145E+02  0.00000000000E+00 0. -1.
         11    1    3    3    0    0 -0.27993441631E+01  0.97476460583E+01  0.64551920889E+01  0.12021748483E+02  0.51100000000E-03 0. -1.
        -11    1    3    3    0    0 -0.14719038955E+02  0.99589257351E+01  0.60909710007E+01  0.18786437596E+02  0.51100000000E-03 0.  1.
        -12    1    3    3    0    0  0.17713910658E-01  0.16606125294E+02  0.35391632742E+01  0.16979086776E+02  0.00000000000E+00 0.  1.
</event>
<event>
 7    1  0.2682317E-010  0.4778725E+02  0.7816164E-02  0.1312668E+00
        -11   -1    0    0    0    0  0.00000000000E+00  0.00000000000E+00  0.45593999997E+02  0.45594000000E+02  0.51100000000E-03 0. -1.
         11   -1    0    0    0    0 -0.00000000000E+00 -0.00000000000E+00 -0.45593999997E+02  0.45594000000E+02  0.51100000000E-03 0.  1.
    9900012    2    1    2    0    0  0.40121064354E+02  0.16026253044E+02  0.41333711816E+01  0.47787247140E+02  0.19999891009E+02 0.  0.
         12    1    1    2    0    0 -0.40121064354E+02 -0.16026253044E+02 -0.41333711816E+01  0.43400752860E+02  0.00000000000E+00 0. -1.
         11    1    3    3    0    0  0.19342448606E+02 -0.17733803268E+01 -0.95341726491E+00  0.19446958647E+02  0.51100000000E-03 0. -1.
        -11    1    3    3    0    0  0.56891579682E+00  0.10213014685E+01  0.13873824952E+01  0.18142635758E+01  0.51100000000E-03 0.  1.
        -12    1    3    3    0    0  0.20209699951E+02  0.16778331902E+02  0.36994059513E+01  0.26526024917E+02  0.00000000000E+00 0.  1.
</event>
<event>
 7    1  0.2682317E-010  0.4778727E+02  0.7816164E-02  0.1312668E+00
        -11   -1    0    0    0    0  0.00000000000E+00  0.00000000000E+00  0.45593999997E+02  0.45594000000E+02  0.51100000000E-03 0.  1.
         11   -1    0    0    0    0 -0.00000000000E+00 -0.00000000000E+00 -0.45593999997E+02  0.45594000000E+02  0.51100000000E-03 0. -1.
    9900012    2    1    2    0    0 -0.13921030037E+02  0.74578199120E+01  0.40425348211E+02  0.47787274971E+02  0.20000017901E+02 0.  0.
         12    1    1    2    0    0  0.13921030037E+02 -0.74578199120E+01 -0.40425348211E+02  0.43400725029E+02  0.00000000000E+00 0. -1.
         11    1    3    3    0    0 -0.19437779376E+01  0.34073013200E+01 -0.55980293044E-01  0.39231503935E+01  0.51100000000E-03 0. -1.
        -11    1    3    3    0    0 -0.33018701378E+01  0.21080747981E+01  0.20568165395E+01  0.44245700694E+01  0.51100000000E-03 0.  1.
         12    1    3    3    0    0 -0.86753819618E+01  0.19424437940E+01  0.38424511964E+02  0.39439554508E+02  0.00000000000E+00 0. -1.
</event>
<event>
 7    1  0.2682317E-010  0.4778726E+02  0.7816164E-02  0.1312668E+00
        -11   -1    0    0    0    0  0.00000000000E+00  0.00000000000E+00  0.45593999997E+02  0.45594000000E+02  0.51100000000E-03 0.  1.
         11   -1    0    0    0    0 -0.00000000000E+00 -0.00000000000E+00 -0.45593999997E+02  0.45594000000E+02  0.51100000000E-03 0. -1.
    9900012    2    1    2    0    0  0.47606926317E+01  0.43012850994E+02 -0.32946196268E+01  0.47787261949E+02  0.19999958528E+02 0.  0.
         12    1    1    2    0    0 -0.47606926317E+01 -0.43012850994E+02  0.32946196268E+01  0.43400738051E+02  0.00000000000E+00 0. -1.
         11    1    3    3    0    0 -0.52353595398E+01  0.18793080031E+02  0.37470648576E+01  0.19865279808E+02  0.51100000000E-03 0. -1.
        -11    1    3    3    0    0  0.34836935798E+01  0.11665922506E+02 -0.11777232241E+00  0.12175538569E+02  0.51100000000E-03 0.  1.
         12    1    3    3    0    0  0.65123585917E+01  0.12553848457E+02 -0.69239121620E+01  0.15746443571E+02  0.00000000000E+00 0. -1.
</event>
<event>
 7    1  0.2682317E-010  0.4778727E+02  0.7816164E-02  0.1312668E+00
        -11   -1    0    0    0    0  0.00000000000E+00  0.00000000000E+00  0.45593999997E+02  0.45594000000E+02  0.51100000000E-03 0.  1.
         11   -1    0    0    0    0 -0.00000000000E+00 -0.00000000000E+00 -0.45593999997E+02  0.45594000000E+02  0.51100000000E-03 0. -1.
    9900012    2    1    2    0    0 -0.23430076477E+02  0.36307189717E+02  0.40549915258E+01  0.47787268841E+02  0.19999989952E+02 0.  0.
         12    1    1    2    0    0  0.23430076477E+02 -0.36307189717E+02 -0.40549915258E+01  0.43400731159E+02  0.00000000000E+00 0. -1.
         11    1    3    3    0    0 -0.52630499160E+01 -0.97073787149E+00 -0.60180937923E+00  0.53855548668E+01  0.51100000000E-03 0. -1.
        -11    1    3    3    0    0 -0.45853289246E+01  0.40276138470E+01  0.18393214718E+01  0.63741680543E+01  0.51100000000E-03 0.  1.
        -12    1    3    3    0    0 -0.13581697637E+02  0.33250313742E+02  0.28174794333E+01  0.36027545919E+02  0.00000000000E+00 0.  1.
</event>
<event>
 7    1  0.2682317E-010  0.4778731E+02  0.7816164E-02  0.1312668E+00
        -11   -1    0    0    0    0  0.00000000000E+00  0.00000000000E+00  0.45593999997E+02  0.45594000000E+02  0.51100000000E-03 0.  1.
         11   -1    0    0    0    0 -0.00000000000E+00 -0.00000000000E+00 -0.45593999997E+02  0.45594000000E+02  0.51100000000E-03 0. -1.
    9900012    2    1    2    0    0 -0.41146787310E+02  0.11679099389E+02  0.73593812341E+01  0.47787309215E+02  0.20000174033E+02 0.  0.
         12    1    1    2    0    0  0.41146787310E+02 -0.11679099389E+02 -0.73593812341E+01  0.43400690785E+02  0.00000000000E+00 0. -1.
         11    1    3    3    0    0 -0.13382848713E+02  0.12408848756E+02  0.52900875748E+01  0.19001715552E+02  0.51100000000E-03 0.  1.
        -11    1    3    3    0    0 -0.10220821070E+02  0.21509884932E+01 -0.17807369684E+01  0.10595421617E+02  0.51100000000E-03 0. -1.
         12    1    3    3    0    0 -0.17543117528E+02 -0.28807378599E+01  0.38500306277E+01  0.18190172046E+02  0.00000000000E+00 0. -1.
</event>
<event>
 7    1  0.2682317E-010  0.4778726E+02  0.7816164E-02  0.1312668E+00
        -11   -1    0    0    0    0  0.00000000000E+00  0.00000000000E+00  0.45593999997E+02  0.45594000000E+02  0.51100000000E-03 0.  1.
         11   -1    0    0    0    0 -0.00000000000E+00 -0.00000000000E+00 -0.45593999997E+02  0.45594000000E+02  0.51100000000E-03 0. -1.
    9900012    2    1    2    0    0 -0.26538776246E+02 -0.32463892048E+02  0.11198817838E+02  0.47787257466E+02  0.19999938091E+02 0.  0.
         12    1    1    2    0    0  0.26538776246E+02  0.32463892048E+02 -0.11198817838E+02  0.43400742534E+02  0.00000000000E+00 0. -1.
         11    1    3    3    0    0  0.10620099824E+01  0.23119753277E-01  0.44422491454E+01  0.45674913746E+01  0.51100000000E-03 0. -1.
        -11    1    3    3    0    0 -0.48245593154E+01 -0.66748312342E+01  0.68592195582E+00  0.82643955486E+01  0.51100000000E-03 0.  1.
         12    1    3    3    0    0 -0.22776226913E+02 -0.25812180567E+02  0.60706467372E+01  0.34955370543E+02  0.00000000000E+00 0. -1.
</event>
<event>
 7    1  0.2682317E-010  0.4778727E+02  0.7816164E-02  0.1312668E+00
        -11   -1    0    0    0    0  0.00000000000E+00  0.00000000000E+00  0.45593999997E+02  0.45594000000E+02  0.51100000000E-03 0.  1.
         11   -1    0    0    0    0 -0.00000000000E+00 -0.00000000000E+00 -0.45593999997E+02  0.45594000000E+02  0.51100000000E-03 0. -1.
    9900012    2    1    2    0    0  0.11803101147E+02 -0.40769618492E+02 -0.90635682844E+01  0.47787271219E+02  0.20000000796E+02 0.  0.
         12    1    1    2    0    0 -0.11803101147E+02  0.40769618492E+02  0.90635682844E+01  0.43400728781E+02  0.00000000000E+00 0. -1.
         11    1    3    3    0    0 -0.28516360105E+00 -0.25190137304E+02 -0.28239188426E+01  0.25349533597E+02  0.51100000000E-03 0. -1.
        -11    1    3    3    0    0  0.98473497256E-01 -0.27332972844E+01 -0.38223833235E+01  0.47001303819E+01  0.51100000000E-03 0.  1.
        -12    1    3    3    0    0  0.11989791251E+02 -0.12846183903E+02 -0.24172661183E+01  0.17737607240E+02  0.00000000000E+00 0.  1.
</event>
<event>
 7    1  0.2682317E-010  0.4778727E+02  0.7816164E-02  0.1312668E+00
        -11   -1    0    0    0    0  0.00000000000E+00  0.00000000000E+00  0.45593999997E+02  0.45594000000E+02  0.51100000000E-03 0.  1.
         11   -1    0    0    0    0 -0.00000000000E+00 -0.00000000000E+00 -0.45593999997E+02  0.45594000000E+02  0.51100000000E-03 0. -1.
    9900012    2    1    2    0    0 -0.22941372774E+02  0.35477209667E+02 -0.99340101566E+01  0.47787267883E+02  0.19999985585E+02 0.  0.
         12    1    1    2    0    0  0.22941372774E+02 -0.35477209667E+02  0.99340101566E+01  0.43400732117E+02  0.00000000000E+00 0. -1.
         11    1    3    3    0    0 -0.67010666108E+01  0.79116389342E+00 -0.13038580562E+01  0.68724289826E+01  0.51100000000E-03 0. -1.
        -11    1    3    3    0    0  0.48976337625E+00  0.23705426055E+01 -0.33670048483E+01  0.41468135139E+01  0.51100000000E-03 0.  1.
        -12    1    3    3    0    0 -0.16730069540E+02  0.32315503168E+02 -0.52631472522E+01  0.36768025386E+02  0.00000000000E+00 0.  1.
</event>
<event>
 7    1  0.2682317E-010  0.4778727E+02  0.7816164E-02  0.1312668E+00
        -11   -1    0    0    0    0  0.00000000000E+00  0.00000000000E+00  0.45593999997E+02  0.45594000000E+02  0.51100000000E-03 0.  1.
         11   -1    0    0    0    0 -0.00000000000E+00 -0.00000000000E+00 -0.45593999997E+02  0.45594000000E+02  0.51100000000E-03 0. -1.
    9900012    2    1    2    0    0 -0.34121458228E+02  0.42934632036E+01  0.26474810282E+02  0.47787270544E+02  0.19999997718E+02 0.  0.
         12    1    1    2    0    0  0.34121458228E+02 -0.42934632036E+01 -0.26474810282E+02  0.43400729456E+02  0.00000000000E+00 0. -1.
         11    1    3    3    0    0 -0.25512084545E+02  0.31383240945E+00  0.12321108663E+02  0.28333278447E+02  0.51100000000E-03 0. -1.
        -11    1    3    3    0    0 -0.92810669737E+01  0.69355411024E-01  0.87962279017E+01  0.12787362508E+02  0.51100000000E-03 0.  1.
        -12    1    3    3    0    0  0.67169329085E+00  0.39102753831E+01  0.53574737175E+01  0.66666295894E+01  0.00000000000E+00 0.  1.
</event>
<event>
 7    1  0.2682317E-010  0.4778727E+02  0.7816164E-02  0.1312668E+00
        -11   -1    0    0    0    0  0.00000000000E+00  0.00000000000E+00  0.45593999997E+02  0.45594000000E+02  0.51100000000E-03 0.  1.
         11   -1    0    0    0    0 -0.00000000000E+00 -0.00000000000E+00 -0.45593999997E+02  0.45594000000E+02  0.51100000000E-03 0. -1.
    9900012    2    1    2    0    0  0.18012866649E+02 -0.25046665917E+02  0.30525807801E+02  0.47787265210E+02  0.19999973396E+02 0.  0.
         12    1    1    2    0    0 -0.18012866649E+02  0.25046665917E+02 -0.30525807801E+02  0.43400734790E+02  0.00000000000E+00 0. -1.
         11    1    3    3    0    0  0.70806929547E+00 -0.84141076145E+01  0.10259077582E+02  0.13287108119E+02  0.51100000000E-03 0. -1.
        -11    1    3    3    0    0  0.13397599066E+01 -0.41936811860E+01  0.11740373329E+02  0.12538671567E+02  0.51100000000E-03 0.  1.
        -12    1    3    3    0    0  0.15965037447E+02 -0.12438877116E+02  0.85263568902E+01  0.21961485524E+02  0.00000000000E+00 0.  1.
</event>
<event>
 7    1  0.2682317E-010  0.4778727E+02  0.7816164E-02  0.1312668E+00
        -11   -1    0    0    0    0  0.00000000000E+00  0.00000000000E+00  0.45593999997E+02  0.45594000000E+02  0.51100000000E-03 0.  1.
         11   -1    0    0    0    0 -0.00000000000E+00 -0.00000000000E+00 -0.45593999997E+02  0.45594000000E+02  0.51100000000E-03 0. -1.
    9900012    2    1    2    0    0 -0.19829726521E+02 -0.29188380256E+02 -0.25267450868E+02  0.47787266490E+02  0.19999979232E+02 0.  0.
         12    1    1    2    0    0  0.19829726521E+02  0.29188380256E+02  0.25267450868E+02  0.43400733510E+02  0.00000000000E+00 0. -1.
         11    1    3    3    0    0 -0.17085737818E+01  0.21501264013E+01 -0.55579208875E+00  0.28019944712E+01  0.51100000000E-03 0. -1.
        -11    1    3    3    0    0  0.14666365080E+00 -0.50130711921E+01 -0.97693702212E+00  0.51094813054E+01  0.51100000000E-03 0.  1.
        -12    1    3    3    0    0 -0.18267816390E+02 -0.26325435465E+02 -0.23734721757E+02  0.39875790713E+02  0.00000000000E+00 0.  1.
</event>
<event>
 7    1  0.2682317E-010  0.4778727E+02  0.7816164E-02  0.1312668E+00
        -11   -1    0    0    0    0  0.00000000000E+00  0.00000000000E+00  0.45593999997E+02  0.45594000000E+02  0.51100000000E-03 0. -1.
         11   -1    0    0    0    0 -0.00000000000E+00 -0.00000000000E+00 -0.45593999997E+02  0.45594000000E+02  0.51100000000E-03 0.  1.
    9900012    2    1    2    0    0  0.38192807082E+02 -0.80851643479E+01 -0.18962146734E+02  0.47787269545E+02  0.19999993162E+02 0.  0.
         12    1    1    2    0    0 -0.38192807082E+02  0.80851643479E+01  0.18962146734E+02  0.43400730455E+02  0.00000000000E+00 0. -1.
         11    1    3    3    0    0  0.23941583465E+02 -0.78918731706E+00 -0.13317307329E+02  0.27407533822E+02  0.51100000000E-03 0. -1.
        -11    1    3    3    0    0  0.10803408789E+02 -0.20297010579E+01 -0.80674049711E+01  0.13635114634E+02  0.51100000000E-03 0.  1.
         12    1    3    3    0    0  0.34478148273E+01 -0.52662759730E+01  0.24225655669E+01  0.67446210889E+01  0.00000000000E+00 0. -1.
</event>
<event>
 7    1  0.2682317E-010  0.4778728E+02  0.7816164E-02  0.1312668E+00
        -11   -1    0    0    0    0  0.00000000000E+00  0.00000000000E+00  0.45593999997E+02  0.45594000000E+02  0.51100000000E-03 0.  1.
         11   -1    0    0    0    0 -0.00000000000E+00 -0.00000000000E+00 -0.45593999997E+02  0.45594000000E+02  0.51100000000E-03 0. -1.
    9900012    2    1    2    0    0 -0.15779269534E+02  0.10002699132E+02  0.39173754781E+02  0.47787281105E+02  0.20000045872E+02 0.  0.
         12    1    1    2    0    0  0.15779269534E+02 -0.10002699132E+02 -0.39173754781E+02  0.43400718895E+02  0.00000000000E+00 0. -1.
         11    1    3    3    0    0  0.95913116398E+00  0.37968193987E+01  0.85357029766E+01  0.93911658329E+01  0.51100000000E-03 0. -1.
        -11    1    3    3    0    0 -0.10183412442E+02  0.19225332342E+01  0.28430662981E+02  0.30260545613E+02  0.51100000000E-03 0.  1.
         12    1    3    3    0    0 -0.65549882559E+01  0.42833464993E+01  0.22073888233E+01  0.81355696596E+01  0.00000000000E+00 0. -1.
</event>
<event>
 7    1  0.2682317E-010  0.4778727E+02  0.7816164E-02  0.1312668E+00
        -11   -1    0    0    0    0  0.00000000000E+00  0.00000000000E+00  0.45593999997E+02  0.45594000000E+02  0.51100000000E-03 0.  1.
         11   -1    0    0    0    0 -0.00000000000E+00 -0.00000000000E+00 -0.45593999997E+02  0.45594000000E+02  0.51100000000E-03 0. -1.
    9900012    2    1    2    0    0 -0.31990712163E+02  0.57681155737E+01  0.28756676679E+02  0.47787271025E+02  0.19999999910E+02 0.  0.
         12    1    1    2    0    0  0.31990712163E+02 -0.57681155737E+01 -0.28756676679E+02  0.43400728975E+02  0.00000000000E+00 0. -1.
         11    1    3    3    0    0 -0.15457833806E+02 -0.30844908538E+01  0.93521798371E+01  0.18328174425E+02  0.51100000000E-03 0. -1.
        -11    1    3    3    0    0 -0.14124116415E+02  0.35878777981E+01  0.18576823943E+02  0.23610631496E+02  0.51100000000E-03 0.  1.
        -12    1    3    3    0    0 -0.24087619427E+01  0.52647286294E+01  0.82767289880E+00  0.58484651033E+01  0.00000000000E+00 0.  1.
</event>
<event>
 7    1  0.2682317E-010  0.4778726E+02  0.7816164E-02  0.1312668E+00
        -11   -1    0    0    0    0  0.00000000000E+00  0.00000000000E+00  0.45593999997E+02  0.45594000000E+02  0.51100000000E-03 0.  1.
         11   -1    0    0    0    0 -0.00000000000E+00 -0.00000000000E+00 -0.45593999997E+02  0.45594000000E+02  0.51100000000E-03 0. -1.
    9900012    2    1    2    0    0 -0.17419945460E+02  0.12382262882E+02  0.37773659015E+02  0.47787259807E+02  0.19999948764E+02 0.  0.
         12    1    1    2    0    0  0.17419945460E+02 -0.12382262882E+02 -0.37773659015E+02  0.43400740193E+02  0.00000000000E+00 0. -1.
         11    1    3    3    0    0 -0.36156822210E+01  0.46358419981E+01  0.13636013852E+02  0.14849412883E+02  0.51100000000E-03 0. -1.
        -11    1    3    3    0    0 -0.34993009787E+01  0.69051130754E+01  0.20605939650E+02  0.22012052223E+02  0.51100000000E-03 0.  1.
         12    1    3    3    0    0 -0.10304962260E+02  0.84130780797E+00  0.35317055133E+01  0.10925794701E+02  0.00000000000E+00 0. -1.
</event>
<event>
 7    1  0.2682317E-010  0.4778727E+02  0.7816164E-02  0.1312668E+00
        -11   -1    0    0    0    0  0.00000000000E+00  0.00000000000E+00  0.45593999997E+02  0.45594000000E+02  0.51100000000E-03 0.  1.
         11   -1    0    0    0    0 -0.00000000000E+00 -0.00000000000E+00 -0.45593999997E+02  0.45594000000E+02  0.51100000000E-03 0. -1.
    9900012    2    1    2    0    0 -0.29023494675E+02  0.15825002706E+02  0.28121688866E+02  0.47787270300E+02  0.19999996605E+02 0.  0.
         12    1    1    2    0    0  0.29023494675E+02 -0.15825002706E+02 -0.28121688866E+02  0.43400729700E+02  0.00000000000E+00 0. -1.
         11    1    3    3    0    0 -0.26779645202E+01  0.22483443693E+01  0.70450657284E+01  0.78650809121E+01  0.51100000000E-03 0. -1.
        -11    1    3    3    0    0 -0.18697585502E+02  0.16328558854E+02  0.11490942760E+02  0.27354401906E+02  0.51100000000E-03 0.  1.
        -12    1    3    3    0    0 -0.76479446528E+01 -0.27519005176E+01  0.95856803784E+01  0.12567787482E+02  0.00000000000E+00 0.  1.
</event>
<event>
 7    1  0.2682317E-010  0.4778728E+02  0.7816164E-02  0.1312668E+00
        -11   -1    0    0    0    0  0.00000000000E+00  0.00000000000E+00  0.45593999997E+02  0.45594000000E+02  0.51100000000E-03 0.  1.
         11   -1    0    0    0    0 -0.00000000000E+00 -0.00000000000E+00 -0.45593999997E+02  0.45594000000E+02  0.51100000000E-03 0. -1.
    9900012    2    1    2    0    0  0.22469043155E+02 -0.21967147182E+02  0.29936745188E+02  0.47787283783E+02  0.20000058082E+02 0.  0.
         12    1    1    2    0    0 -0.22469043155E+02  0.21967147182E+02 -0.29936745188E+02  0.43400716217E+02  0.00000000000E+00 0. -1.
         11    1    3    3    0    0  0.21042468512E+02 -0.11900335694E+02  0.13872739835E+02  0.27872143469E+02  0.51100000000E-03 0. -1.
        -11    1    3    3    0    0  0.32337810926E+01 -0.72879644278E+01  0.84870517732E+01  0.11644819179E+02  0.51100000000E-03 0.  1.
         12    1    3    3    0    0 -0.18072064498E+01 -0.27788470599E+01  0.75769535798E+01  0.82703211355E+01  0.00000000000E+00 0. -1.
</event>
<event>
 7    1  0.2682317E-010  0.4778729E+02  0.7816164E-02  0.1312668E+00
        -11   -1    0    0    0    0  0.00000000000E+00  0.00000000000E+00  0.45593999997E+02  0.45594000000E+02  0.51100000000E-03 0.  1.
         11   -1    0    0    0    0 -0.00000000000E+00 -0.00000000000E+00 -0.45593999997E+02  0.45594000000E+02  0.51100000000E-03 0. -1.
    9900012    2    1    2    0    0  0.18902493795E+02  0.26692520714E+02  0.28527649703E+02  0.47787288816E+02  0.20000081026E+02 0.  0.
         12    1    1    2    0    0 -0.18902493795E+02 -0.26692520714E+02 -0.28527649703E+02  0.43400711184E+02  0.00000000000E+00 0. -1.
         11    1    3    3    0    0  0.74771779910E+01  0.14427638415E+02  0.57242492387E+01  0.17228812221E+02  0.51100000000E-03 0. -1.
        -11    1    3    3    0    0  0.10906550560E+02  0.11661141637E+02  0.12640921687E+02  0.20364870998E+02  0.51100000000E-03 0.  1.
         12    1    3    3    0    0  0.51876524416E+00  0.60374066214E+00  0.10162478778E+02  0.10193605597E+02  0.00000000000E+00 0. -1.
</event>
<event>
 7    1  0.2682317E-010  0.4778727E+02  0.7816164E-02  0.1312668E+00
        -11   -1    0    0    0    0  0.00000000000E+00  0.00000000000E+00  0.45593999997E+02  0.45594000000E+02  0.51100000000E-03 0. -1.
         11   -1    0    0    0    0 -0.00000000000E+00 -0.00000000000E+00 -0.45593999997E+02  0.45594000000E+02  0.51100000000E-03 0.  1.
    9900012    2    1    2    0    0  0.24861730797E+02 -0.30322006985E+02  0.18603586045E+02  0.47787272131E+02  0.20000004955E+02 0.  0.
         12    1    1    2    0    0 -0.24861730797E+02  0.30322006985E+02 -0.18603586045E+02  0.43400727869E+02  0.00000000000E+00 0. -1.
         11    1    3    3    0    0 -0.83526234166E+00 -0.12182464221E+01 -0.35005754856E+00  0.15180013415E+01  0.51100000000E-03 0. -1.
        -11    1    3    3    0    0  0.11239659277E+02 -0.21041199068E+01  0.34621824066E+01  0.11947550733E+02  0.51100000000E-03 0.  1.
         12    1    3    3    0    0  0.14457333862E+02 -0.26999640656E+02  0.15491461187E+02  0.34321720057E+02  0.00000000000E+00 0. -1.
</event>
<event>
 7    1  0.2682317E-010  0.4778728E+02  0.7816164E-02  0.1312668E+00
        -11   -1    0    0    0    0  0.00000000000E+00  0.00000000000E+00  0.45593999997E+02  0.45594000000E+02  0.51100000000E-03 0. -1.
         11   -1    0    0    0    0 -0.00000000000E+00 -0.00000000000E+00 -0.45593999997E+02  0.45594000000E+02  0.51100000000E-03 0.  1.
    9900012    2    1    2    0    0  0.67671150007E+00  0.33634249133E+02 -0.27420825183E+02  0.47787282184E+02  0.20000050789E+02 0.  0.
         12    1    1    2    0    0 -0.67671150007E+00 -0.33634249133E+02  0.27420825183E+02  0.43400717816E+02  0.00000000000E+00 0. -1.
         11    1    3    3    0    0 -0.63299864917E+01  0.23156644380E+02 -0.11895055075E+02  0.26791626367E+02  0.51100000000E-03 0. -1.
        -11    1    3    3    0    0 -0.12994688623E+00  0.52059958263E+01 -0.66414075796E+01  0.84396429804E+01  0.51100000000E-03 0.  1.
        -12    1    3    3    0    0  0.71366448780E+01  0.52716089275E+01 -0.88843625285E+01  0.12556012836E+02  0.00000000000E+00 0.  1.
</event>
<event>
 7    1  0.2682317E-010  0.4778727E+02  0.7816164E-02  0.1312668E+00
        -11   -1    0    0    0    0  0.00000000000E+00  0.00000000000E+00  0.45593999997E+02  0.45594000000E+02  0.51100000000E-03 0. -1.
         11   -1    0    0    0    0 -0.00000000000E+00 -0.00000000000E+00 -0.45593999997E+02  0.45594000000E+02  0.51100000000E-03 0.  1.
    9900012    2    1    2    0    0  0.10421743894E+02 -0.10062596526E+02 -0.40911546102E+02  0.47787271906E+02  0.20000003929E+02 0.  0.
         12    1    1    2    0    0 -0.10421743894E+02  0.10062596526E+02  0.40911546102E+02  0.43400728094E+02  0.00000000000E+00 0. -1.
         11    1    3    3    0    0  0.73386535334E+01  0.34693018912E+00 -0.15960437005E+02  0.17570194816E+02  0.51100000000E-03 0. -1.
        -11    1    3    3    0    0 -0.31736649792E+01 -0.32032451600E+00 -0.12946497624E+02  0.13333662595E+02  0.51100000000E-03 0.  1.
        -12    1    3    3    0    0  0.62567553401E+01 -0.10089202199E+02 -0.12004611473E+02  0.16883414495E+02  0.00000000000E+00 0.  1.
</event>
<event>
 7    1  0.2682317E-010  0.4778728E+02  0.7816164E-02  0.1312668E+00
        -11   -1    0    0    0    0  0.00000000000E+00  0.00000000000E+00  0.45593999997E+02  0.45594000000E+02  0.51100000000E-03 0. -1.
         11   -1    0    0    0    0 -0.00000000000E+00 -0.00000000000E+00 -0.45593999997E+02  0.45594000000E+02  0.51100000000E-03 0.  1.
    9900012    2    1    2    0    0 -0.41623726232E+02 -0.22640697320E+01 -0.12081469629E+02  0.47787279895E+02  0.20000040355E+02 0.  0.
         12    1    1    2    0    0  0.41623726232E+02  0.22640697320E+01  0.12081469629E+02  0.43400720105E+02  0.00000000000E+00 0. -1.
         11    1    3    3    0    0 -0.68225143450E+01 -0.18180561621E+01 -0.98644655818E+01  0.12130940263E+02  0.51100000000E-03 0. -1.
        -11    1    3    3    0    0 -0.12250268311E+02 -0.29948313442E+01 -0.29442573065E+01  0.12950163698E+02  0.51100000000E-03 0.  1.
         12    1    3    3    0    0 -0.22550943577E+02  0.25488177743E+01  0.72725325899E+00  0.22706175934E+02  0.00000000000E+00 0. -1.
</event>
<event>
 7    1  0.2682317E-010  0.4778727E+02  0.7816164E-02  0.1312668E+00
        -11   -1    0    0    0    0  0.00000000000E+00  0.00000000000E+00  0.45593999997E+02  0.45594000000E+02  0.51100000000E-03 0. -1.
         11   -1    0    0    0    0 -0.00000000000E+00 -0.00000000000E+00 -0.45593999997E+02  0.45594000000E+02  0.51100000000E-03 0.  1.
    9900012    2    1    2    0    0 -0.13493715882E+02  0.29351254622E+02 -0.28983557609E+02  0.47787272726E+02  0.20000007668E+02 0.  0.
         12    1    1    2    0    0  0.13493715882E+02 -0.29351254622E+02  0.28983557609E+02  0.43400727274E+02  0.00000000000E+00 0. -1.
         11    1    3    3    0    0 -0.11446635355E+02  0.12844761064E+02 -0.16012172633E+02  0.23503255528E+02  0.51100000000E-03 0. -1.
        -11    1    3    3    0    0 -0.36248887039E+01  0.15280775392E+02 -0.14796989443E+02  0.21577599763E+02  0.51100000000E-03 0.  1.
        -12    1    3    3    0    0  0.15778081764E+01  0.12257181660E+01  0.18256044667E+01  0.27064174351E+01  0.00000000000E+00 0.  1.
</event>
<event>
 7    1  0.2682317E-010  0.4778725E+02  0.7816164E-02  0.1312668E+00
        -11   -1    0    0    0    0  0.00000000000E+00  0.00000000000E+00  0.45593999997E+02  0.45594000000E+02  0.51100000000E-03 0.  1.
         11   -1    0    0    0    0 -0.00000000000E+00 -0.00000000000E+00 -0.45593999997E+02  0.45594000000E+02  0.51100000000E-03 0. -1.
    9900012    2    1    2    0    0  0.40744292050E+02  0.11854041485E+01  0.14903786021E+02  0.47787247064E+02  0.19999890663E+02 0.  0.
         12    1    1    2    0    0 -0.40744292050E+02 -0.11854041485E+01 -0.14903786021E+02  0.43400752936E+02  0.00000000000E+00 0. -1.
         11    1    3    3    0    0  0.27608180870E+02 -0.47978521982E+01  0.82099469663E+01  0.29199901817E+02  0.51100000000E-03 0. -1.
        -11    1    3    3    0    0  0.14379854223E+02  0.45509796476E+01  0.46149043366E+01  0.15773045537E+02  0.51100000000E-03 0.  1.
         12    1    3    3    0    0 -0.12437430424E+01  0.14322766991E+01  0.20789347177E+01  0.28142997101E+01  0.00000000000E+00 0. -1.
</event>
<event>
 7    1  0.2682317E-010  0.4778727E+02  0.7816164E-02  0.1312668E+00
        -11   -1    0    0    0    0  0.00000000000E+00  0.00000000000E+00  0.45593999997E+02  0.45594000000E+02  0.51100000000E-03 0.  1.
         11   -1    0    0    0    0 -0.00000000000E+00 -0.00000000000E+00 -0.45593999997E+02  0.45594000000E+02  0.51100000000E-03 0. -1.
    9900012    2    1    2    0    0  0.17758831842E+02 -0.38996511430E+02  0.68934098894E+01  0.47787272909E+02  0.20000008502E+02 0.  0.
         12    1    1    2    0    0 -0.17758831842E+02  0.38996511430E+02 -0.68934098894E+01  0.43400727091E+02  0.00000000000E+00 0. -1.
         11    1    3    3    0    0  0.43942984163E+01 -0.22312784422E+02  0.21366217925E+01  0.22841527098E+02  0.51100000000E-03 0. -1.
        -11    1    3    3    0    0  0.51296117517E+01 -0.15016264658E+02  0.15165304164E+01  0.15940545341E+02  0.51100000000E-03 0.  1.
        -12    1    3    3    0    0  0.82349216741E+01 -0.16674623497E+01  0.32402576805E+01  0.90052004698E+01  0.00000000000E+00 0.  1.
</event>
<event>
 7    1  0.2682317E-010  0.4778726E+02  0.7816164E-02  0.1312668E+00
        -11   -1    0    0    0    0  0.00000000000E+00  0.00000000000E+00  0.45593999997E+02  0.45594000000E+02  0.51100000000E-03 0.  1.
         11   -1    0    0    0    0 -0.00000000000E+00 -0.00000000000E+00 -0.45593999997E+02  0.45594000000E+02  0.51100000000E-03 0. -1.
    9900012    2    1    2    0    0  0.13126205422E+02 -0.16579145594E+02  0.37900641002E+02  0.47787263534E+02  0.19999965756E+02 0.  0.
         12    1    1    2    0    0 -0.13126205422E+02  0.16579145594E+02 -0.37900641002E+02  0.43400736466E+02  0.00000000000E+00 0. -1.
         11    1    3    3    0    0 -0.91099645075E+00 -0.10664467230E+01  0.82542985152E+01  0.83726141309E+01  0.51100000000E-03 0. -1.
        -11    1    3    3    0    0  0.42640534632E+00 -0.11623092199E+02  0.15739893324E+02  0.19570956438E+02  0.51100000000E-03 0.  1.
         12    1    3    3    0    0  0.13610796527E+02 -0.38896066719E+01  0.13906449163E+02  0.19843692965E+02  0.00000000000E+00 0. -1.
</event>
<event>
 7    1  0.2682317E-010  0.4778727E+02  0.7816164E-02  0.1312668E+00
        -11   -1    0    0    0    0  0.00000000000E+00  0.00000000000E+00  0.45593999997E+02  0.45594000000E+02  0.51100000000E-03 0. -1.
         11   -1    0    0    0    0 -0.00000000000E+00 -0.00000000000E+00 -0.45593999997E+02  0.45594000000E+02  0.51100000000E-03 0.  1.
    9900012    2    1    2    0    0 -0.31485569012E+02 -0.24318102343E+02 -0.17346820354E+02  0.47787270352E+02  0.19999996844E+02 0.  0.
         12    1    1    2    0    0  0.31485569012E+02  0.24318102343E+02  0.17346820354E+02  0.43400729648E+02  0.00000000000E+00 0. -1.
         11    1    3    3    0    0 -0.40245826183E+01 -0.33842585566E+00 -0.32760644482E+01  0.52004226598E+01  0.51100000000E-03 0. -1.
        -11    1    3    3    0    0 -0.89209216176E+01 -0.53677851950E+01  0.34978041137E+01  0.10983195996E+02  0.51100000000E-03 0.  1.
        -12    1    3    3    0    0 -0.18540064776E+02 -0.18611891293E+02 -0.17568560020E+02  0.31603651696E+02  0.00000000000E+00 0.  1.
</event>
<event>
 7    1  0.2682317E-010  0.4778727E+02  0.7816164E-02  0.1312668E+00
        -11   -1    0    0    0    0  0.00000000000E+00  0.00000000000E+00  0.45593999997E+02  0.45594000000E+02  0.51100000000E-03 0.  1.
         11   -1    0    0    0    0 -0.00000000000E+00 -0.00000000000E+00 -0.45593999997E+02  0.45594000000E+02  0.51100000000E-03 0. -1.
    9900012    2    1    2    0    0 -0.13736645934E+02  0.40669266153E+02 -0.63983518108E+01  0.47787267784E+02  0.19999985136E+02 0.  0.
         12    1    1    2    0    0  0.13736645934E+02 -0.40669266153E+02  0.63983518108E+01  0.43400732216E+02  0.00000000000E+00 0. -1.
         11    1    3    3    0    0  0.12373995177E+01  0.31790640097E+01  0.80692239464E+00  0.35055284276E+01  0.51100000000E-03 0. -1.
        -11    1    3    3    0    0 -0.33184863408E+01  0.25975900526E+02  0.46533540979E+00  0.26191149212E+02  0.51100000000E-03 0.  1.
         12    1    3    3    0    0 -0.11655559111E+02  0.11514301618E+02 -0.76706096152E+01  0.18090590145E+02  0.00000000000E+00 0. -1.
</event>
<event>
 7    1  0.2682317E-010  0.4778727E+02  0.7816164E-02  0.1312668E+00
        -11   -1    0    0    0    0  0.00000000000E+00  0.00000000000E+00  0.45593999997E+02  0.45594000000E+02  0.51100000000E-03 0.  1.
         11   -1    0    0    0    0 -0.00000000000E+00 -0.00000000000E+00 -0.45593999997E+02  0.45594000000E+02  0.51100000000E-03 0. -1.
    9900012    2    1    2    0    0 -0.10939552334E+02  0.40985150478E+02  0.91742554689E+01  0.47787270416E+02  0.19999997137E+02 0.  0.
         12    1    1    2    0    0  0.10939552334E+02 -0.40985150478E+02 -0.91742554689E+01  0.43400729584E+02  0.00000000000E+00 0. -1.
         11    1    3    3    0    0 -0.90860684723E+01  0.92181223233E+01  0.48739356101E+01  0.13830606207E+02  0.51100000000E-03 0. -1.
        -11    1    3    3    0    0 -0.59590284452E+01  0.25275227841E+02  0.39567203560E+01  0.26267904345E+02  0.51100000000E-03 0.  1.
         12    1    3    3    0    0  0.41055445839E+01  0.64918003140E+01  0.34359950273E+00  0.76887598653E+01  0.00000000000E+00 0. -1.
</event>
<event>
 7    1  0.2682317E-010  0.4778727E+02  0.7816164E-02  0.1312668E+00
        -11   -1    0    0    0    0  0.00000000000E+00  0.00000000000E+00  0.45593999997E+02  0.45594000000E+02  0.51100000000E-03 0.  1.
         11   -1    0    0    0    0 -0.00000000000E+00 -0.00000000000E+00 -0.45593999997E+02  0.45594000000E+02  0.51100000000E-03 0. -1.
    9900012    2    1    2    0    0  0.94132394872E+01 -0.42312914924E+02  0.21521281693E+01  0.47787268408E+02  0.19999987981E+02 0.  0.
         12    1    1    2    0    0 -0.94132394872E+01  0.42312914924E+02 -0.21521281693E+01  0.43400731592E+02  0.00000000000E+00 0. -1.
         11    1    3    3    0    0  0.27333854777E+01 -0.20913684905E+02  0.14061979074E+01  0.21138377546E+02  0.51100000000E-03 0.  1.
        -11    1    3    3    0    0  0.77570729093E+01 -0.19446493922E+02  0.52834865052E+01  0.21592904758E+02  0.51100000000E-03 0. -1.
        -12    1    3    3    0    0 -0.10772188999E+01 -0.19527360977E+01 -0.45375562433E+01  0.50559861043E+01  0.00000000000E+00 0.  1.
</event>
<event>
 7    1  0.2682317E-010  0.4778731E+02  0.7816164E-02  0.1312668E+00
        -11   -1    0    0    0    0  0.00000000000E+00  0.00000000000E+00  0.45593999997E+02  0.45594000000E+02  0.51100000000E-03 0.  1.
         11   -1    0    0    0    0 -0.00000000000E+00 -0.00000000000E+00 -0.45593999997E+02  0.45594000000E+02  0.51100000000E-03 0. -1.
    9900012    2    1    2    0    0  0.44487771538E+01  0.73846503584E+01  0.42535815090E+02  0.47787305945E+02  0.20000159126E+02 0.  0.
         12    1    1    2    0    0 -0.44487771538E+01 -0.73846503584E+01 -0.42535815090E+02  0.43400694055E+02  0.00000000000E+00 0. -1.
         11    1    3    3    0    0 -0.28266247190E+01  0.63465228117E+00  0.97866866175E+01  0.10206460015E+02  0.51100000000E-03 0. -1.
        -11    1    3    3    0    0  0.44580860614E+01  0.31826943128E+01  0.32574509349E+02  0.33031844242E+02  0.51100000000E-03 0.  1.
         12    1    3    3    0    0  0.28173158114E+01  0.35673037644E+01  0.17461912347E+00  0.45490016891E+01  0.00000000000E+00 0. -1.
</event>
<event>
 7    1  0.2682317E-010  0.4778727E+02  0.7816164E-02  0.1312668E+00
        -11   -1    0    0    0    0  0.00000000000E+00  0.00000000000E+00  0.45593999997E+02  0.45594000000E+02  0.51100000000E-03 0.  1.
         11   -1    0    0    0    0 -0.00000000000E+00 -0.00000000000E+00 -0.45593999997E+02  0.45594000000E+02  0.51100000000E-03 0. -1.
    9900012    2    1    2    0    0 -0.10779168345E+02  0.15311355919E+02  0.39153482665E+02  0.47787270800E+02  0.19999998888E+02 0.  0.
         12    1    1    2    0    0  0.10779168345E+02 -0.15311355919E+02 -0.39153482665E+02  0.43400729200E+02  0.00000000000E+00 0. -1.
         11    1    3    3    0    0 -0.23535197768E+01 -0.19351429254E+01  0.55801307055E+01  0.63578056304E+01  0.51100000000E-03 0. -1.
        -11    1    3    3    0    0 -0.12652315851E+02  0.11218831391E+02  0.23125542973E+02  0.28648455669E+02  0.51100000000E-03 0.  1.
        -12    1    3    3    0    0  0.42266672830E+01  0.60276674537E+01  0.10447808986E+02  0.12781009501E+02  0.00000000000E+00 0.  1.
</event>
<event>
 7    1  0.2682317E-010  0.4778728E+02  0.7816164E-02  0.1312668E+00
        -11   -1    0    0    0    0  0.00000000000E+00  0.00000000000E+00  0.45593999997E+02  0.45594000000E+02  0.51100000000E-03 0.  1.
         11   -1    0    0    0    0 -0.00000000000E+00 -0.00000000000E+00 -0.45593999997E+02  0.45594000000E+02  0.51100000000E-03 0. -1.
    9900012    2    1    2    0    0 -0.18467321622E+02  0.93946181251E+01  0.38135574783E+02  0.47787275563E+02  0.20000020604E+02 0.  0.
         12    1    1    2    0    0  0.18467321622E+02 -0.93946181251E+01 -0.38135574783E+02  0.43400724437E+02  0.00000000000E+00 0. -1.
         11    1    3    3    0    0 -0.90534466772E+01  0.15129790962E+01  0.31198108174E+02  0.32520392931E+02  0.51100000000E-03 0. -1.
        -11    1    3    3    0    0 -0.60767733110E+01  0.21325839060E+01  0.54926195894E+01  0.84642754093E+01  0.51100000000E-03 0.  1.
         12    1    3    3    0    0 -0.33371016338E+01  0.57490551228E+01  0.14448470192E+01  0.68026072229E+01  0.00000000000E+00 0. -1.
</event>
<event>
 7    1  0.2682317E-010  0.4778727E+02  0.7816164E-02  0.1312668E+00
        -11   -1    0    0    0    0  0.00000000000E+00  0.00000000000E+00  0.45593999997E+02  0.45594000000E+02  0.51100000000E-03 0.  1.
         11   -1    0    0    0    0 -0.00000000000E+00 -0.00000000000E+00 -0.45593999997E+02  0.45594000000E+02  0.51100000000E-03 0. -1.
    9900012    2    1    2    0    0 -0.35835883089E+02 -0.12236589639E+02  0.21205626820E+02  0.47787271302E+02  0.20000001173E+02 0.  0.
         12    1    1    2    0    0  0.35835883089E+02  0.12236589639E+02 -0.21205626820E+02  0.43400728698E+02  0.00000000000E+00 0. -1.
         11    1    3    3    0    0 -0.13984307394E+02 -0.25721653565E+01 -0.10711432009E+01  0.14259180759E+02  0.51100000000E-03 0. -1.
        -11    1    3    3    0    0 -0.14692426041E+01  0.70607262224E+00  0.37755428772E+01  0.41124125105E+01  0.51100000000E-03 0.  1.
         12    1    3    3    0    0 -0.20382333091E+02 -0.10370496904E+02  0.18501227144E+02  0.29415678032E+02  0.00000000000E+00 0. -1.
</event>
<event>
 7    1  0.2682317E-010  0.4778727E+02  0.7816164E-02  0.1312668E+00
        -11   -1    0    0    0    0  0.00000000000E+00  0.00000000000E+00  0.45593999997E+02  0.45594000000E+02  0.51100000000E-03 0.  1.
         11   -1    0    0    0    0 -0.00000000000E+00 -0.00000000000E+00 -0.45593999997E+02  0.45594000000E+02  0.51100000000E-03 0. -1.
    9900012    2    1    2    0    0  0.12783569232E+02  0.30692250270E+02  0.27896043329E+02  0.47787273021E+02  0.20000009010E+02 0.  0.
         12    1    1    2    0    0 -0.12783569232E+02 -0.30692250270E+02 -0.27896043329E+02  0.43400726979E+02  0.00000000000E+00 0. -1.
         11    1    3    3    0    0  0.43518347538E+01  0.11033869508E+02  0.62539940559E+01  0.13408847227E+02  0.51100000000E-03 0.  1.
        -11    1    3    3    0    0  0.10964238114E+02  0.54083526075E+01  0.10434503985E+02  0.16073072794E+02  0.51100000000E-03 0. -1.
         12    1    3    3    0    0 -0.25325036364E+01  0.14250028154E+02  0.11207545287E+02  0.18305352999E+02  0.00000000000E+00 0. -1.
</event>
<event>
 7    1  0.2682317E-010  0.4778727E+02  0.7816164E-02  0.1312668E+00
        -11   -1    0    0    0    0  0.00000000000E+00  0.00000000000E+00  0.45593999997E+02  0.45594000000E+02  0.51100000000E-03 0.  1.
         11   -1    0    0    0    0 -0.00000000000E+00 -0.00000000000E+00 -0.45593999997E+02  0.45594000000E+02  0.51100000000E-03 0. -1.
    9900012    2    1    2    0    0 -0.37249148099E+02  0.20348146096E+02  0.90596474141E+01  0.47787270802E+02  0.19999998896E+02 0.  0.
         12    1    1    2    0    0  0.37249148099E+02 -0.20348146096E+02 -0.90596474141E+01  0.43400729198E+02  0.00000000000E+00 0. -1.
         11    1    3    3    0    0 -0.12375594931E+02  0.85705568625E+00 -0.18238647896E+01  0.12538595511E+02  0.51100000000E-03 0. -1.
        -11    1    3    3    0    0 -0.10532279852E+02  0.16948069815E+01  0.36827008777E+01  0.11285547200E+02  0.51100000000E-03 0.  1.
        -12    1    3    3    0    0 -0.14341273315E+02  0.17796283429E+02  0.72008113260E+01  0.23963128092E+02  0.00000000000E+00 0.  1.
</event>
<event>
 7    1  0.2682317E-010  0.4778727E+02  0.7816164E-02  0.1312668E+00
        -11   -1    0    0    0    0  0.00000000000E+00  0.00000000000E+00  0.45593999997E+02  0.45594000000E+02  0.51100000000E-03 0. -1.
         11   -1    0    0    0    0 -0.00000000000E+00 -0.00000000000E+00 -0.45593999997E+02  0.45594000000E+02  0.51100000000E-03 0.  1.
    9900012    2    1    2    0    0 -0.26050276863E+02 -0.29912626192E+02 -0.17613666576E+02  0.47787269815E+02  0.19999994394E+02 0.  0.
         12    1    1    2    0    0  0.26050276863E+02  0.29912626192E+02  0.17613666576E+02  0.43400730185E+02  0.00000000000E+00 0. -1.
         11    1    3    3    0    0 -0.12590439434E+02 -0.75176552206E+01 -0.68092674371E+01  0.16167882621E+02  0.51100000000E-03 0. -1.
        -11    1    3    3    0    0 -0.19806521711E+01 -0.29410200519E+00 -0.59083840171E+01  0.62384678381E+01  0.51100000000E-03 0.  1.
        -12    1    3    3    0    0 -0.11479185258E+02 -0.22100868966E+02 -0.48960151218E+01  0.25380919355E+02  0.00000000000E+00 0.  1.
</event>
<event>
 7    1  0.2682317E-010  0.4778727E+02  0.7816164E-02  0.1312668E+00
        -11   -1    0    0    0    0  0.00000000000E+00  0.00000000000E+00  0.45593999997E+02  0.45594000000E+02  0.51100000000E-03 0.  1.
         11   -1    0    0    0    0 -0.00000000000E+00 -0.00000000000E+00 -0.45593999997E+02  0.45594000000E+02  0.51100000000E-03 0. -1.
    9900012    2    1    2    0    0  0.35302367849E+02  0.44541741529E+01  0.24850077589E+02  0.47787271904E+02  0.20000003917E+02 0.  0.
         12    1    1    2    0    0 -0.35302367849E+02 -0.44541741529E+01 -0.24850077589E+02  0.43400728096E+02  0.00000000000E+00 0. -1.
         11    1    3    3    0    0 -0.92147962500E-01  0.14799746965E+01 -0.81845132088E+00  0.16937175606E+01  0.51100000000E-03 0. -1.
        -11    1    3    3    0    0  0.16123381181E+02  0.68495934317E+01  0.66370815609E+01  0.18733157844E+02  0.51100000000E-03 0.  1.
         12    1    3    3    0    0  0.19271134631E+02 -0.38753939752E+01  0.19031447349E+02  0.27360396499E+02  0.00000000000E+00 0. -1.
</event>
<event>
 7    1  0.2682317E-010  0.4778727E+02  0.7816164E-02  0.1312668E+00
        -11   -1    0    0    0    0  0.00000000000E+00  0.00000000000E+00  0.45593999997E+02  0.45594000000E+02  0.51100000000E-03 0.  1.
         11   -1    0    0    0    0 -0.00000000000E+00 -0.00000000000E+00 -0.45593999997E+02  0.45594000000E+02  0.51100000000E-03 0. -1.
    9900012    2    1    2    0    0  0.24052236832E+02  0.16358250352E+02  0.32210574631E+02  0.47787267642E+02  0.19999984485E+02 0.  0.
         12    1    1    2    0    0 -0.24052236832E+02 -0.16358250352E+02 -0.32210574631E+02  0.43400732358E+02  0.00000000000E+00 0. -1.
         11    1    3    3    0    0  0.61959941762E+01  0.81047319022E+01  0.20654569188E+02  0.23036671887E+02  0.51100000000E-03 0. -1.
        -11    1    3    3    0    0  0.77495939383E+01  0.86368644276E+01  0.77012800433E+01  0.13927000679E+02  0.51100000000E-03 0.  1.
        -12    1    3    3    0    0  0.10106648718E+02 -0.38334597773E+00  0.38547253992E+01  0.10823595075E+02  0.00000000000E+00 0.  1.
</event>
<event>
 7    1  0.2682317E-010  0.4778728E+02  0.7816164E-02  0.1312668E+00
        -11   -1    0    0    0    0  0.00000000000E+00  0.00000000000E+00  0.45593999997E+02  0.45594000000E+02  0.51100000000E-03 0.  1.
         11   -1    0    0    0    0 -0.00000000000E+00 -0.00000000000E+00 -0.45593999997E+02  0.45594000000E+02  0.51100000000E-03 0. -1.
    9900012    2    1    2    0    0  0.88750047681E+01  0.14848845027E+02  0.39804132749E+02  0.47787275442E+02  0.20000020050E+02 0.  0.
         12    1    1    2    0    0 -0.88750047681E+01 -0.14848845027E+02 -0.39804132749E+02  0.43400724558E+02  0.00000000000E+00 0. -1.
         11    1    3    3    0    0 -0.43810455115E+01  0.72457420271E+01  0.22373854856E+02  0.23922452187E+02  0.51100000000E-03 0. -1.
        -11    1    3    3    0    0  0.49096815193E+00  0.21002974906E+01  0.39542135663E+01  0.45042318395E+01  0.51100000000E-03 0.  1.
        -12    1    3    3    0    0  0.12765082128E+02  0.55028055092E+01  0.13476064327E+02  0.19360591415E+02  0.00000000000E+00 0.  1.
</event>
<event>
 7    1  0.2682317E-010  0.4778727E+02  0.7816164E-02  0.1312668E+00
        -11   -1    0    0    0    0  0.00000000000E+00  0.00000000000E+00  0.45593999997E+02  0.45594000000E+02  0.51100000000E-03 0.  1.
         11   -1    0    0    0    0 -0.00000000000E+00 -0.00000000000E+00 -0.45593999997E+02  0.45594000000E+02  0.51100000000E-03 0. -1.
    9900012    2    1    2    0    0 -0.30010539658E+01  0.37642393097E+02  0.21393150394E+02  0.47787274583E+02  0.20000016134E+02 0.  0.
         12    1    1    2    0    0  0.30010539658E+01 -0.37642393097E+02 -0.21393150394E+02  0.43400725417E+02  0.00000000000E+00 0. -1.
         11    1    3    3    0    0  0.20043447394E+01  0.93427131611E+01  0.77184155102E+01  0.12283225362E+02  0.51100000000E-03 0. -1.
        -11    1    3    3    0    0 -0.67427695511E+01  0.26205177678E+02  0.16409796583E+02  0.31645816509E+02  0.51100000000E-03 0.  1.
         12    1    3    3    0    0  0.17373708459E+01  0.20945022575E+01 -0.27350616992E+01  0.38582327122E+01  0.00000000000E+00 0. -1.
</event>
<event>
 7    1  0.2682317E-010  0.4778728E+02  0.7816164E-02  0.1312668E+00
        -11   -1    0    0    0    0  0.00000000000E+00  0.00000000000E+00  0.45593999997E+02  0.45594000000E+02  0.51100000000E-03 0. -1.
         11   -1    0    0    0    0 -0.00000000000E+00 -0.00000000000E+00 -0.45593999997E+02  0.45594000000E+02  0.51100000000E-03 0.  1.
    9900012    2    1    2    0    0 -0.32968283121E+02  0.27298280270E+02 -0.71776651090E+01  0.47787277954E+02  0.20000031505E+02 0.  0.
         12    1    1    2    0    0  0.32968283121E+02 -0.27298280270E+02  0.71776651090E+01  0.43400722046E+02  0.00000000000E+00 0. -1.
         11    1    3    3    0    0 -0.89020936916E+01  0.76841140969E+01 -0.46774269786E+01  0.12655876301E+02  0.51100000000E-03 0. -1.
        -11    1    3    3    0    0 -0.24662593237E+02  0.18728116485E+02 -0.59378953636E+01  0.31531642105E+02  0.51100000000E-03 0.  1.
         12    1    3    3    0    0  0.59640380734E+00  0.88604968834E+00  0.34376572332E+01  0.35997595482E+01  0.00000000000E+00 0. -1.
</event>
<event>
 7    1  0.2682317E-010  0.4778727E+02  0.7816164E-02  0.1312668E+00
        -11   -1    0    0    0    0  0.00000000000E+00  0.00000000000E+00  0.45593999997E+02  0.45594000000E+02  0.51100000000E-03 0.  1.
         11   -1    0    0    0    0 -0.00000000000E+00 -0.00000000000E+00 -0.45593999997E+02  0.45594000000E+02  0.51100000000E-03 0. -1.
    9900012    2    1    2    0    0 -0.20014058312E+01 -0.31241221510E+00  0.43353431338E+02  0.47787271487E+02  0.20000002017E+02 0.  0.
         12    1    1    2    0    0  0.20014058312E+01  0.31241221510E+00 -0.43353431338E+02  0.43400728513E+02  0.00000000000E+00 0. -1.
         11    1    3    3    0    0 -0.44521268721E+01  0.31873888208E+01  0.74939503129E+01  0.92811730258E+01  0.51100000000E-03 0. -1.
        -11    1    3    3    0    0  0.55967539208E+01  0.16847654761E+01  0.75162817884E+01  0.95213749713E+01  0.51100000000E-03 0.  1.
         12    1    3    3    0    0 -0.31460328798E+01 -0.51845665120E+01  0.28343199237E+02  0.28984723490E+02  0.00000000000E+00 0. -1.
</event>
<event>
 7    1  0.2682317E-010  0.4778727E+02  0.7816164E-02  0.1312668E+00
        -11   -1    0    0    0    0  0.00000000000E+00  0.00000000000E+00  0.45593999997E+02  0.45594000000E+02  0.51100000000E-03 0.  1.
         11   -1    0    0    0    0 -0.00000000000E+00 -0.00000000000E+00 -0.45593999997E+02  0.45594000000E+02  0.51100000000E-03 0. -1.
    9900012    2    1    2    0    0 -0.33549900139E+02  0.19032453422E+00  0.27531640267E+02  0.47787271452E+02  0.20000001857E+02 0.  0.
         12    1    1    2    0    0  0.33549900139E+02 -0.19032453422E+00 -0.27531640267E+02  0.43400728548E+02  0.00000000000E+00 0. -1.
         11    1    3    3    0    0 -0.17082205524E+02 -0.26889823491E+01  0.11717289521E+02  0.20888447659E+02  0.51100000000E-03 0. -1.
        -11    1    3    3    0    0 -0.10202540075E+02 -0.52168865397E+01  0.93694005663E+01  0.14801803822E+02  0.51100000000E-03 0.  1.
        -12    1    3    3    0    0 -0.62651545398E+01  0.80961934230E+01  0.64449501793E+01  0.12097019970E+02  0.00000000000E+00 0.  1.
</event>
<event>
 7    1  0.2682317E-010  0.4778727E+02  0.7816164E-02  0.1312668E+00
        -11   -1    0    0    0    0  0.00000000000E+00  0.00000000000E+00  0.45593999997E+02  0.45594000000E+02  0.51100000000E-03 0.  1.
         11   -1    0    0    0    0 -0.00000000000E+00 -0.00000000000E+00 -0.45593999997E+02  0.45594000000E+02  0.51100000000E-03 0. -1.
    9900012    2    1    2    0    0  0.13313271125E+02 -0.25055181882E+01  0.41232295914E+02  0.47787273788E+02  0.20000012507E+02 0.  0.
         12    1    1    2    0    0 -0.13313271125E+02  0.25055181882E+01 -0.41232295914E+02  0.43400726212E+02  0.00000000000E+00 0. -1.
         11    1    3    3    0    0  0.61365647877E+00 -0.31707258276E+01 -0.85020095864E-01  0.32306818515E+01  0.51100000000E-03 0. -1.
        -11    1    3    3    0    0  0.48563439537E+01  0.32779289639E+01  0.64125096563E+01  0.86861484699E+01  0.51100000000E-03 0.  1.
         12    1    3    3    0    0  0.78432706923E+01 -0.26127213244E+01  0.34904806354E+02  0.35870443466E+02  0.00000000000E+00 0. -1.
</event>
<event>
 7    1  0.2682317E-010  0.4778727E+02  0.7816164E-02  0.1312668E+00
        -11   -1    0    0    0    0  0.00000000000E+00  0.00000000000E+00  0.45593999997E+02  0.45594000000E+02  0.51100000000E-03 0.  1.
         11   -1    0    0    0    0 -0.00000000000E+00 -0.00000000000E+00 -0.45593999997E+02  0.45594000000E+02  0.51100000000E-03 0. -1.
    9900012    2    1    2    0    0  0.16803792692E+02  0.22259349167E+02  0.33253228673E+02  0.47787270843E+02  0.19999999082E+02 0.  0.
         12    1    1    2    0    0 -0.16803792692E+02 -0.22259349167E+02 -0.33253228673E+02  0.43400729157E+02  0.00000000000E+00 0. -1.
         11    1    3    3    0    0  0.15875964615E+02  0.13709232189E+02  0.17395851584E+02  0.27250778929E+02  0.51100000000E-03 0. -1.
        -11    1    3    3    0    0  0.17951942869E+01  0.82319416412E+01  0.53324401449E+01  0.99710833851E+01  0.51100000000E-03 0.  1.
        -12    1    3    3    0    0 -0.86736620979E+00  0.31817533596E+00  0.10524936945E+02  0.10565408529E+02  0.00000000000E+00 0.  1.
</event>
<event>
 7    1  0.2682317E-010  0.4778727E+02  0.7816164E-02  0.1312668E+00
        -11   -1    0    0    0    0  0.00000000000E+00  0.00000000000E+00  0.45593999997E+02  0.45594000000E+02  0.51100000000E-03 0.  1.
         11   -1    0    0    0    0 -0.00000000000E+00 -0.00000000000E+00 -0.45593999997E+02  0.45594000000E+02  0.51100000000E-03 0. -1.
    9900012    2    1    2    0    0 -0.38359509505E+02 -0.11882332211E+02  0.16461515856E+02  0.47787270830E+02  0.19999999021E+02 0.  0.
         12    1    1    2    0    0  0.38359509505E+02  0.11882332211E+02 -0.16461515856E+02  0.43400729170E+02  0.00000000000E+00 0. -1.
         11    1    3    3    0    0 -0.22345945758E+01 -0.59491646229E+01  0.46155803704E+01  0.78542698607E+01  0.51100000000E-03 0. -1.
        -11    1    3    3    0    0 -0.12577346536E+02 -0.51700036411E+00  0.92713978295E+01  0.15633801624E+02  0.51100000000E-03 0.  1.
        -12    1    3    3    0    0 -0.23547568394E+02 -0.54161672236E+01  0.25745376557E+01  0.24299199345E+02  0.00000000000E+00 0.  1.
</event>
<event>
 7    1  0.2682317E-010  0.4778727E+02  0.7816164E-02  0.1312668E+00
        -11   -1    0    0    0    0  0.00000000000E+00  0.00000000000E+00  0.45593999997E+02  0.45594000000E+02  0.51100000000E-03 0.  1.
         11   -1    0    0    0    0 -0.00000000000E+00 -0.00000000000E+00 -0.45593999997E+02  0.45594000000E+02  0.51100000000E-03 0. -1.
    9900012    2    1    2    0    0 -0.88522520097E+01  0.41213011684E+02 -0.10331917285E+02  0.47787271752E+02  0.20000003225E+02 0.  0.
         12    1    1    2    0    0  0.88522520097E+01 -0.41213011684E+02  0.10331917285E+02  0.43400728248E+02  0.00000000000E+00 0. -1.
         11    1    3    3    0    0 -0.25464523254E+01  0.12857569375E+02 -0.45500207526E+01  0.13874588238E+02  0.51100000000E-03 0. -1.
        -11    1    3    3    0    0 -0.83453103056E+01  0.29414839244E+02 -0.36767610018E+01  0.30796031296E+02  0.51100000000E-03 0.  1.
         12    1    3    3    0    0  0.20395106213E+01 -0.10593969352E+01 -0.21051355306E+01  0.31166522172E+01  0.00000000000E+00 0. -1.
</event>
<event>
 7    1  0.2682317E-010  0.4778727E+02  0.7816164E-02  0.1312668E+00
        -11   -1    0    0    0    0  0.00000000000E+00  0.00000000000E+00  0.45593999997E+02  0.45594000000E+02  0.51100000000E-03 0.  1.
         11   -1    0    0    0    0 -0.00000000000E+00 -0.00000000000E+00 -0.45593999997E+02  0.45594000000E+02  0.51100000000E-03 0. -1.
    9900012    2    1    2    0    0 -0.28705173381E+02  0.25067680909E+02  0.20766505522E+02  0.47787270092E+02  0.19999995656E+02 0.  0.
         12    1    1    2    0    0  0.28705173381E+02 -0.25067680909E+02 -0.20766505522E+02  0.43400729908E+02  0.00000000000E+00 0. -1.
         11    1    3    3    0    0 -0.54386961285E+01  0.45197601635E+01  0.55830919277E+01  0.90099147193E+01  0.51100000000E-03 0. -1.
        -11    1    3    3    0    0 -0.21182789391E+02  0.22947677967E+02  0.10174958795E+02  0.32845643200E+02  0.51100000000E-03 0.  1.
         12    1    3    3    0    0 -0.20836878610E+01 -0.23997572216E+01  0.50084547991E+01  0.59317121726E+01  0.00000000000E+00 0. -1.
</event>
<event>
 7    1  0.2682317E-010  0.4778727E+02  0.7816164E-02  0.1312668E+00
        -11   -1    0    0    0    0  0.00000000000E+00  0.00000000000E+00  0.45593999997E+02  0.45594000000E+02  0.51100000000E-03 0.  1.
         11   -1    0    0    0    0 -0.00000000000E+00 -0.00000000000E+00 -0.45593999997E+02  0.45594000000E+02  0.51100000000E-03 0. -1.
    9900012    2    1    2    0    0 -0.17047108963E+02 -0.20681141467E+02  0.34136638003E+02  0.47787267397E+02  0.19999983370E+02 0.  0.
         12    1    1    2    0    0  0.17047108963E+02  0.20681141467E+02 -0.34136638003E+02  0.43400732603E+02  0.00000000000E+00 0. -1.
         11    1    3    3    0    0 -0.38243798925E+01 -0.70051675427E+00  0.14781042715E+01  0.41594948953E+01  0.51100000000E-03 0. -1.
        -11    1    3    3    0    0 -0.37508090875E+01  0.24297999480E+01  0.66615591617E+01  0.80217745746E+01  0.51100000000E-03 0.  1.
        -12    1    3    3    0    0 -0.94719199829E+01 -0.22410424660E+02  0.25996974569E+02  0.35605997927E+02  0.00000000000E+00 0.  1.
</event>
<event>
 7    1  0.2682317E-010  0.4778727E+02  0.7816164E-02  0.1312668E+00
        -11   -1    0    0    0    0  0.00000000000E+00  0.00000000000E+00  0.45593999997E+02  0.45594000000E+02  0.51100000000E-03 0.  1.
         11   -1    0    0    0    0 -0.00000000000E+00 -0.00000000000E+00 -0.45593999997E+02  0.45594000000E+02  0.51100000000E-03 0. -1.
    9900012    2    1    2    0    0 -0.33875999420E+02 -0.15573105036E+02  0.22215267509E+02  0.47787273650E+02  0.20000011881E+02 0.  0.
         12    1    1    2    0    0  0.33875999420E+02  0.15573105036E+02 -0.22215267509E+02  0.43400726350E+02  0.00000000000E+00 0. -1.
         11    1    3    3    0    0 -0.71863339242E+01 -0.76438553491E+01  0.10820220303E+02  0.15071466005E+02  0.51100000000E-03 0. -1.
        -11    1    3    3    0    0 -0.23845772682E+02 -0.10876740248E+02  0.11494044790E+02  0.28618829800E+02  0.51100000000E-03 0.  1.
         12    1    3    3    0    0 -0.28438928141E+01  0.29474905608E+01 -0.98997584281E-01  0.40969778454E+01  0.00000000000E+00 0. -1.
</event>
<event>
 7    1  0.2682317E-010  0.4778727E+02  0.7816164E-02  0.1312668E+00
        -11   -1    0    0    0    0  0.00000000000E+00  0.00000000000E+00  0.45593999997E+02  0.45594000000E+02  0.51100000000E-03 0.  1.
         11   -1    0    0    0    0 -0.00000000000E+00 -0.00000000000E+00 -0.45593999997E+02  0.45594000000E+02  0.51100000000E-03 0. -1.
    9900012    2    1    2    0    0  0.10653538928E+02 -0.41977765868E+02  0.28271383941E+01  0.47787269240E+02  0.19999991774E+02 0.  0.
         12    1    1    2    0    0 -0.10653538928E+02  0.41977765868E+02 -0.28271383941E+01  0.43400730760E+02  0.00000000000E+00 0. -1.
         11    1    3    3    0    0 -0.29931269161E+01 -0.59286629596E+01  0.88599050800E+00  0.67002113897E+01  0.51100000000E-03 0. -1.
        -11    1    3    3    0    0  0.45046299866E+01 -0.14626362913E+02  0.76441577149E+01  0.17107171912E+02  0.51100000000E-03 0.  1.
         12    1    3    3    0    0  0.91420358576E+01 -0.21422739995E+02 -0.57030098288E+01  0.23979885939E+02  0.00000000000E+00 0. -1.
</event>
<event>
 7    1  0.2682317E-010  0.4778727E+02  0.7816164E-02  0.1312668E+00
        -11   -1    0    0    0    0  0.00000000000E+00  0.00000000000E+00  0.45593999997E+02  0.45594000000E+02  0.51100000000E-03 0. -1.
         11   -1    0    0    0    0 -0.00000000000E+00 -0.00000000000E+00 -0.45593999997E+02  0.45594000000E+02  0.51100000000E-03 0.  1.
    9900012    2    1    2    0    0 -0.23016250659E+02  0.35616718894E+02 -0.92371506042E+01  0.47787269471E+02  0.19999992828E+02 0.  0.
         12    1    1    2    0    0  0.23016250659E+02 -0.35616718894E+02  0.92371506042E+01  0.43400730529E+02  0.00000000000E+00 0. -1.
         11    1    3    3    0    0 -0.26786100218E+01  0.42676371332E+01  0.38233413808E+01  0.63249994407E+01  0.51100000000E-03 0. -1.
        -11    1    3    3    0    0  0.58556311907E+00  0.58352335541E+01 -0.44486715983E+01  0.73609451871E+01  0.51100000000E-03 0.  1.
        -12    1    3    3    0    0 -0.20923203756E+02  0.25513848206E+02 -0.86118203868E+01  0.34101324844E+02  0.00000000000E+00 0.  1.
</event>
<event>
 7    1  0.2682317E-010  0.4778727E+02  0.7816164E-02  0.1312668E+00
        -11   -1    0    0    0    0  0.00000000000E+00  0.00000000000E+00  0.45593999997E+02  0.45594000000E+02  0.51100000000E-03 0.  1.
         11   -1    0    0    0    0 -0.00000000000E+00 -0.00000000000E+00 -0.45593999997E+02  0.45594000000E+02  0.51100000000E-03 0. -1.
    9900012    2    1    2    0    0  0.28263867088E+02 -0.31886680900E+01  0.32781238158E+02  0.47787270028E+02  0.19999995364E+02 0.  0.
         12    1    1    2    0    0 -0.28263867088E+02  0.31886680900E+01 -0.32781238158E+02  0.43400729972E+02  0.00000000000E+00 0. -1.
         11    1    3    3    0    0  0.11962367719E+02  0.23512399911E+01  0.64718198345E+01  0.13802573063E+02  0.51100000000E-03 0. -1.
        -11    1    3    3    0    0  0.44147468758E+01  0.39717702448E+01  0.10322150895E+02  0.11908473799E+02  0.51100000000E-03 0.  1.
        -12    1    3    3    0    0  0.11886752493E+02 -0.95116783259E+01  0.15987267428E+02  0.22076223165E+02  0.00000000000E+00 0.  1.
</event>
<event>
 7    1  0.2682317E-010  0.4778727E+02  0.7816164E-02  0.1312668E+00
        -11   -1    0    0    0    0  0.00000000000E+00  0.00000000000E+00  0.45593999997E+02  0.45594000000E+02  0.51100000000E-03 0.  1.
         11   -1    0    0    0    0 -0.00000000000E+00 -0.00000000000E+00 -0.45593999997E+02  0.45594000000E+02  0.51100000000E-03 0. -1.
    9900012    2    1    2    0    0  0.22112177197E+01 -0.16105879686E+02  0.40240956385E+02  0.47787269419E+02  0.19999992587E+02 0.  0.
         12    1    1    2    0    0 -0.22112177197E+01  0.16105879686E+02 -0.40240956385E+02  0.43400730581E+02  0.00000000000E+00 0. -1.
         11    1    3    3    0    0 -0.27469274118E+00  0.14092422297E+01  0.18876168363E+00  0.14481198149E+01  0.51100000000E-03 0. -1.
        -11    1    3    3    0    0  0.20351398092E+01 -0.40588877174E+01  0.27693283286E+02  0.28063041585E+02  0.51100000000E-03 0.  1.
         12    1    3    3    0    0  0.45077065166E+00 -0.13456234198E+02  0.12358911415E+02  0.18276108019E+02  0.00000000000E+00 0. -1.
</event>
<event>
 7    1  0.2682317E-010  0.4778727E+02  0.7816164E-02  0.1312668E+00
        -11   -1    0    0    0    0  0.00000000000E+00  0.00000000000E+00  0.45593999997E+02  0.45594000000E+02  0.51100000000E-03 0.  1.
         11   -1    0    0    0    0 -0.00000000000E+00 -0.00000000000E+00 -0.45593999997E+02  0.45594000000E+02  0.51100000000E-03 0. -1.
    9900012    2    1    2    0    0  0.10910387664E+02 -0.14649467001E+02  0.39369783303E+02  0.47787270977E+02  0.19999999693E+02 0.  0.
         12    1    1    2    0    0 -0.10910387664E+02  0.14649467001E+02 -0.39369783303E+02  0.43400729023E+02  0.00000000000E+00 0. -1.
         11    1    3    3    0    0  0.75477176427E+01 -0.33290777380E+01  0.13849046557E+02  0.16119767089E+02  0.51100000000E-03 0. -1.
        -11    1    3    3    0    0  0.71332753232E+01 -0.54823586256E+01  0.56675120399E+01  0.10632994212E+02  0.51100000000E-03 0.  1.
         12    1    3    3    0    0 -0.37706053019E+01 -0.58380306371E+01  0.19853224707E+02  0.21034509676E+02  0.00000000000E+00 0. -1.
</event>
<event>
 7    1  0.2682317E-010  0.4778727E+02  0.7816164E-02  0.1312668E+00
        -11   -1    0    0    0    0  0.00000000000E+00  0.00000000000E+00  0.45593999997E+02  0.45594000000E+02  0.51100000000E-03 0.  1.
         11   -1    0    0    0    0 -0.00000000000E+00 -0.00000000000E+00 -0.45593999997E+02  0.45594000000E+02  0.51100000000E-03 0. -1.
    9900012    2    1    2    0    0  0.13383865248E+02  0.29293545131E+02  0.29092670383E+02  0.47787272986E+02  0.20000008852E+02 0.  0.
         12    1    1    2    0    0 -0.13383865248E+02 -0.29293545131E+02 -0.29092670383E+02  0.43400727014E+02  0.00000000000E+00 0. -1.
         11    1    3    3    0    0  0.19113700428E+01 -0.13662376700E+01  0.70201052715E+00  0.24520929536E+01  0.51100000000E-03 0. -1.
        -11    1    3    3    0    0 -0.26047118083E+01  0.93494237554E+01  0.63371069330E+01  0.11591167875E+02  0.51100000000E-03 0.  1.
        -12    1    3    3    0    0  0.14077207013E+02  0.21310359046E+02  0.22053552923E+02  0.33744012157E+02  0.00000000000E+00 0.  1.
</event>
<event>
 7    1  0.2682317E-010  0.4778727E+02  0.7816164E-02  0.1312668E+00
        -11   -1    0    0    0    0  0.00000000000E+00  0.00000000000E+00  0.45593999997E+02  0.45594000000E+02  0.51100000000E-03 0.  1.
         11   -1    0    0    0    0 -0.00000000000E+00 -0.00000000000E+00 -0.45593999997E+02  0.45594000000E+02  0.51100000000E-03 0. -1.
    9900012    2    1    2    0    0  0.41420821017E+02  0.11016939116E+01  0.12912198045E+02  0.47787274181E+02  0.20000014303E+02 0.  0.
         12    1    1    2    0    0 -0.41420821017E+02 -0.11016939116E+01 -0.12912198045E+02  0.43400725819E+02  0.00000000000E+00 0. -1.
         11    1    3    3    0    0  0.30195216709E+02  0.65262503478E+01  0.63938207669E+01  0.31547171029E+02  0.51100000000E-03 0. -1.
        -11    1    3    3    0    0  0.10421455223E+02 -0.12886397552E+01  0.56995952787E+01  0.11947916471E+02  0.51100000000E-03 0.  1.
         12    1    3    3    0    0  0.80414908486E+00 -0.41359166811E+01  0.81878199958E+00  0.42921866812E+01  0.00000000000E+00 0. -1.
</event>
<event>
 7    1  0.2682317E-010  0.4778727E+02  0.7816164E-02  0.1312668E+00
        -11   -1    0    0    0    0  0.00000000000E+00  0.00000000000E+00  0.45593999997E+02  0.45594000000E+02  0.51100000000E-03 0.  1.
         11   -1    0    0    0    0 -0.00000000000E+00 -0.00000000000E+00 -0.45593999997E+02  0.45594000000E+02  0.51100000000E-03 0. -1.
    9900012    2    1    2    0    0  0.33330545253E+02 -0.27772348093E+02  0.11809779613E+01  0.47787271039E+02  0.19999999973E+02 0.  0.
         12    1    1    2    0    0 -0.33330545253E+02  0.27772348093E+02 -0.11809779613E+01  0.43400728961E+02  0.00000000000E+00 0. -1.
         11    1    3    3    0    0  0.25887463409E+02 -0.13206480039E+02 -0.54070910418E+01  0.29560252208E+02  0.51100000000E-03 0. -1.
        -11    1    3    3    0    0  0.50795173602E+01 -0.62152026346E+01  0.48427059846E+01  0.93745422244E+01  0.51100000000E-03 0.  1.
        -12    1    3    3    0    0  0.23635644837E+01 -0.83506654187E+01  0.17453630185E+01  0.88524766066E+01  0.00000000000E+00 0.  1.
</event>
<event>
 7    1  0.2682317E-010  0.4778727E+02  0.7816164E-02  0.1312668E+00
        -11   -1    0    0    0    0  0.00000000000E+00  0.00000000000E+00  0.45593999997E+02  0.45594000000E+02  0.51100000000E-03 0.  1.
         11   -1    0    0    0    0 -0.00000000000E+00 -0.00000000000E+00 -0.45593999997E+02  0.45594000000E+02  0.51100000000E-03 0. -1.
    9900012    2    1    2    0    0  0.28907675102E+02  0.16031166481E+02  0.28124217902E+02  0.47787267159E+02  0.19999982286E+02 0.  0.
         12    1    1    2    0    0 -0.28907675102E+02 -0.16031166481E+02 -0.28124217902E+02  0.43400732841E+02  0.00000000000E+00 0. -1.
         11    1    3    3    0    0  0.14272702971E+02  0.17253110093E+02  0.16771680705E+02  0.27976224405E+02  0.51100000000E-03 0.  1.
        -11    1    3    3    0    0  0.18494185743E+00  0.45076722638E+00  0.29954195428E+01  0.30347871559E+01  0.51100000000E-03 0. -1.
        -12    1    3    3    0    0  0.14450030273E+02 -0.16727108386E+01  0.83571176537E+01  0.16776255599E+02  0.00000000000E+00 0.  1.
</event>
<event>
 7    1  0.2682317E-010  0.4778727E+02  0.7816164E-02  0.1312668E+00
        -11   -1    0    0    0    0  0.00000000000E+00  0.00000000000E+00  0.45593999997E+02  0.45594000000E+02  0.51100000000E-03 0.  1.
         11   -1    0    0    0    0 -0.00000000000E+00 -0.00000000000E+00 -0.45593999997E+02  0.45594000000E+02  0.51100000000E-03 0. -1.
    9900012    2    1    2    0    0  0.20907584911E+02 -0.28921284280E+02  0.24699305094E+02  0.47787268862E+02  0.19999990048E+02 0.  0.
         12    1    1    2    0    0 -0.20907584911E+02  0.28921284280E+02 -0.24699305094E+02  0.43400731138E+02  0.00000000000E+00 0. -1.
         11    1    3    3    0    0  0.26175268288E+01 -0.14980567548E+01  0.75500811321E+01  0.81301504355E+01  0.51100000000E-03 0. -1.
        -11    1    3    3    0    0  0.15124131435E+02 -0.19106713846E+02  0.18580815140E+02  0.30643964449E+02  0.51100000000E-03 0.  1.
         12    1    3    3    0    0  0.31659266481E+01 -0.83165136787E+01 -0.14315911784E+01  0.90131539769E+01  0.00000000000E+00 0. -1.
</event>
<event>
 7    1  0.2682317E-010  0.4778727E+02  0.7816164E-02  0.1312668E+00
        -11   -1    0    0    0    0  0.00000000000E+00  0.00000000000E+00  0.45593999997E+02  0.45594000000E+02  0.51100000000E-03 0.  1.
         11   -1    0    0    0    0 -0.00000000000E+00 -0.00000000000E+00 -0.45593999997E+02  0.45594000000E+02  0.51100000000E-03 0. -1.
    9900012    2    1    2    0    0 -0.83260066099E+01 -0.40892080243E+02 -0.11922196032E+02  0.47787269927E+02  0.19999994903E+02 0.  0.
         12    1    1    2    0    0  0.83260066099E+01  0.40892080243E+02  0.11922196032E+02  0.43400730073E+02  0.00000000000E+00 0. -1.
         11    1    3    3    0    0 -0.33422293287E+01 -0.17613990620E+02 -0.72863630745E+01  0.19352370645E+02  0.51100000000E-03 0. -1.
        -11    1    3    3    0    0  0.88038056093E-01 -0.19768121035E+02 -0.80969042217E+01  0.21362261542E+02  0.51100000000E-03 0.  1.
         12    1    3    3    0    0 -0.50718153372E+01 -0.35099685879E+01  0.34610712643E+01  0.70726377399E+01  0.00000000000E+00 0. -1.
</event>
<event>
 7    1  0.2682317E-010  0.4778727E+02  0.7816164E-02  0.1312668E+00
        -11   -1    0    0    0    0  0.00000000000E+00  0.00000000000E+00  0.45593999997E+02  0.45594000000E+02  0.51100000000E-03 0.  1.
         11   -1    0    0    0    0 -0.00000000000E+00 -0.00000000000E+00 -0.45593999997E+02  0.45594000000E+02  0.51100000000E-03 0. -1.
    9900012    2    1    2    0    0  0.19231505356E+02  0.33178191910E+02  0.20321915915E+02  0.47787268634E+02  0.19999989011E+02 0.  0.
         12    1    1    2    0    0 -0.19231505356E+02 -0.33178191910E+02 -0.20321915915E+02  0.43400731366E+02  0.00000000000E+00 0. -1.
         11    1    3    3    0    0  0.21462255742E+01  0.41410897562E+00  0.31515648069E+01  0.38353789190E+01  0.51100000000E-03 0. -1.
        -11    1    3    3    0    0  0.10206487419E+02  0.61802835134E+01  0.10009248832E+02  0.15574124444E+02  0.51100000000E-03 0.  1.
         12    1    3    3    0    0  0.68787923623E+01  0.26583799421E+02  0.71611022760E+01  0.28377765272E+02  0.00000000000E+00 0. -1.
</event>
<event>
 7    1  0.2682317E-010  0.4778725E+02  0.7816164E-02  0.1312668E+00
        -11   -1    0    0    0    0  0.00000000000E+00  0.00000000000E+00  0.45593999997E+02  0.45594000000E+02  0.51100000000E-03 0.  1.
         11   -1    0    0    0    0 -0.00000000000E+00 -0.00000000000E+00 -0.45593999997E+02  0.45594000000E+02  0.51100000000E-03 0. -1.
    9900012    2    1    2    0    0 -0.98617121552E+01  0.32937614167E+02  0.26485566581E+02  0.47787250804E+02  0.19999907714E+02 0.  0.
         12    1    1    2    0    0  0.98617121552E+01 -0.32937614167E+02 -0.26485566581E+02  0.43400749196E+02  0.00000000000E+00 0. -1.
         11    1    3    3    0    0 -0.93825935892E+00 -0.83364660021E+00  0.18326160379E+00  0.12684172638E+01  0.51100000000E-03 0. -1.
        -11    1    3    3    0    0 -0.41988275441E-01  0.22299846307E+02  0.92820978654E+01  0.24154549248E+02  0.51100000000E-03 0.  1.
         12    1    3    3    0    0 -0.88814645209E+01  0.11471414461E+02  0.17020207112E+02  0.22364284292E+02  0.00000000000E+00 0. -1.
</event>
<event>
 7    1  0.2682317E-010  0.4778727E+02  0.7816164E-02  0.1312668E+00
        -11   -1    0    0    0    0  0.00000000000E+00  0.00000000000E+00  0.45593999997E+02  0.45594000000E+02  0.51100000000E-03 0.  1.
         11   -1    0    0    0    0 -0.00000000000E+00 -0.00000000000E+00 -0.45593999997E+02  0.45594000000E+02  0.51100000000E-03 0. -1.
    9900012    2    1    2    0    0  0.30027332335E+01  0.15795198648E+02  0.40312758376E+02  0.47787271952E+02  0.20000004140E+02 0.  0.
         12    1    1    2    0    0 -0.30027332335E+01 -0.15795198648E+02 -0.40312758376E+02  0.43400728048E+02  0.00000000000E+00 0. -1.
         11    1    3    3    0    0 -0.81919346823E+00  0.40870729751E+00 -0.14224114184E+01  0.16915596643E+01  0.51100000000E-03 0. -1.
        -11    1    3    3    0    0 -0.19125355460E+01  0.13611112263E+01  0.16460286808E+02  0.16626829464E+02  0.51100000000E-03 0.  1.
         12    1    3    3    0    0  0.57344622478E+01  0.14025380124E+02  0.25274882986E+02  0.29468882824E+02  0.00000000000E+00 0. -1.
</event>
<event>
 7    1  0.2682317E-010  0.4778729E+02  0.7816164E-02  0.1312668E+00
        -11   -1    0    0    0    0  0.00000000000E+00  0.00000000000E+00  0.45593999997E+02  0.45594000000E+02  0.51100000000E-03 0.  1.
         11   -1    0    0    0    0 -0.00000000000E+00 -0.00000000000E+00 -0.45593999997E+02  0.45594000000E+02  0.51100000000E-03 0. -1.
    9900012    2    1    2    0    0 -0.10501817444E+02  0.21065419640E+02  0.36463426216E+02  0.47787291185E+02  0.20000091827E+02 0.  0.
         12    1    1    2    0    0  0.10501817444E+02 -0.21065419640E+02 -0.36463426216E+02  0.43400708815E+02  0.00000000000E+00 0. -1.
         11    1    3    3    0    0  0.17141763596E+01  0.40040457212E+01  0.44565853527E+00  0.43782867106E+01  0.51100000000E-03 0. -1.
        -11    1    3    3    0    0 -0.12921093441E+01  0.69932943107E+01  0.41137186391E+01  0.82157405738E+01  0.51100000000E-03 0.  1.
        -12    1    3    3    0    0 -0.10923884459E+02  0.10068079608E+02  0.31904049042E+02  0.35193263900E+02  0.00000000000E+00 0.  1.
</event>
<event>
 7    1  0.2682317E-010  0.4778727E+02  0.7816164E-02  0.1312668E+00
        -11   -1    0    0    0    0  0.00000000000E+00  0.00000000000E+00  0.45593999997E+02  0.45594000000E+02  0.51100000000E-03 0. -1.
         11   -1    0    0    0    0 -0.00000000000E+00 -0.00000000000E+00 -0.45593999997E+02  0.45594000000E+02  0.51100000000E-03 0.  1.
    9900012    2    1    2    0    0 -0.37750573513E+02 -0.54585034432E+01 -0.20705600813E+02  0.47787274598E+02  0.20000016203E+02 0.  0.
         12    1    1    2    0    0  0.37750573513E+02  0.54585034432E+01  0.20705600813E+02  0.43400725402E+02  0.00000000000E+00 0. -1.
         11    1    3    3    0    0 -0.13892722114E+01 -0.21842722236E+00 -0.59944710893E+01  0.61572292170E+01  0.51100000000E-03 0. -1.
        -11    1    3    3    0    0 -0.65150466124E+00  0.23214096626E+01 -0.13260819034E+01  0.27517075827E+01  0.51100000000E-03 0.  1.
        -12    1    3    3    0    0 -0.35709796640E+02 -0.75614858834E+01 -0.13385047820E+02  0.38878337799E+02  0.00000000000E+00 0.  1.
</event>
<event>
 7    1  0.2682317E-010  0.4778726E+02  0.7816164E-02  0.1312668E+00
        -11   -1    0    0    0    0  0.00000000000E+00  0.00000000000E+00  0.45593999997E+02  0.45594000000E+02  0.51100000000E-03 0. -1.
         11   -1    0    0    0    0 -0.00000000000E+00 -0.00000000000E+00 -0.45593999997E+02  0.45594000000E+02  0.51100000000E-03 0.  1.
    9900012    2    1    2    0    0 -0.39403080735E+02 -0.17434884049E+02 -0.52005818053E+01  0.47787262630E+02  0.19999961633E+02 0.  0.
         12    1    1    2    0    0  0.39403080735E+02  0.17434884049E+02  0.52005818053E+01  0.43400737370E+02  0.00000000000E+00 0. -1.
         11    1    3    3    0    0 -0.17320941151E+02 -0.28013341524E+01  0.33958029365E+01  0.17871596270E+02  0.51100000000E-03 0. -1.
        -11    1    3    3    0    0 -0.20780324062E+01 -0.20702156344E+01  0.24655187729E+01  0.38318134786E+01  0.51100000000E-03 0.  1.
        -12    1    3    3    0    0 -0.20004107178E+02 -0.12563334262E+02 -0.11061903515E+02  0.26083852881E+02  0.00000000000E+00 0.  1.
</event>
<event>
 7    1  0.2682317E-010  0.4778727E+02  0.7816164E-02  0.1312668E+00
        -11   -1    0    0    0    0  0.00000000000E+00  0.00000000000E+00  0.45593999997E+02  0.45594000000E+02  0.51100000000E-03 0.  1.
         11   -1    0    0    0    0 -0.00000000000E+00 -0.00000000000E+00 -0.45593999997E+02  0.45594000000E+02  0.51100000000E-03 0. -1.
    9900012    2    1    2    0    0  0.21477232356E+02 -0.93814248312E+01  0.36528625657E+02  0.47787272657E+02  0.20000007352E+02 0.  0.
         12    1    1    2    0    0 -0.21477232356E+02  0.93814248312E+01 -0.36528625657E+02  0.43400727343E+02  0.00000000000E+00 0. -1.
         11    1    3    3    0    0  0.73896055467E+00 -0.39844353891E+01  0.44014463974E+01  0.59828520558E+01  0.51100000000E-03 0. -1.
        -11    1    3    3    0    0 -0.16647019067E+01 -0.38526613783E+01  0.64223928542E+01  0.76721158991E+01  0.51100000000E-03 0.  1.
        -12    1    3    3    0    0  0.22402973708E+02 -0.15443280638E+01  0.25704786405E+02  0.34132304702E+02  0.00000000000E+00 0.  1.
</event>
<event>
 7    1  0.2682317E-010  0.4778727E+02  0.7816164E-02  0.1312668E+00
        -11   -1    0    0    0    0  0.00000000000E+00  0.00000000000E+00  0.45593999997E+02  0.45594000000E+02  0.51100000000E-03 0.  1.
         11   -1    0    0    0    0 -0.00000000000E+00 -0.00000000000E+00 -0.45593999997E+02  0.45594000000E+02  0.51100000000E-03 0. -1.
    9900012    2    1    2    0    0 -0.23669029126E+02 -0.32060675824E+02  0.17190502582E+02  0.47787271284E+02  0.20000001093E+02 0.  0.
         12    1    1    2    0    0  0.23669029126E+02  0.32060675824E+02 -0.17190502582E+02  0.43400728716E+02  0.00000000000E+00 0. -1.
         11    1    3    3    0    0 -0.14796198437E+01 -0.65602418662E+01  0.80407751832E+01  0.10482371584E+02  0.51100000000E-03 0. -1.
        -11    1    3    3    0    0 -0.17232176656E+02 -0.10088727782E+02  0.54392451668E+01  0.20695790123E+02  0.51100000000E-03 0.  1.
         12    1    3    3    0    0 -0.49572326265E+01 -0.15411706175E+02  0.37104822322E+01  0.16609109577E+02  0.00000000000E+00 0. -1.
</event>
<event>
 7    1  0.2682317E-010  0.4778727E+02  0.7816164E-02  0.1312668E+00
        -11   -1    0    0    0    0  0.00000000000E+00  0.00000000000E+00  0.45593999997E+02  0.45594000000E+02  0.51100000000E-03 0.  1.
         11   -1    0    0    0    0 -0.00000000000E+00 -0.00000000000E+00 -0.45593999997E+02  0.45594000000E+02  0.51100000000E-03 0. -1.
    9900012    2    1    2    0    0 -0.20858792225E+01  0.13637097799E+02  0.41149751690E+02  0.47787269676E+02  0.19999993760E+02 0.  0.
         12    1    1    2    0    0  0.20858792225E+01 -0.13637097799E+02 -0.41149751690E+02  0.43400730324E+02  0.00000000000E+00 0. -1.
         11    1    3    3    0    0 -0.30427005024E+01  0.62135295783E+01  0.14693257798E+02  0.16240621944E+02  0.51100000000E-03 0. -1.
        -11    1    3    3    0    0 -0.33071585294E+01 -0.33528649730E+01  0.12780195142E+02  0.13620293286E+02  0.51100000000E-03 0.  1.
         12    1    3    3    0    0  0.42639798092E+01  0.10776433194E+02  0.13676298750E+02  0.17926354445E+02  0.00000000000E+00 0. -1.
</event>
<event>
 7    1  0.2682317E-010  0.4778728E+02  0.7816164E-02  0.1312668E+00
        -11   -1    0    0    0    0  0.00000000000E+00  0.00000000000E+00  0.45593999997E+02  0.45594000000E+02  0.51100000000E-03 0. -1.
         11   -1    0    0    0    0 -0.00000000000E+00 -0.00000000000E+00 -0.45593999997E+02  0.45594000000E+02  0.51100000000E-03 0.  1.
    9900012    2    1    2    0    0  0.95971168519E+01 -0.87585177593E+01 -0.41410216433E+02  0.47787282146E+02  0.20000050616E+02 0.  0.
         12    1    1    2    0    0 -0.95971168519E+01  0.87585177593E+01  0.41410216433E+02  0.43400717854E+02  0.00000000000E+00 0. -1.
         11    1    3    3    0    0  0.53498566020E+01 -0.45983766004E+01 -0.16791128973E+02  0.18212853853E+02  0.51100000000E-03 0.  1.
        -11    1    3    3    0    0  0.26981330890E+01  0.52369441204E+01 -0.14635689052E+02  0.15776846966E+02  0.51100000000E-03 0. -1.
         12    1    3    3    0    0  0.15491271609E+01 -0.93970852793E+01 -0.99833984076E+01  0.13797581327E+02  0.00000000000E+00 0. -1.
</event>
<event>
 7    1  0.2682317E-010  0.4778727E+02  0.7816164E-02  0.1312668E+00
        -11   -1    0    0    0    0  0.00000000000E+00  0.00000000000E+00  0.45593999997E+02  0.45594000000E+02  0.51100000000E-03 0. -1.
         11   -1    0    0    0    0 -0.00000000000E+00 -0.00000000000E+00 -0.45593999997E+02  0.45594000000E+02  0.51100000000E-03 0.  1.
    9900012    2    1    2    0    0 -0.38621634286E+02 -0.15348066620E+02  0.12507173882E+02  0.47787272098E+02  0.20000004803E+02 0.  0.
         12    1    1    2    0    0  0.38621634286E+02  0.15348066620E+02 -0.12507173882E+02  0.43400727902E+02  0.00000000000E+00 0. -1.
         11    1    3    3    0    0 -0.96253406574E+00 -0.17223064403E+01  0.47465142691E+01  0.51402538138E+01  0.51100000000E-03 0. -1.
        -11    1    3    3    0    0 -0.17309183313E+02 -0.79026497829E+01  0.98112561076E+01  0.21408420008E+02  0.51100000000E-03 0.  1.
         12    1    3    3    0    0 -0.20349916908E+02 -0.57231103968E+01 -0.20505964949E+01  0.21238598276E+02  0.00000000000E+00 0. -1.
</event>
<event>
 7    1  0.2682317E-010  0.4778727E+02  0.7816164E-02  0.1312668E+00
        -11   -1    0    0    0    0  0.00000000000E+00  0.00000000000E+00  0.45593999997E+02  0.45594000000E+02  0.51100000000E-03 0.  1.
         11   -1    0    0    0    0 -0.00000000000E+00 -0.00000000000E+00 -0.45593999997E+02  0.45594000000E+02  0.51100000000E-03 0. -1.
    9900012    2    1    2    0    0 -0.40761698870E+02 -0.10928173300E+02  0.10133218597E+02  0.47787272061E+02  0.20000004636E+02 0.  0.
         12    1    1    2    0    0  0.40761698870E+02  0.10928173300E+02 -0.10133218597E+02  0.43400727939E+02  0.00000000000E+00 0. -1.
         11    1    3    3    0    0 -0.72126093601E+01  0.26101463658E+01  0.21357368330E+01  0.79621586214E+01  0.51100000000E-03 0. -1.
        -11    1    3    3    0    0 -0.29421153124E+02 -0.54638341247E+01  0.66895312431E+01  0.30662804226E+02  0.51100000000E-03 0.  1.
         12    1    3    3    0    0 -0.41279363868E+01 -0.80744855414E+01  0.13079505205E+01  0.91623092142E+01  0.00000000000E+00 0. -1.
</event>
<event>
 7    1  0.2682317E-010  0.4778727E+02  0.7816164E-02  0.1312668E+00
        -11   -1    0    0    0    0  0.00000000000E+00  0.00000000000E+00  0.45593999997E+02  0.45594000000E+02  0.51100000000E-03 0.  1.
         11   -1    0    0    0    0 -0.00000000000E+00 -0.00000000000E+00 -0.45593999997E+02  0.45594000000E+02  0.51100000000E-03 0. -1.
    9900012    2    1    2    0    0 -0.42909777161E+02 -0.64896687165E+01 -0.50836164830E+00  0.47787271808E+02  0.20000003482E+02 0.  0.
         12    1    1    2    0    0  0.42909777161E+02  0.64896687165E+01  0.50836164830E+00  0.43400728192E+02  0.00000000000E+00 0. -1.
         11    1    3    3    0    0 -0.24708486530E+02 -0.11012072567E+02 -0.63004514327E+01  0.27775362056E+02  0.51100000000E-03 0. -1.
        -11    1    3    3    0    0 -0.35505845046E+01  0.33044034912E+00 -0.34780296608E+00  0.35828491892E+01  0.51100000000E-03 0.  1.
         12    1    3    3    0    0 -0.14650706126E+02  0.41919635014E+01  0.61398927504E+01  0.16429060563E+02  0.00000000000E+00 0. -1.
</event>
<event>
 7    1  0.2682317E-010  0.4778727E+02  0.7816164E-02  0.1312668E+00
        -11   -1    0    0    0    0  0.00000000000E+00  0.00000000000E+00  0.45593999997E+02  0.45594000000E+02  0.51100000000E-03 0.  1.
         11   -1    0    0    0    0 -0.00000000000E+00 -0.00000000000E+00 -0.45593999997E+02  0.45594000000E+02  0.51100000000E-03 0. -1.
    9900012    2    1    2    0    0 -0.38089686136E+02  0.19049957855E+02  0.83605072238E+01  0.47787272296E+02  0.20000005704E+02 0.  0.
         12    1    1    2    0    0  0.38089686136E+02 -0.19049957855E+02 -0.83605072238E+01  0.43400727704E+02  0.00000000000E+00 0. -1.
         11    1    3    3    0    0 -0.83338950984E+01  0.51189163864E+01  0.48058366414E+01  0.10897393201E+02  0.51100000000E-03 0. -1.
        -11    1    3    3    0    0 -0.29276390036E+02  0.13401188781E+02 -0.10648606419E+01  0.32215412503E+02  0.51100000000E-03 0.  1.
         12    1    3    3    0    0 -0.47940100209E+00  0.52985268771E+00  0.46195312242E+01  0.46744665924E+01  0.00000000000E+00 0. -1.
</event>
<event>
 7    1  0.2682317E-010  0.4778727E+02  0.7816164E-02  0.1312668E+00
        -11   -1    0    0    0    0  0.00000000000E+00  0.00000000000E+00  0.45593999997E+02  0.45594000000E+02  0.51100000000E-03 0.  1.
         11   -1    0    0    0    0 -0.00000000000E+00 -0.00000000000E+00 -0.45593999997E+02  0.45594000000E+02  0.51100000000E-03 0. -1.
    9900012    2    1    2    0    0  0.14880778544E+02 -0.39561793859E+02  0.98514049037E+01  0.47787270950E+02  0.19999999572E+02 0.  0.
         12    1    1    2    0    0 -0.14880778544E+02  0.39561793859E+02 -0.98514049037E+01  0.43400729050E+02  0.00000000000E+00 0. -1.
         11    1    3    3    0    0  0.78135557728E+01 -0.25081427819E+02 -0.99829290099E+00  0.26289280405E+02  0.51100000000E-03 0. -1.
        -11    1    3    3    0    0  0.20404269469E+01 -0.11338381141E+02  0.34690399051E+01  0.12031478178E+02  0.51100000000E-03 0.  1.
        -12    1    3    3    0    0  0.50267958243E+01 -0.31419848997E+01  0.73806578996E+01  0.94665123673E+01  0.00000000000E+00 0.  1.
</event>
<event>
 7    1  0.2682317E-010  0.4778727E+02  0.7816164E-02  0.1312668E+00
        -11   -1    0    0    0    0  0.00000000000E+00  0.00000000000E+00  0.45593999997E+02  0.45594000000E+02  0.51100000000E-03 0. -1.
         11   -1    0    0    0    0 -0.00000000000E+00 -0.00000000000E+00 -0.45593999997E+02  0.45594000000E+02  0.51100000000E-03 0.  1.
    9900012    2    1    2    0    0 -0.12973168466E+02  0.31868749964E+02 -0.26451898017E+02  0.47787271515E+02  0.20000002147E+02 0.  0.
         12    1    1    2    0    0  0.12973168466E+02 -0.31868749964E+02  0.26451898017E+02  0.43400728485E+02  0.00000000000E+00 0. -1.
         11    1    3    3    0    0 -0.24442461056E+01  0.15916443403E+02 -0.11272088480E+02  0.19656232818E+02  0.51100000000E-03 0. -1.
        -11    1    3    3    0    0 -0.41451916188E+01  0.61295437191E+01 -0.14639942383E+02  0.16403714000E+02  0.51100000000E-03 0.  1.
         12    1    3    3    0    0 -0.63837307411E+01  0.98227628418E+01 -0.53986715474E+00  0.11727324698E+02  0.00000000000E+00 0. -1.
</event>
<event>
 7    1  0.2682317E-010  0.4778727E+02  0.7816164E-02  0.1312668E+00
        -11   -1    0    0    0    0  0.00000000000E+00  0.00000000000E+00  0.45593999997E+02  0.45594000000E+02  0.51100000000E-03 0.  1.
         11   -1    0    0    0    0 -0.00000000000E+00 -0.00000000000E+00 -0.45593999997E+02  0.45594000000E+02  0.51100000000E-03 0. -1.
    9900012    2    1    2    0    0 -0.19482900671E+02 -0.17533403859E+01  0.38742297718E+02  0.47787271279E+02  0.20000001070E+02 0.  0.
         12    1    1    2    0    0  0.19482900671E+02  0.17533403859E+01 -0.38742297718E+02  0.43400728721E+02  0.00000000000E+00 0. -1.
         11    1    3    3    0    0 -0.87739537895E-01 -0.23383108400E+01  0.44150823931E+01  0.49968338585E+01  0.51100000000E-03 0. -1.
        -11    1    3    3    0    0 -0.21146502593E+02 -0.15072046946E+01  0.23609919977E+02  0.31731286761E+02  0.51100000000E-03 0.  1.
        -12    1    3    3    0    0  0.17513414592E+01  0.20921751487E+01  0.10717295347E+02  0.11059150660E+02  0.00000000000E+00 0.  1.
</event>
<event>
 7    1  0.2843572E-010  0.4778727E+02  0.7816164E-02  0.1312668E+00
        -11   -1    0    0    0    0  0.00000000000E+00  0.00000000000E+00  0.45593999997E+02  0.45594000000E+02  0.51100000000E-03 0. -1.
         11   -1    0    0    0    0 -0.00000000000E+00 -0.00000000000E+00 -0.45593999997E+02  0.45594000000E+02  0.51100000000E-03 0.  1.
    9900012    2    1    2    0    0 -0.85000386343E+01 -0.36880158585E+02 -0.21242085761E+02  0.47787274643E+02  0.20000016407E+02 0.  0.
         12    1    1    2    0    0  0.85000386343E+01  0.36880158585E+02  0.21242085761E+02  0.43400725357E+02  0.00000000000E+00 0. -1.
         11    1    3    3    0    0 -0.68301462481E+01 -0.50584968577E+01 -0.66162088491E+01  0.10770956690E+02  0.51100000000E-03 0. -1.
        -11    1    3    3    0    0 -0.60281077709E+01 -0.22732555384E+02 -0.12788096192E+02  0.26770180463E+02  0.51100000000E-03 0.  1.
         12    1    3    3    0    0  0.43582153847E+01 -0.90891063440E+01 -0.18377807199E+01  0.10246137489E+02  0.00000000000E+00 0. -1.
</event>
<event>
 7    1  0.2682317E-010  0.4778727E+02  0.7816164E-02  0.1312668E+00
        -11   -1    0    0    0    0  0.00000000000E+00  0.00000000000E+00  0.45593999997E+02  0.45594000000E+02  0.51100000000E-03 0.  1.
         11   -1    0    0    0    0 -0.00000000000E+00 -0.00000000000E+00 -0.45593999997E+02  0.45594000000E+02  0.51100000000E-03 0. -1.
    9900012    2    1    2    0    0  0.62821340865E+01 -0.98457377660E+01  0.41799752238E+02  0.47787273647E+02  0.20000011864E+02 0.  0.
         12    1    1    2    0    0 -0.62821340865E+01  0.98457377660E+01 -0.41799752238E+02  0.43400726353E+02  0.00000000000E+00 0. -1.
         11    1    3    3    0    0  0.84956352811E+01 -0.13871477561E+00  0.63032170767E+01  0.10579489893E+02  0.51100000000E-03 0. -1.
        -11    1    3    3    0    0  0.11727477838E+01 -0.19589552121E+01  0.41034751887E+01  0.46958866866E+01  0.51100000000E-03 0.  1.
        -12    1    3    3    0    0 -0.33862489784E+01 -0.77480677782E+01  0.31393059973E+02  0.32511897067E+02  0.00000000000E+00 0.  1.
</event>
<event>
 7    1  0.2682317E-010  0.4778727E+02  0.7816164E-02  0.1312668E+00
        -11   -1    0    0    0    0  0.00000000000E+00  0.00000000000E+00  0.45593999997E+02  0.45594000000E+02  0.51100000000E-03 0. -1.
         11   -1    0    0    0    0 -0.00000000000E+00 -0.00000000000E+00 -0.45593999997E+02  0.45594000000E+02  0.51100000000E-03 0.  1.
    9900012    2    1    2    0    0 -0.22710542311E+02 -0.35724739960E+02  0.95706681199E+01  0.47787268837E+02  0.19999989933E+02 0.  0.
         12    1    1    2    0    0  0.22710542311E+02  0.35724739960E+02 -0.95706681199E+01  0.43400731163E+02  0.00000000000E+00 0. -1.
         11    1    3    3    0    0 -0.60021238192E+01 -0.38976908252E+01  0.20028376230E+01  0.74316110578E+01  0.51100000000E-03 0. -1.
        -11    1    3    3    0    0 -0.80453626161E+01 -0.24286041656E+02  0.11722691753E+02  0.28141804866E+02  0.51100000000E-03 0.  1.
         12    1    3    3    0    0 -0.86630558762E+01 -0.75410074786E+01 -0.41548612562E+01  0.12213852912E+02  0.00000000000E+00 0. -1.
</event>
<event>
 7    1  0.2682317E-010  0.4778728E+02  0.7816164E-02  0.1312668E+00
        -11   -1    0    0    0    0  0.00000000000E+00  0.00000000000E+00  0.45593999997E+02  0.45594000000E+02  0.51100000000E-03 0.  1.
         11   -1    0    0    0    0 -0.00000000000E+00 -0.00000000000E+00 -0.45593999997E+02  0.45594000000E+02  0.51100000000E-03 0. -1.
    9900012    2    1    2    0    0  0.31085023739E+01 -0.14202481712E+01  0.43265955073E+02  0.47787276962E+02  0.20000026980E+02 0.  0.
         12    1    1    2    0    0 -0.31085023739E+01  0.14202481712E+01 -0.43265955073E+02  0.43400723038E+02  0.00000000000E+00 0. -1.
         11    1    3    3    0    0 -0.35623276593E+01 -0.38149807875E+00  0.13070768484E+02  0.13552885602E+02  0.51100000000E-03 0. -1.
        -11    1    3    3    0    0 -0.48272354835E+00 -0.70947979939E+00  0.25837196160E+02  0.25851442693E+02  0.51100000000E-03 0.  1.
         12    1    3    3    0    0  0.71535535816E+01 -0.32927029308E+00  0.43579904285E+01  0.83829486666E+01  0.00000000000E+00 0. -1.
</event>
<event>
 7    1  0.2682317E-010  0.4778727E+02  0.7816164E-02  0.1312668E+00
        -11   -1    0    0    0    0  0.00000000000E+00  0.00000000000E+00  0.45593999997E+02  0.45594000000E+02  0.51100000000E-03 0.  1.
         11   -1    0    0    0    0 -0.00000000000E+00 -0.00000000000E+00 -0.45593999997E+02  0.45594000000E+02  0.51100000000E-03 0. -1.
    9900012    2    1    2    0    0 -0.42703325404E+02 -0.36937601801E+01  0.68121808730E+01  0.47787266445E+02  0.19999979031E+02 0.  0.
         12    1    1    2    0    0  0.42703325404E+02  0.36937601801E+01 -0.68121808730E+01  0.43400733555E+02  0.00000000000E+00 0. -1.
         11    1    3    3    0    0 -0.17171779429E+02 -0.57612554294E+00  0.63840176563E+01  0.18329146491E+02  0.51100000000E-03 0. -1.
        -11    1    3    3    0    0 -0.18696779808E+02 -0.65130123261E+01  0.51836557003E+01  0.20466049727E+02  0.51100000000E-03 0.  1.
         12    1    3    3    0    0 -0.68347661669E+01  0.33953776890E+01 -0.47554924836E+01  0.89920702271E+01  0.00000000000E+00 0. -1.
</event>
<event>
 7    1  0.2682317E-010  0.4778727E+02  0.7816164E-02  0.1312668E+00
        -11   -1    0    0    0    0  0.00000000000E+00  0.00000000000E+00  0.45593999997E+02  0.45594000000E+02  0.51100000000E-03 0.  1.
         11   -1    0    0    0    0 -0.00000000000E+00 -0.00000000000E+00 -0.45593999997E+02  0.45594000000E+02  0.51100000000E-03 0. -1.
    9900012    2    1    2    0    0 -0.32861579532E+01  0.34027087203E+02 -0.26739143439E+02  0.47787270865E+02  0.19999999183E+02 0.  0.
         12    1    1    2    0    0  0.32861579532E+01 -0.34027087203E+02  0.26739143439E+02  0.43400729135E+02  0.00000000000E+00 0. -1.
         11    1    3    3    0    0  0.72243611705E+00  0.62911627516E+01 -0.14199087668E+02  0.15547177672E+02  0.51100000000E-03 0. -1.
        -11    1    3    3    0    0 -0.62306521212E+01  0.10971679213E+02 -0.36494207817E+01  0.13134574333E+02  0.51100000000E-03 0.  1.
        -12    1    3    3    0    0  0.22220580509E+01  0.16764245238E+02 -0.88906349887E+01  0.19105518860E+02  0.00000000000E+00 0.  1.
</event>
<event>
 7    1  0.2682317E-010  0.4778727E+02  0.7816164E-02  0.1312668E+00
        -11   -1    0    0    0    0  0.00000000000E+00  0.00000000000E+00  0.45593999997E+02  0.45594000000E+02  0.51100000000E-03 0.  1.
         11   -1    0    0    0    0 -0.00000000000E+00 -0.00000000000E+00 -0.45593999997E+02  0.45594000000E+02  0.51100000000E-03 0. -1.
    9900012    2    1    2    0    0  0.29135221917E+02 -0.17576215829E+02  0.26941399643E+02  0.47787268051E+02  0.19999986352E+02 0.  0.
         12    1    1    2    0    0 -0.29135221917E+02  0.17576215829E+02 -0.26941399643E+02  0.43400731949E+02  0.00000000000E+00 0. -1.
         11    1    3    3    0    0  0.44371119586E+01 -0.89181485638E+01  0.66864493721E+01  0.11997080553E+02  0.51100000000E-03 0. -1.
        -11    1    3    3    0    0  0.26067700411E+02 -0.96708802699E+01  0.19082784988E+02  0.33722449690E+02  0.51100000000E-03 0.  1.
         12    1    3    3    0    0 -0.13695904530E+01  0.10128130051E+01  0.11721652826E+01  0.20677378078E+01  0.00000000000E+00 0. -1.
</event>
<event>
 7    1  0.2682317E-010  0.4778727E+02  0.7816164E-02  0.1312668E+00
        -11   -1    0    0    0    0  0.00000000000E+00  0.00000000000E+00  0.45593999997E+02  0.45594000000E+02  0.51100000000E-03 0. -1.
         11   -1    0    0    0    0 -0.00000000000E+00 -0.00000000000E+00 -0.45593999997E+02  0.45594000000E+02  0.51100000000E-03 0.  1.
    9900012    2    1    2    0    0 -0.63987868771E+01  0.37051097406E+02 -0.21677071663E+02  0.47787265808E+02  0.19999976126E+02 0.  0.
         12    1    1    2    0    0  0.63987868771E+01 -0.37051097406E+02  0.21677071663E+02  0.43400734192E+02  0.00000000000E+00 0. -1.
         11    1    3    3    0    0 -0.14417581231E+01 -0.35940845785E+00 -0.74553561942E+00  0.16624273055E+01  0.51100000000E-03 0. -1.
        -11    1    3    3    0    0 -0.10917965050E+02  0.24612609140E+02 -0.14890376971E+02  0.30768584889E+02  0.51100000000E-03 0.  1.
         12    1    3    3    0    0  0.59609362962E+01  0.12797896724E+02 -0.60411590732E+01  0.15356253613E+02  0.00000000000E+00 0. -1.
</event>
<event>
 7    1  0.2682317E-010  0.4778728E+02  0.7816164E-02  0.1312668E+00
        -11   -1    0    0    0    0  0.00000000000E+00  0.00000000000E+00  0.45593999997E+02  0.45594000000E+02  0.51100000000E-03 0.  1.
         11   -1    0    0    0    0 -0.00000000000E+00 -0.00000000000E+00 -0.45593999997E+02  0.45594000000E+02  0.51100000000E-03 0. -1.
    9900012    2    1    2    0    0  0.22122706411E+02 -0.32890095633E+02  0.17676259918E+02  0.47787277720E+02  0.20000030437E+02 0.  0.
         12    1    1    2    0    0 -0.22122706411E+02  0.32890095633E+02 -0.17676259918E+02  0.43400722280E+02  0.00000000000E+00 0. -1.
         11    1    3    3    0    0 -0.83559705557E+00 -0.31015588144E+01 -0.68825624677E+00  0.32850550133E+01  0.51100000000E-03 0. -1.
        -11    1    3    3    0    0  0.36220626808E+01 -0.14939022591E+02  0.11427761339E+02  0.19154306658E+02  0.51100000000E-03 0.  1.
        -12    1    3    3    0    0  0.19336240786E+02 -0.14849514228E+02  0.69367548257E+01  0.25347916049E+02  0.00000000000E+00 0.  1.
</event>
<event>
 7    1  0.2682317E-010  0.4778728E+02  0.7816164E-02  0.1312668E+00
        -11   -1    0    0    0    0  0.00000000000E+00  0.00000000000E+00  0.45593999997E+02  0.45594000000E+02  0.51100000000E-03 0. -1.
         11   -1    0    0    0    0 -0.00000000000E+00 -0.00000000000E+00 -0.45593999997E+02  0.45594000000E+02  0.51100000000E-03 0.  1.
    9900012    2    1    2    0    0 -0.26247232279E+02  0.23482827027E+02 -0.25362617681E+02  0.47787277159E+02  0.20000027879E+02 0.  0.
         12    1    1    2    0    0  0.26247232279E+02 -0.23482827027E+02  0.25362617681E+02  0.43400722841E+02  0.00000000000E+00 0. -1.
         11    1    3    3    0    0  0.21704285093E+00 -0.53604068754E+00  0.34226049713E+00  0.67200426104E+00  0.51100000000E-03 0. -1.
        -11    1    3    3    0    0 -0.24294863565E+02  0.14435525800E+02 -0.24137779068E+02  0.37165268456E+02  0.51100000000E-03 0.  1.
         12    1    3    3    0    0 -0.21694115643E+01  0.95833419145E+01 -0.15670991102E+01  0.99500044425E+01  0.00000000000E+00 0. -1.
</event>
<event>
 7    1  0.2682317E-010  0.4778726E+02  0.7816164E-02  0.1312668E+00
        -11   -1    0    0    0    0  0.00000000000E+00  0.00000000000E+00  0.45593999997E+02  0.45594000000E+02  0.51100000000E-03 0. -1.
         11   -1    0    0    0    0 -0.00000000000E+00 -0.00000000000E+00 -0.45593999997E+02  0.45594000000E+02  0.51100000000E-03 0.  1.
    9900012    2    1    2    0    0 -0.49721622707E+01  0.22168577051E+02 -0.36979130369E+02  0.47787259350E+02  0.19999946681E+02 0.  0.
         12    1    1    2    0    0  0.49721622707E+01 -0.22168577051E+02  0.36979130369E+02  0.43400740650E+02  0.00000000000E+00 0. -1.
         11    1    3    3    0    0 -0.13389910812E+01  0.43290364183E+01 -0.66712750922E+00  0.45802306494E+01  0.51100000000E-03 0. -1.
        -11    1    3    3    0    0  0.18961263815E+01  0.88133664576E+01 -0.53439846042E+01  0.10479928210E+02  0.51100000000E-03 0.  1.
        -12    1    3    3    0    0 -0.55292975710E+01  0.90261741749E+01 -0.30968018256E+02  0.32727100491E+02  0.00000000000E+00 0.  1.
</event>
<event>
 7    1  0.2682317E-010  0.4778727E+02  0.7816164E-02  0.1312668E+00
        -11   -1    0    0    0    0  0.00000000000E+00  0.00000000000E+00  0.45593999997E+02  0.45594000000E+02  0.51100000000E-03 0.  1.
         11   -1    0    0    0    0 -0.00000000000E+00 -0.00000000000E+00 -0.45593999997E+02  0.45594000000E+02  0.51100000000E-03 0. -1.
    9900012    2    1    2    0    0  0.28778395088E+01  0.25563147505E+02  0.34955209635E+02  0.47787272457E+02  0.20000006442E+02 0.  0.
         12    1    1    2    0    0 -0.28778395088E+01 -0.25563147505E+02 -0.34955209635E+02  0.43400727543E+02  0.00000000000E+00 0. -1.
         11    1    3    3    0    0 -0.34241990830E+01  0.19666802927E+02  0.26138480362E+02  0.32889640203E+02  0.51100000000E-03 0.  1.
        -11    1    3    3    0    0  0.44767600276E+01  0.75495089763E+00  0.82445801172E+01  0.94119303425E+01  0.51100000000E-03 0. -1.
        -12    1    3    3    0    0  0.18252785643E+01  0.51413936804E+01  0.57214915554E+00  0.54857019123E+01  0.00000000000E+00 0.  1.
</event>
<event>
 7    1  0.2682317E-010  0.4778727E+02  0.7816164E-02  0.1312668E+00
        -11   -1    0    0    0    0  0.00000000000E+00  0.00000000000E+00  0.45593999997E+02  0.45594000000E+02  0.51100000000E-03 0.  1.
         11   -1    0    0    0    0 -0.00000000000E+00 -0.00000000000E+00 -0.45593999997E+02  0.45594000000E+02  0.51100000000E-03 0. -1.
    9900012    2    1    2    0    0 -0.87769060478E+01  0.31754948228E+01  0.42385202955E+02  0.47787271012E+02  0.19999999851E+02 0.  0.
         12    1    1    2    0    0  0.87769060478E+01 -0.31754948228E+01 -0.42385202955E+02  0.43400728988E+02  0.00000000000E+00 0. -1.
         11    1    3    3    0    0  0.16909444166E+01 -0.51184872151E+01  0.99613824925E+01  0.11326400391E+02  0.51100000000E-03 0. -1.
        -11    1    3    3    0    0  0.15427434706E+01  0.26812616403E+01  0.36828250600E+01  0.48096176650E+01  0.51100000000E-03 0.  1.
        -12    1    3    3    0    0 -0.12010593935E+02  0.56127203976E+01  0.28740995403E+02  0.31651252956E+02  0.00000000000E+00 0.  1.
</event>
<event>
 7    1  0.2682317E-010  0.4778728E+02  0.7816164E-02  0.1312668E+00
        -11   -1    0    0    0    0  0.00000000000E+00  0.00000000000E+00  0.45593999997E+02  0.45594000000E+02  0.51100000000E-03 0. -1.
         11   -1    0    0    0    0 -0.00000000000E+00 -0.00000000000E+00 -0.45593999997E+02  0.45594000000E+02  0.51100000000E-03 0.  1.
    9900012    2    1    2    0    0  0.43146088978E+02  0.41622601400E+01  0.21709729962E+01  0.47787279645E+02  0.20000039215E+02 0.  0.
         12    1    1    2    0    0 -0.43146088978E+02 -0.41622601400E+01 -0.21709729962E+01  0.43400720355E+02  0.00000000000E+00 0. -1.
         11    1    3    3    0    0  0.11707190672E+02  0.19777835726E+01 -0.47969734402E+01  0.12805502557E+02  0.51100000000E-03 0. -1.
        -11    1    3    3    0    0  0.20927453110E+02  0.42022837642E+01 -0.14066402600E+01  0.21391496431E+02  0.51100000000E-03 0.  1.
         12    1    3    3    0    0  0.10511445196E+02 -0.20178071968E+01  0.83745866964E+01  0.13590280657E+02  0.00000000000E+00 0. -1.
</event>
<event>
 7    1  0.2682317E-010  0.4778727E+02  0.7816164E-02  0.1312668E+00
        -11   -1    0    0    0    0  0.00000000000E+00  0.00000000000E+00  0.45593999997E+02  0.45594000000E+02  0.51100000000E-03 0.  1.
         11   -1    0    0    0    0 -0.00000000000E+00 -0.00000000000E+00 -0.45593999997E+02  0.45594000000E+02  0.51100000000E-03 0. -1.
    9900012    2    1    2    0    0 -0.15977043390E+02 -0.33796020547E+02  0.22049633005E+02  0.47787271481E+02  0.20000001990E+02 0.  0.
         12    1    1    2    0    0  0.15977043390E+02  0.33796020547E+02 -0.22049633005E+02  0.43400728519E+02  0.00000000000E+00 0. -1.
         11    1    3    3    0    0  0.27513366865E+01 -0.78706014753E+01  0.46065006460E+01  0.95255482576E+01  0.51100000000E-03 0. -1.
        -11    1    3    3    0    0 -0.64170380499E+01 -0.18640287410E+02  0.10962345150E+02  0.22556854912E+02  0.51100000000E-03 0.  1.
         12    1    3    3    0    0 -0.12311342027E+02 -0.72851316619E+01  0.64807872094E+01  0.15704868312E+02  0.00000000000E+00 0. -1.
</event>
<event>
 7    1  0.2682317E-010  0.4778727E+02  0.7816164E-02  0.1312668E+00
        -11   -1    0    0    0    0  0.00000000000E+00  0.00000000000E+00  0.45593999997E+02  0.45594000000E+02  0.51100000000E-03 0.  1.
         11   -1    0    0    0    0 -0.00000000000E+00 -0.00000000000E+00 -0.45593999997E+02  0.45594000000E+02  0.51100000000E-03 0. -1.
    9900012    2    1    2    0    0  0.37218845588E+02 -0.61177601895E+01 -0.21469832737E+02  0.47787272191E+02  0.20000005226E+02 0.  0.
         12    1    1    2    0    0 -0.37218845588E+02  0.61177601895E+01  0.21469832737E+02  0.43400727809E+02  0.00000000000E+00 0. -1.
         11    1    3    3    0    0  0.17719932790E+01  0.39934699181E+01 -0.52539103521E+00  0.44004315889E+01  0.51100000000E-03 0. -1.
        -11    1    3    3    0    0  0.11024408663E+02  0.11848729278E+01 -0.62099721312E+01  0.12708472149E+02  0.51100000000E-03 0.  1.
        -12    1    3    3    0    0  0.24422443645E+02 -0.11296103035E+02 -0.14734469571E+02  0.30678368453E+02  0.00000000000E+00 0.  1.
</event>
<event>
 7    1  0.2682317E-010  0.4778726E+02  0.7816164E-02  0.1312668E+00
        -11   -1    0    0    0    0  0.00000000000E+00  0.00000000000E+00  0.45593999997E+02  0.45594000000E+02  0.51100000000E-03 0. -1.
         11   -1    0    0    0    0 -0.00000000000E+00 -0.00000000000E+00 -0.45593999997E+02  0.45594000000E+02  0.51100000000E-03 0.  1.
    9900012    2    1    2    0    0  0.75622204089E+01 -0.41907222916E+02 -0.83798392534E+01  0.47787260191E+02  0.19999950517E+02 0.  0.
         12    1    1    2    0    0 -0.75622204089E+01  0.41907222916E+02  0.83798392534E+01  0.43400739809E+02  0.00000000000E+00 0. -1.
         11    1    3    3    0    0  0.48316651809E+00 -0.72415949966E+01 -0.25866782235E+01  0.77048719958E+01  0.51100000000E-03 0. -1.
        -11    1    3    3    0    0  0.47205847141E+01 -0.14524530085E+02  0.62447935770E+01  0.16499798220E+02  0.51100000000E-03 0.  1.
        -12    1    3    3    0    0  0.23584691767E+01 -0.20141097834E+02 -0.12037954607E+02  0.23582589975E+02  0.00000000000E+00 0.  1.
</event>
<event>
 7    1  0.2682317E-010  0.4778727E+02  0.7816164E-02  0.1312668E+00
        -11   -1    0    0    0    0  0.00000000000E+00  0.00000000000E+00  0.45593999997E+02  0.45594000000E+02  0.51100000000E-03 0.  1.
         11   -1    0    0    0    0 -0.00000000000E+00 -0.00000000000E+00 -0.45593999997E+02  0.45594000000E+02  0.51100000000E-03 0. -1.
    9900012    2    1    2    0    0  0.11456938691E+02  0.25560603501E+02  0.33151433999E+02  0.47787268765E+02  0.19999989607E+02 0.  0.
         12    1    1    2    0    0 -0.11456938691E+02 -0.25560603501E+02 -0.33151433999E+02  0.43400731235E+02  0.00000000000E+00 0. -1.
         11    1    3    3    0    0  0.56898384924E+01  0.32163730711E+01 -0.68312800612E+00  0.65716042133E+01  0.51100000000E-03 0. -1.
        -11    1    3    3    0    0  0.46299583597E+00  0.23095439059E+01  0.64927450030E+01  0.69068151946E+01  0.51100000000E-03 0.  1.
        -12    1    3    3    0    0  0.53041043630E+01  0.20034686524E+02  0.27341817002E+02  0.34308849357E+02  0.00000000000E+00 0.  1.
</event>
<event>
 7    1  0.2682317E-010  0.4778727E+02  0.7816164E-02  0.1312668E+00
        -11   -1    0    0    0    0  0.00000000000E+00  0.00000000000E+00  0.45593999997E+02  0.45594000000E+02  0.51100000000E-03 0.  1.
         11   -1    0    0    0    0 -0.00000000000E+00 -0.00000000000E+00 -0.45593999997E+02  0.45594000000E+02  0.51100000000E-03 0. -1.
    9900012    2    1    2    0    0  0.25813802633E+02  0.33351716427E+02  0.10243715469E+02  0.47787273029E+02  0.20000009048E+02 0.  0.
         12    1    1    2    0    0 -0.25813802633E+02 -0.33351716427E+02 -0.10243715469E+02  0.43400726971E+02  0.00000000000E+00 0. -1.
         11    1    3    3    0    0  0.20204821007E+02  0.17452349559E+02  0.49649162688E+01  0.27156393186E+02  0.51100000000E-03 0. -1.
        -11    1    3    3    0    0  0.28617388148E+01 -0.26770693835E+00  0.28598173958E+01  0.40545988516E+01  0.51100000000E-03 0.  1.
         12    1    3    3    0    0  0.27472428112E+01  0.16167073806E+02  0.24189818046E+01  0.16576280991E+02  0.00000000000E+00 0. -1.
</event>
<event>
 7    1  0.2682317E-010  0.4778727E+02  0.7816164E-02  0.1312668E+00
        -11   -1    0    0    0    0  0.00000000000E+00  0.00000000000E+00  0.45593999997E+02  0.45594000000E+02  0.51100000000E-03 0.  1.
         11   -1    0    0    0    0 -0.00000000000E+00 -0.00000000000E+00 -0.45593999997E+02  0.45594000000E+02  0.51100000000E-03 0. -1.
    9900012    2    1    2    0    0 -0.27009855912E+01 -0.12261298591E+02  0.41545017994E+02  0.47787270900E+02  0.19999999341E+02 0.  0.
         12    1    1    2    0    0  0.27009855912E+01  0.12261298591E+02 -0.41545017994E+02  0.43400729100E+02  0.00000000000E+00 0. -1.
         11    1    3    3    0    0  0.79371388204E+01 -0.53034061240E+01  0.10754835942E+02  0.14380222028E+02  0.51100000000E-03 0. -1.
        -11    1    3    3    0    0 -0.40918534643E+01 -0.20434039672E+01  0.13992082559E+02  0.14720636506E+02  0.51100000000E-03 0.  1.
         12    1    3    3    0    0 -0.65462709474E+01 -0.49144884999E+01  0.16798099494E+02  0.18686412367E+02  0.00000000000E+00 0. -1.
</event>
<event>
 7    1  0.2682317E-010  0.4778727E+02  0.7816164E-02  0.1312668E+00
        -11   -1    0    0    0    0  0.00000000000E+00  0.00000000000E+00  0.45593999997E+02  0.45594000000E+02  0.51100000000E-03 0. -1.
         11   -1    0    0    0    0 -0.00000000000E+00 -0.00000000000E+00 -0.45593999997E+02  0.45594000000E+02  0.51100000000E-03 0.  1.
    9900012    2    1    2    0    0  0.37967632963E+02 -0.90505294840E+01 -0.18978149811E+02  0.47787269511E+02  0.19999993007E+02 0.  0.
         12    1    1    2    0    0 -0.37967632963E+02  0.90505294840E+01  0.18978149811E+02  0.43400730489E+02  0.00000000000E+00 0. -1.
         11    1    3    3    0    0  0.93203660756E+00 -0.11110771863E+01  0.45621210882E+00  0.15203007930E+01  0.51100000000E-03 0. -1.
        -11    1    3    3    0    0  0.29866241622E+02 -0.35787359648E+01 -0.63813265863E+01  0.30749326317E+02  0.51100000000E-03 0.  1.
        -12    1    3    3    0    0  0.71693547338E+01 -0.43607163329E+01 -0.13053035334E+02  0.15517642400E+02  0.00000000000E+00 0.  1.
</event>
<event>
 7    1  0.2682317E-010  0.4778727E+02  0.7816164E-02  0.1312668E+00
        -11   -1    0    0    0    0  0.00000000000E+00  0.00000000000E+00  0.45593999997E+02  0.45594000000E+02  0.51100000000E-03 0.  1.
         11   -1    0    0    0    0 -0.00000000000E+00 -0.00000000000E+00 -0.45593999997E+02  0.45594000000E+02  0.51100000000E-03 0. -1.
    9900012    2    1    2    0    0  0.82854609910E+01  0.40799235544E+02  0.12263655149E+02  0.47787265877E+02  0.19999976440E+02 0.  0.
         12    1    1    2    0    0 -0.82854609910E+01 -0.40799235544E+02 -0.12263655149E+02  0.43400734123E+02  0.00000000000E+00 0. -1.
         11    1    3    3    0    0  0.87028138660E+00  0.12512308359E+02 -0.12200415181E+01  0.12601736060E+02  0.51100000000E-03 0.  1.
        -11    1    3    3    0    0  0.71282500704E+00  0.51045728461E+01 -0.29978278449E+01  0.59625292855E+01  0.51100000000E-03 0. -1.
        -12    1    3    3    0    0  0.67023545973E+01  0.23182354339E+02  0.16481524512E+02  0.29223000532E+02  0.00000000000E+00 0.  1.
</event>
<event>
 7    1  0.2682317E-010  0.4778727E+02  0.7816164E-02  0.1312668E+00
        -11   -1    0    0    0    0  0.00000000000E+00  0.00000000000E+00  0.45593999997E+02  0.45594000000E+02  0.51100000000E-03 0.  1.
         11   -1    0    0    0    0 -0.00000000000E+00 -0.00000000000E+00 -0.45593999997E+02  0.45594000000E+02  0.51100000000E-03 0. -1.
    9900012    2    1    2    0    0 -0.23082671397E+01  0.37652961112E+01  0.43175427971E+02  0.47787272674E+02  0.20000007429E+02 0.  0.
         12    1    1    2    0    0  0.23082671397E+01 -0.37652961112E+01 -0.43175427971E+02  0.43400727326E+02  0.00000000000E+00 0. -1.
         11    1    3    3    0    0  0.39240485106E+01  0.78827873186E+00  0.53190696121E+01  0.66567290670E+01  0.51100000000E-03 0. -1.
        -11    1    3    3    0    0  0.19996706493E+01  0.50356034222E+01  0.25951552849E+02  0.26511112388E+02  0.51100000000E-03 0.  1.
         12    1    3    3    0    0 -0.82319862996E+01 -0.20585860428E+01  0.11904805510E+02  0.14619431219E+02  0.00000000000E+00 0. -1.
</event>
<event>
 7    1  0.2682317E-010  0.4778728E+02  0.7816164E-02  0.1312668E+00
        -11   -1    0    0    0    0  0.00000000000E+00  0.00000000000E+00  0.45593999997E+02  0.45594000000E+02  0.51100000000E-03 0. -1.
         11   -1    0    0    0    0 -0.00000000000E+00 -0.00000000000E+00 -0.45593999997E+02  0.45594000000E+02  0.51100000000E-03 0.  1.
    9900012    2    1    2    0    0 -0.20149566241E+01 -0.42373827944E+02  0.91663058852E+01  0.47787279863E+02  0.20000040207E+02 0.  0.
         12    1    1    2    0    0  0.20149566241E+01  0.42373827944E+02 -0.91663058852E+01  0.43400720137E+02  0.00000000000E+00 0. -1.
         11    1    3    3    0    0 -0.44407122797E+01 -0.73436626471E+01 -0.18541886429E+00  0.85839202607E+01  0.51100000000E-03 0. -1.
        -11    1    3    3    0    0 -0.46993918778E+01 -0.60282599410E+01 -0.74169611586E+00  0.76794736360E+01  0.51100000000E-03 0.  1.
        -12    1    3    3    0    0  0.71251475334E+01 -0.29001905356E+02  0.10093420865E+02  0.31523885966E+02  0.00000000000E+00 0.  1.
</event>
<event>
 7    1  0.2682317E-010  0.4778727E+02  0.7816164E-02  0.1312668E+00
        -11   -1    0    0    0    0  0.00000000000E+00  0.00000000000E+00  0.45593999997E+02  0.45594000000E+02  0.51100000000E-03 0. -1.
         11   -1    0    0    0    0 -0.00000000000E+00 -0.00000000000E+00 -0.45593999997E+02  0.45594000000E+02  0.51100000000E-03 0.  1.
    9900012    2    1    2    0    0 -0.21914217627E+02 -0.18570388645E+02 -0.32535079444E+02  0.47787266561E+02  0.19999979557E+02 0.  0.
         12    1    1    2    0    0  0.21914217627E+02  0.18570388645E+02  0.32535079444E+02  0.43400733439E+02  0.00000000000E+00 0. -1.
         11    1    3    3    0    0 -0.88411768126E+01 -0.20130478490E+01 -0.30689648739E+01  0.95727381001E+01  0.51100000000E-03 0. -1.
        -11    1    3    3    0    0 -0.23246997527E+01 -0.17744857477E+00 -0.11161716596E+02  0.11402615251E+02  0.51100000000E-03 0.  1.
        -12    1    3    3    0    0 -0.10748341061E+02 -0.16379892222E+02 -0.18304397974E+02  0.26811913210E+02  0.00000000000E+00 0.  1.
</event>
<event>
 7    1  0.2682317E-010  0.4778727E+02  0.7816164E-02  0.1312668E+00
        -11   -1    0    0    0    0  0.00000000000E+00  0.00000000000E+00  0.45593999997E+02  0.45594000000E+02  0.51100000000E-03 0.  1.
         11   -1    0    0    0    0 -0.00000000000E+00 -0.00000000000E+00 -0.45593999997E+02  0.45594000000E+02  0.51100000000E-03 0. -1.
    9900012    2    1    2    0    0 -0.24796273252E+02 -0.85961252897E+01  0.34566958591E+02  0.47787272317E+02  0.20000005800E+02 0.  0.
         12    1    1    2    0    0  0.24796273252E+02  0.85961252897E+01 -0.34566958591E+02  0.43400727683E+02  0.00000000000E+00 0. -1.
         11    1    3    3    0    0 -0.22803934950E+01  0.35399831257E+01  0.80224635320E+01  0.90604412920E+01  0.51100000000E-03 0. -1.
        -11    1    3    3    0    0 -0.49593783296E+01 -0.58869296417E+01  0.14848271655E+02  0.16724907935E+02  0.51100000000E-03 0.  1.
         12    1    3    3    0    0 -0.17556501428E+02 -0.62491787737E+01  0.11696223404E+02  0.22001923089E+02  0.00000000000E+00 0. -1.
</event>
<event>
 7    1  0.2682317E-010  0.4778727E+02  0.7816164E-02  0.1312668E+00
        -11   -1    0    0    0    0  0.00000000000E+00  0.00000000000E+00  0.45593999997E+02  0.45594000000E+02  0.51100000000E-03 0.  1.
         11   -1    0    0    0    0 -0.00000000000E+00 -0.00000000000E+00 -0.45593999997E+02  0.45594000000E+02  0.51100000000E-03 0. -1.
    9900012    2    1    2    0    0  0.11042930173E+02 -0.74707129614E+01  0.41302121504E+02  0.47787273051E+02  0.20000009150E+02 0.  0.
         12    1    1    2    0    0 -0.11042930173E+02  0.74707129614E+01 -0.41302121504E+02  0.43400726949E+02  0.00000000000E+00 0. -1.
         11    1    3    3    0    0  0.13478394796E+01  0.54529517348E+00  0.86183527079E+00  0.16902006935E+01  0.51100000000E-03 0. -1.
        -11    1    3    3    0    0  0.12032522564E+02 -0.12306385814E+02  0.32434287140E+02  0.36718002581E+02  0.51100000000E-03 0.  1.
         12    1    3    3    0    0 -0.23374318706E+01  0.42903776793E+01  0.80059990937E+01  0.93790697763E+01  0.00000000000E+00 0. -1.
</event>
<event>
 7    1  0.2682317E-010  0.4778727E+02  0.7816164E-02  0.1312668E+00
        -11   -1    0    0    0    0  0.00000000000E+00  0.00000000000E+00  0.45593999997E+02  0.45594000000E+02  0.51100000000E-03 0. -1.
         11   -1    0    0    0    0 -0.00000000000E+00 -0.00000000000E+00 -0.45593999997E+02  0.45594000000E+02  0.51100000000E-03 0.  1.
    9900012    2    1    2    0    0  0.22433796299E+02  0.31927900335E+02 -0.18998869894E+02  0.47787273123E+02  0.20000009477E+02 0.  0.
         12    1    1    2    0    0 -0.22433796299E+02 -0.31927900335E+02  0.18998869894E+02  0.43400726877E+02  0.00000000000E+00 0. -1.
         11    1    3    3    0    0  0.87853635259E+01  0.13107427979E+02 -0.12390855447E+02  0.20062915528E+02  0.51100000000E-03 0. -1.
        -11    1    3    3    0    0  0.12903658841E+02  0.17947703129E+02 -0.99130189763E+01  0.24225862308E+02  0.51100000000E-03 0.  1.
         12    1    3    3    0    0  0.74477393281E+00  0.87276922790E+00  0.33050045297E+01  0.34984952877E+01  0.00000000000E+00 0. -1.
</event>
<event>
 7    1  0.2682317E-010  0.4778727E+02  0.7816164E-02  0.1312668E+00
        -11   -1    0    0    0    0  0.00000000000E+00  0.00000000000E+00  0.45593999997E+02  0.45594000000E+02  0.51100000000E-03 0.  1.
         11   -1    0    0    0    0 -0.00000000000E+00 -0.00000000000E+00 -0.45593999997E+02  0.45594000000E+02  0.51100000000E-03 0. -1.
    9900012    2    1    2    0    0 -0.15331700593E+02 -0.12996767935E+02  0.38466171725E+02  0.47787269741E+02  0.19999994059E+02 0.  0.
         12    1    1    2    0    0  0.15331700593E+02  0.12996767935E+02 -0.38466171725E+02  0.43400730259E+02  0.00000000000E+00 0. -1.
         11    1    3    3    0    0 -0.30486038900E+01 -0.39054862315E+01  0.23860771953E+00  0.49602159517E+01  0.51100000000E-03 0. -1.
        -11    1    3    3    0    0 -0.14297935923E+01 -0.52112570136E+01  0.40349942719E+01  0.67440854394E+01  0.51100000000E-03 0.  1.
        -12    1    3    3    0    0 -0.10853303110E+02 -0.38800246896E+01  0.34192569733E+02  0.36082968350E+02  0.00000000000E+00 0.  1.
</event>
<event>
 7    1  0.2682317E-010  0.4778727E+02  0.7816164E-02  0.1312668E+00
        -11   -1    0    0    0    0  0.00000000000E+00  0.00000000000E+00  0.45593999997E+02  0.45594000000E+02  0.51100000000E-03 0. -1.
         11   -1    0    0    0    0 -0.00000000000E+00 -0.00000000000E+00 -0.45593999997E+02  0.45594000000E+02  0.51100000000E-03 0.  1.
    9900012    2    1    2    0    0  0.22933138729E+02  0.58900256414E+01 -0.36373093974E+02  0.47787271673E+02  0.20000002868E+02 0.  0.
         12    1    1    2    0    0 -0.22933138729E+02 -0.58900256414E+01  0.36373093974E+02  0.43400728327E+02  0.00000000000E+00 0. -1.
         11    1    3    3    0    0  0.38800761738E+01  0.50126223199E+01 -0.38487514315E+01  0.74158115860E+01  0.51100000000E-03 0. -1.
        -11    1    3    3    0    0  0.16642010211E+02  0.63620238641E+01 -0.25940693131E+02  0.31469849251E+02  0.51100000000E-03 0.  1.
         12    1    3    3    0    0  0.24110523441E+01 -0.54846205426E+01 -0.65836494124E+01  0.89016108367E+01  0.00000000000E+00 0. -1.
</event>
<event>
 7    1  0.2682317E-010  0.4778729E+02  0.7816164E-02  0.1312668E+00
        -11   -1    0    0    0    0  0.00000000000E+00  0.00000000000E+00  0.45593999997E+02  0.45594000000E+02  0.51100000000E-03 0. -1.
         11   -1    0    0    0    0 -0.00000000000E+00 -0.00000000000E+00 -0.45593999997E+02  0.45594000000E+02  0.51100000000E-03 0.  1.
    9900012    2    1    2    0    0  0.62801925228E+01 -0.41723986121E+02 -0.10163151895E+02  0.47787291568E+02  0.20000093575E+02 0.  0.
         12    1    1    2    0    0 -0.62801925228E+01  0.41723986121E+02  0.10163151895E+02  0.43400708432E+02  0.00000000000E+00 0. -1.
         11    1    3    3    0    0 -0.11009051345E+01 -0.89269340398E+01  0.38160059982E+01  0.97705703777E+01  0.51100000000E-03 0. -1.
        -11    1    3    3    0    0  0.70070478976E+00 -0.34757771333E+01  0.18856011448E+01  0.40159066001E+01  0.51100000000E-03 0.  1.
        -12    1    3    3    0    0  0.66803928675E+01 -0.29321274948E+02 -0.15864759038E+02  0.34000814590E+02  0.00000000000E+00 0.  1.
</event>
<event>
 7    1  0.2682317E-010  0.4778727E+02  0.7816164E-02  0.1312668E+00
        -11   -1    0    0    0    0  0.00000000000E+00  0.00000000000E+00  0.45593999997E+02  0.45594000000E+02  0.51100000000E-03 0.  1.
         11   -1    0    0    0    0 -0.00000000000E+00 -0.00000000000E+00 -0.45593999997E+02  0.45594000000E+02  0.51100000000E-03 0. -1.
    9900012    2    1    2    0    0  0.63082948779E+01  0.41575504195E+02  0.10738074706E+02  0.47787269802E+02  0.19999994337E+02 0.  0.
         12    1    1    2    0    0 -0.63082948779E+01 -0.41575504195E+02 -0.10738074706E+02  0.43400730198E+02  0.00000000000E+00 0. -1.
         11    1    3    3    0    0  0.12874183384E+01  0.27637590860E+00 -0.10312685391E+01  0.16725264368E+01  0.51100000000E-03 0. -1.
        -11    1    3    3    0    0 -0.32328636891E+01  0.30233609605E+02  0.52805981894E+01  0.30861096462E+02  0.51100000000E-03 0.  1.
         12    1    3    3    0    0  0.82537402286E+01  0.11065518681E+02  0.64887450559E+01  0.15253646903E+02  0.00000000000E+00 0. -1.
</event>
<event>
 7    1  0.2682317E-010  0.4778728E+02  0.7816164E-02  0.1312668E+00
        -11   -1    0    0    0    0  0.00000000000E+00  0.00000000000E+00  0.45593999997E+02  0.45594000000E+02  0.51100000000E-03 0.  1.
         11   -1    0    0    0    0 -0.00000000000E+00 -0.00000000000E+00 -0.45593999997E+02  0.45594000000E+02  0.51100000000E-03 0. -1.
    9900012    2    1    2    0    0 -0.21232037126E+02  0.17112473853E+02  0.33763689890E+02  0.47787275157E+02  0.20000018752E+02 0.  0.
         12    1    1    2    0    0  0.21232037126E+02 -0.17112473853E+02 -0.33763689890E+02  0.43400724843E+02  0.00000000000E+00 0. -1.
         11    1    3    3    0    0 -0.36807654722E+01  0.25816049193E+01 -0.34767350163E+00  0.45092788277E+01  0.51100000000E-03 0. -1.
        -11    1    3    3    0    0 -0.48013259222E+01  0.49765463534E+01  0.16377008875E+01  0.71063920999E+01  0.51100000000E-03 0.  1.
        -12    1    3    3    0    0 -0.12749945732E+02  0.95543225803E+01  0.32473662504E+02  0.36171604230E+02  0.00000000000E+00 0.  1.
</event>
<event>
 7    1  0.2682317E-010  0.4778728E+02  0.7816164E-02  0.1312668E+00
        -11   -1    0    0    0    0  0.00000000000E+00  0.00000000000E+00  0.45593999997E+02  0.45594000000E+02  0.51100000000E-03 0.  1.
         11   -1    0    0    0    0 -0.00000000000E+00 -0.00000000000E+00 -0.45593999997E+02  0.45594000000E+02  0.51100000000E-03 0. -1.
    9900012    2    1    2    0    0 -0.45022926623E+01 -0.24498409822E+02  0.35541245089E+02  0.47787276210E+02  0.20000023550E+02 0.  0.
         12    1    1    2    0    0  0.45022926623E+01  0.24498409822E+02 -0.35541245089E+02  0.43400723790E+02  0.00000000000E+00 0. -1.
         11    1    3    3    0    0 -0.64000935900E+01 -0.38483009224E+01  0.95628739452E+01  0.12133390965E+02  0.51100000000E-03 0.  1.
        -11    1    3    3    0    0  0.18272997708E+01  0.29548494059E+00 -0.47611736047E+00  0.19112885194E+01  0.51100000000E-03 0. -1.
         12    1    3    3    0    0  0.70501156866E-01 -0.20945593840E+02  0.26454488505E+02  0.33742596725E+02  0.00000000000E+00 0. -1.
</event>
<event>
 7    1  0.2682317E-010  0.4778728E+02  0.7816164E-02  0.1312668E+00
        -11   -1    0    0    0    0  0.00000000000E+00  0.00000000000E+00  0.45593999997E+02  0.45594000000E+02  0.51100000000E-03 0.  1.
         11   -1    0    0    0    0 -0.00000000000E+00 -0.00000000000E+00 -0.45593999997E+02  0.45594000000E+02  0.51100000000E-03 0. -1.
    9900012    2    1    2    0    0 -0.40800303003E+02  0.13539880066E+02  0.59690509903E+01  0.47787278266E+02  0.20000032926E+02 0.  0.
         12    1    1    2    0    0  0.40800303003E+02 -0.13539880066E+02 -0.59690509903E+01  0.43400721734E+02  0.00000000000E+00 0. -1.
         11    1    3    3    0    0 -0.89372743409E+01 -0.37899409415E+01  0.22196545921E+01  0.99581821511E+01  0.51100000000E-03 0. -1.
        -11    1    3    3    0    0 -0.40311471560E+00 -0.84718356190E+00 -0.77235821977E+00  0.12152197095E+01  0.51100000000E-03 0.  1.
        -12    1    3    3    0    0 -0.31459913946E+02  0.18177004569E+02  0.45217546179E+01  0.36613876405E+02  0.00000000000E+00 0.  1.
</event>
<event>
 7    1  0.2682317E-010  0.4778727E+02  0.7816164E-02  0.1312668E+00
        -11   -1    0    0    0    0  0.00000000000E+00  0.00000000000E+00  0.45593999997E+02  0.45594000000E+02  0.51100000000E-03 0.  1.
         11   -1    0    0    0    0 -0.00000000000E+00 -0.00000000000E+00 -0.45593999997E+02  0.45594000000E+02  0.51100000000E-03 0. -1.
    9900012    2    1    2    0    0 -0.40565898079E+02  0.88326003742E+01  0.12649757492E+02  0.47787270963E+02  0.19999999630E+02 0.  0.
         12    1    1    2    0    0  0.40565898079E+02 -0.88326003742E+01 -0.12649757492E+02  0.43400729037E+02  0.00000000000E+00 0. -1.
         11    1    3    3    0    0 -0.57710112063E+01  0.69368265367E+01  0.49822943879E+01  0.10307637478E+02  0.51100000000E-03 0. -1.
        -11    1    3    3    0    0 -0.24474690852E+02  0.65930925338E+01  0.54158390214E+01  0.25919310833E+02  0.51100000000E-03 0.  1.
         12    1    3    3    0    0 -0.10320196020E+02 -0.46973186964E+01  0.22516240827E+01  0.11560322653E+02  0.00000000000E+00 0. -1.
</event>
<event>
 7    1  0.2682317E-010  0.4778724E+02  0.7816164E-02  0.1312668E+00
        -11   -1    0    0    0    0  0.00000000000E+00  0.00000000000E+00  0.45593999997E+02  0.45594000000E+02  0.51100000000E-03 0.  1.
         11   -1    0    0    0    0 -0.00000000000E+00 -0.00000000000E+00 -0.45593999997E+02  0.45594000000E+02  0.51100000000E-03 0. -1.
    9900012    2    1    2    0    0  0.14024834949E+02  0.12098877762E+02  0.39249804895E+02  0.47787239376E+02  0.19999855612E+02 0.  0.
         12    1    1    2    0    0 -0.14024834949E+02 -0.12098877762E+02 -0.39249804895E+02  0.43400760624E+02  0.00000000000E+00 0. -1.
         11    1    3    3    0    0  0.21892770744E+01  0.45350511317E+01  0.10754935761E+02  0.11875532256E+02  0.51100000000E-03 0.  1.
        -11    1    3    3    0    0  0.84801134502E+01 -0.42092367302E+01  0.10388827589E+02  0.14055523360E+02  0.51100000000E-03 0. -1.
         12    1    3    3    0    0  0.33554444243E+01  0.11773063360E+02  0.18106041545E+02  0.21856183761E+02  0.00000000000E+00 0. -1.
</event>
<event>
 7    1  0.2682317E-010  0.4778728E+02  0.7816164E-02  0.1312668E+00
        -11   -1    0    0    0    0  0.00000000000E+00  0.00000000000E+00  0.45593999997E+02  0.45594000000E+02  0.51100000000E-03 0.  1.
         11   -1    0    0    0    0 -0.00000000000E+00 -0.00000000000E+00 -0.45593999997E+02  0.45594000000E+02  0.51100000000E-03 0. -1.
    9900012    2    1    2    0    0  0.13763349485E+02 -0.14755120657E+02  0.38424985795E+02  0.47787275260E+02  0.20000019221E+02 0.  0.
         12    1    1    2    0    0 -0.13763349485E+02  0.14755120657E+02 -0.38424985795E+02  0.43400724740E+02  0.00000000000E+00 0. -1.
         11    1    3    3    0    0  0.78178433673E+01 -0.10194288392E+02  0.35781977295E+02  0.38018312563E+02  0.51100000000E-03 0.  1.
        -11    1    3    3    0    0  0.28300623394E+01  0.77476663744E+00  0.20130848321E+01  0.35583742060E+01  0.51100000000E-03 0. -1.
        -12    1    3    3    0    0  0.31154437782E+01 -0.53355989018E+01  0.62992366704E+00  0.62105884908E+01  0.00000000000E+00 0.  1.
</event>
<event>
 7    1  0.2682317E-010  0.4778726E+02  0.7816164E-02  0.1312668E+00
        -11   -1    0    0    0    0  0.00000000000E+00  0.00000000000E+00  0.45593999997E+02  0.45594000000E+02  0.51100000000E-03 0. -1.
         11   -1    0    0    0    0 -0.00000000000E+00 -0.00000000000E+00 -0.45593999997E+02  0.45594000000E+02  0.51100000000E-03 0.  1.
    9900012    2    1    2    0    0 -0.29807983195E+02  0.31164328562E+02 -0.48880044087E+01  0.47787264707E+02  0.19999971105E+02 0.  0.
         12    1    1    2    0    0  0.29807983195E+02 -0.31164328562E+02  0.48880044087E+01  0.43400735293E+02  0.00000000000E+00 0. -1.
         11    1    3    3    0    0 -0.82545589589E+01  0.56474527282E+01 -0.30641943355E+01  0.10460437520E+02  0.51100000000E-03 0. -1.
        -11    1    3    3    0    0 -0.23630315644E+02  0.25709976902E+02 -0.27838985185E+01  0.35030626899E+02  0.51100000000E-03 0.  1.
         12    1    3    3    0    0  0.20768914070E+01 -0.19310106880E+00  0.96008844535E+00  0.22962002879E+01  0.00000000000E+00 0. -1.
</event>
<event>
 7    1  0.2682317E-010  0.4778727E+02  0.7816164E-02  0.1312668E+00
        -11   -1    0    0    0    0  0.00000000000E+00  0.00000000000E+00  0.45593999997E+02  0.45594000000E+02  0.51100000000E-03 0.  1.
         11   -1    0    0    0    0 -0.00000000000E+00 -0.00000000000E+00 -0.45593999997E+02  0.45594000000E+02  0.51100000000E-03 0. -1.
    9900012    2    1    2    0    0  0.28557243745E+02 -0.38675572639E+01  0.32452263220E+02  0.47787267776E+02  0.19999985097E+02 0.  0.
         12    1    1    2    0    0 -0.28557243745E+02  0.38675572639E+01 -0.32452263220E+02  0.43400732224E+02  0.00000000000E+00 0. -1.
         11    1    3    3    0    0  0.22153616135E+02  0.33027554188E+01  0.15291901835E+02  0.27120714652E+02  0.51100000000E-03 0. -1.
        -11    1    3    3    0    0  0.48377188308E+01 -0.13600718207E+01  0.10793279605E+02  0.11905805464E+02  0.51100000000E-03 0.  1.
         12    1    3    3    0    0  0.15659087792E+01 -0.58102408620E+01  0.63670817795E+01  0.87607476602E+01  0.00000000000E+00 0. -1.
</event>
<event>
 7    1  0.2682317E-010  0.4778724E+02  0.7816164E-02  0.1312668E+00
        -11   -1    0    0    0    0  0.00000000000E+00  0.00000000000E+00  0.45593999997E+02  0.45594000000E+02  0.51100000000E-03 0. -1.
         11   -1    0    0    0    0 -0.00000000000E+00 -0.00000000000E+00 -0.45593999997E+02  0.45594000000E+02  0.51100000000E-03 0.  1.
    9900012    2    1    2    0    0  0.25063276241E+02 -0.32673873655E+02 -0.13706778982E+02  0.47787243951E+02  0.19999876472E+02 0.  0.
         12    1    1    2    0    0 -0.25063276241E+02  0.32673873655E+02  0.13706778982E+02  0.43400756049E+02  0.00000000000E+00 0. -1.
         11    1    3    3    0    0  0.48058394765E+01 -0.10163449167E+02 -0.77776768932E+01  0.13670554127E+02  0.51100000000E-03 0. -1.
        -11    1    3    3    0    0  0.17586544002E+02 -0.23798695343E+02 -0.78102716791E+01  0.30604979561E+02  0.51100000000E-03 0.  1.
        -12    1    3    3    0    0  0.26708927629E+01  0.12882708550E+01  0.18811695901E+01  0.35117102633E+01  0.00000000000E+00 0.  1.
</event>
<event>
 7    1  0.3150920E-010  0.4778728E+02  0.7816164E-02  0.1312668E+00
        -11   -1    0    0    0    0  0.00000000000E+00  0.00000000000E+00  0.45593999997E+02  0.45594000000E+02  0.51100000000E-03 0. -1.
         11   -1    0    0    0    0 -0.00000000000E+00 -0.00000000000E+00 -0.45593999997E+02  0.45594000000E+02  0.51100000000E-03 0.  1.
    9900012    2    1    2    0    0  0.26796456433E+02  0.40963341675E+01 -0.33893847104E+02  0.47787275323E+02  0.20000019510E+02 0.  0.
         12    1    1    2    0    0 -0.26796456433E+02 -0.40963341675E+01  0.33893847104E+02  0.43400724677E+02  0.00000000000E+00 0. -1.
         11    1    3    3    0    0 -0.13964370521E+01  0.13087741247E+01 -0.44432696093E+01  0.48379304700E+01  0.51100000000E-03 0. -1.
        -11    1    3    3    0    0  0.10619612074E+02  0.21502520375E+01 -0.20570305598E+02  0.23249456275E+02  0.51100000000E-03 0.  1.
         12    1    3    3    0    0  0.17573281411E+02  0.63730800535E+00 -0.88802718960E+01  0.19699888578E+02  0.00000000000E+00 0. -1.
</event>
<event>
 7    1  0.2682317E-010  0.4778726E+02  0.7816164E-02  0.1312668E+00
        -11   -1    0    0    0    0  0.00000000000E+00  0.00000000000E+00  0.45593999997E+02  0.45594000000E+02  0.51100000000E-03 0.  1.
         11   -1    0    0    0    0 -0.00000000000E+00 -0.00000000000E+00 -0.45593999997E+02  0.45594000000E+02  0.51100000000E-03 0. -1.
    9900012    2    1    2    0    0 -0.64082522629E+01 -0.46172836761E+01  0.42675977676E+02  0.47787261801E+02  0.19999957854E+02 0.  0.
         12    1    1    2    0    0  0.64082522629E+01  0.46172836761E+01 -0.42675977676E+02  0.43400738199E+02  0.00000000000E+00 0. -1.
         11    1    3    3    0    0  0.34143085016E-01  0.39443890196E+01  0.11859240737E+02  0.12498038310E+02  0.51100000000E-03 0. -1.
        -11    1    3    3    0    0 -0.13068873932E+01 -0.56900555191E+01  0.28289401390E+02  0.28885548597E+02  0.51100000000E-03 0.  1.
         12    1    3    3    0    0 -0.51355079547E+01 -0.28716171765E+01  0.25273355493E+01  0.64036748934E+01  0.00000000000E+00 0. -1.
</event>
<event>
 7    1  0.2682317E-010  0.4778727E+02  0.7816164E-02  0.1312668E+00
        -11   -1    0    0    0    0  0.00000000000E+00  0.00000000000E+00  0.45593999997E+02  0.45594000000E+02  0.51100000000E-03 0.  1.
         11   -1    0    0    0    0 -0.00000000000E+00 -0.00000000000E+00 -0.45593999997E+02  0.45594000000E+02  0.51100000000E-03 0. -1.
    9900012    2    1    2    0    0 -0.32870032648E+02  0.32420323897E+00  0.28338653299E+02  0.47787269306E+02  0.19999992073E+02 0.  0.
         12    1    1    2    0    0  0.32870032648E+02 -0.32420323897E+00 -0.28338653299E+02  0.43400730694E+02  0.00000000000E+00 0. -1.
         11    1    3    3    0    0 -0.68814751933E+01  0.14198675770E+01  0.74602246033E+01  0.10248203558E+02  0.51100000000E-03 0. -1.
        -11    1    3    3    0    0 -0.11199942808E+02  0.68057653827E+00  0.19606196130E+02  0.22589927629E+02  0.51100000000E-03 0.  1.
         12    1    3    3    0    0 -0.14788614646E+02 -0.17762408763E+01  0.12722325654E+01  0.14949138119E+02  0.00000000000E+00 0. -1.
</event>
<event>
 7    1  0.2682317E-010  0.4778727E+02  0.7816164E-02  0.1312668E+00
        -11   -1    0    0    0    0  0.00000000000E+00  0.00000000000E+00  0.45593999997E+02  0.45594000000E+02  0.51100000000E-03 0.  1.
         11   -1    0    0    0    0 -0.00000000000E+00 -0.00000000000E+00 -0.45593999997E+02  0.45594000000E+02  0.51100000000E-03 0. -1.
    9900012    2    1    2    0    0  0.12161270344E+02 -0.22355909201E+02  0.35155941961E+02  0.47787269272E+02  0.19999991919E+02 0.  0.
         12    1    1    2    0    0 -0.12161270344E+02  0.22355909201E+02 -0.35155941961E+02  0.43400730728E+02  0.00000000000E+00 0. -1.
         11    1    3    3    0    0  0.54012410613E+01 -0.14102292865E+02  0.16387451911E+02  0.22284448601E+02  0.51100000000E-03 0. -1.
        -11    1    3    3    0    0 -0.39874776084E+01 -0.36502051700E+01  0.76581501676E+01  0.93739660610E+01  0.51100000000E-03 0.  1.
         12    1    3    3    0    0  0.10747506891E+02 -0.46034111659E+01  0.11110339882E+02  0.16128854610E+02  0.00000000000E+00 0. -1.
</event>
<event>
 7    1  0.2682317E-010  0.4778727E+02  0.7816164E-02  0.1312668E+00
        -11   -1    0    0    0    0  0.00000000000E+00  0.00000000000E+00  0.45593999997E+02  0.45594000000E+02  0.51100000000E-03 0.  1.
         11   -1    0    0    0    0 -0.00000000000E+00 -0.00000000000E+00 -0.45593999997E+02  0.45594000000E+02  0.51100000000E-03 0. -1.
    9900012    2    1    2    0    0  0.11510806398E+02  0.32870725515E+02  0.25896714019E+02  0.47787273546E+02  0.20000011404E+02 0.  0.
         12    1    1    2    0    0 -0.11510806398E+02 -0.32870725515E+02 -0.25896714019E+02  0.43400726454E+02  0.00000000000E+00 0. -1.
         11    1    3    3    0    0  0.16115019719E+01 -0.41236634885E+00  0.12350983251E+00  0.16680046616E+01  0.51100000000E-03 0. -1.
        -11    1    3    3    0    0  0.25203034477E+01  0.21550996104E+02  0.70299077212E+01  0.22808265286E+02  0.51100000000E-03 0.  1.
         12    1    3    3    0    0  0.73790009785E+01  0.11732095760E+02  0.18743296465E+02  0.23311003598E+02  0.00000000000E+00 0. -1.
</event>
<event>
 7    1  0.2682317E-010  0.4778727E+02  0.7816164E-02  0.1312668E+00
        -11   -1    0    0    0    0  0.00000000000E+00  0.00000000000E+00  0.45593999997E+02  0.45594000000E+02  0.51100000000E-03 0. -1.
         11   -1    0    0    0    0 -0.00000000000E+00 -0.00000000000E+00 -0.45593999997E+02  0.45594000000E+02  0.51100000000E-03 0.  1.
    9900012    2    1    2    0    0 -0.25896737681E+02  0.27428330604E+02 -0.21463202992E+02  0.47787269305E+02  0.19999992067E+02 0.  0.
         12    1    1    2    0    0  0.25896737681E+02 -0.27428330604E+02  0.21463202992E+02  0.43400730695E+02  0.00000000000E+00 0. -1.
         11    1    3    3    0    0 -0.28725005875E+01  0.70048858429E+01  0.37570420181E+00  0.75802928179E+01  0.51100000000E-03 0. -1.
        -11    1    3    3    0    0 -0.93234964614E+01  0.16692919612E+02 -0.92927008599E+01  0.21258773270E+02  0.51100000000E-03 0.  1.
        -12    1    3    3    0    0 -0.13700740632E+02  0.37305251491E+01 -0.12546206334E+02  0.18948203216E+02  0.00000000000E+00 0.  1.
</event>
<event>
 7    1  0.2682317E-010  0.4778727E+02  0.7816164E-02  0.1312668E+00
        -11   -1    0    0    0    0  0.00000000000E+00  0.00000000000E+00  0.45593999997E+02  0.45594000000E+02  0.51100000000E-03 0.  1.
         11   -1    0    0    0    0 -0.00000000000E+00 -0.00000000000E+00 -0.45593999997E+02  0.45594000000E+02  0.51100000000E-03 0. -1.
    9900012    2    1    2    0    0 -0.19122229747E+02 -0.38590446478E+02 -0.53610697611E+01  0.47787270757E+02  0.19999998690E+02 0.  0.
         12    1    1    2    0    0  0.19122229747E+02  0.38590446478E+02  0.53610697611E+01  0.43400729243E+02  0.00000000000E+00 0. -1.
         11    1    3    3    0    0 -0.73098381344E+01 -0.21956185281E+02  0.30454163972E+00  0.23143045425E+02  0.51100000000E-03 0. -1.
        -11    1    3    3    0    0 -0.41283369199E+01 -0.66653046220E+01  0.39743902512E+01  0.87900642522E+01  0.51100000000E-03 0.  1.
        -12    1    3    3    0    0 -0.76840546927E+01 -0.99689565743E+01 -0.96400016521E+01  0.15854161080E+02  0.00000000000E+00 0.  1.
</event>
<event>
 7    1  0.2682317E-010  0.4778727E+02  0.7816164E-02  0.1312668E+00
        -11   -1    0    0    0    0  0.00000000000E+00  0.00000000000E+00  0.45593999997E+02  0.45594000000E+02  0.51100000000E-03 0.  1.
         11   -1    0    0    0    0 -0.00000000000E+00 -0.00000000000E+00 -0.45593999997E+02  0.45594000000E+02  0.51100000000E-03 0. -1.
    9900012    2    1    2    0    0 -0.38247905910E+02  0.15034779897E+02  0.13952647801E+02  0.47787270816E+02  0.19999998957E+02 0.  0.
         12    1    1    2    0    0  0.38247905910E+02 -0.15034779897E+02 -0.13952647801E+02  0.43400729184E+02  0.00000000000E+00 0. -1.
         11    1    3    3    0    0 -0.90928996940E+01  0.74320261767E+01  0.84012751629E+01  0.14439434288E+02  0.51100000000E-03 0.  1.
        -11    1    3    3    0    0 -0.89911969725E+01 -0.21693809496E+01  0.58406447236E+01  0.10938965570E+02  0.51100000000E-03 0. -1.
        -12    1    3    3    0    0 -0.20163809244E+02  0.97721346700E+01 -0.28927208571E+00  0.22408870957E+02  0.00000000000E+00 0.  1.
</event>
<event>
 7    1  0.2682317E-010  0.4778727E+02  0.7816164E-02  0.1312668E+00
        -11   -1    0    0    0    0  0.00000000000E+00  0.00000000000E+00  0.45593999997E+02  0.45594000000E+02  0.51100000000E-03 0.  1.
         11   -1    0    0    0    0 -0.00000000000E+00 -0.00000000000E+00 -0.45593999997E+02  0.45594000000E+02  0.51100000000E-03 0. -1.
    9900012    2    1    2    0    0  0.14833340817E+02 -0.98095349827E+01  0.39590002638E+02  0.47787270914E+02  0.19999999404E+02 0.  0.
         12    1    1    2    0    0 -0.14833340817E+02  0.98095349827E+01 -0.39590002638E+02  0.43400729086E+02  0.00000000000E+00 0. -1.
         11    1    3    3    0    0  0.21437690201E+01 -0.63189646940E+01  0.63986173267E+01  0.92448561032E+01  0.51100000000E-03 0. -1.
        -11    1    3    3    0    0 -0.25709534674E+01 -0.27525061042E+01  0.34568707975E+01  0.51123426682E+01  0.51100000000E-03 0.  1.
        -12    1    3    3    0    0  0.15260525264E+02 -0.73806418450E+00  0.29734514514E+02  0.33430072142E+02  0.00000000000E+00 0.  1.
</event>
<event>
 7    1  0.2682317E-010  0.4778727E+02  0.7816164E-02  0.1312668E+00
        -11   -1    0    0    0    0  0.00000000000E+00  0.00000000000E+00  0.45593999997E+02  0.45594000000E+02  0.51100000000E-03 0.  1.
         11   -1    0    0    0    0 -0.00000000000E+00 -0.00000000000E+00 -0.45593999997E+02  0.45594000000E+02  0.51100000000E-03 0. -1.
    9900012    2    1    2    0    0  0.57510643871E+01  0.37470419034E+02  0.21130928208E+02  0.47787272229E+02  0.20000005399E+02 0.  0.
         12    1    1    2    0    0 -0.57510643871E+01 -0.37470419034E+02 -0.21130928208E+02  0.43400727771E+02  0.00000000000E+00 0. -1.
         11    1    3    3    0    0 -0.20709706918E+01  0.47760784429E+01 -0.16016634929E+01  0.54465742540E+01  0.51100000000E-03 0. -1.
        -11    1    3    3    0    0 -0.13334946199E+01  0.17848987983E+02  0.84293336032E+01  0.19784292891E+02  0.51100000000E-03 0.  1.
         12    1    3    3    0    0  0.91555296988E+01  0.14845352608E+02  0.14303258097E+02  0.22556405084E+02  0.00000000000E+00 0. -1.
</event>
<event>
 7    1  0.2682317E-010  0.4778727E+02  0.7816164E-02  0.1312668E+00
        -11   -1    0    0    0    0  0.00000000000E+00  0.00000000000E+00  0.45593999997E+02  0.45594000000E+02  0.51100000000E-03 0.  1.
         11   -1    0    0    0    0 -0.00000000000E+00 -0.00000000000E+00 -0.45593999997E+02  0.45594000000E+02  0.51100000000E-03 0. -1.
    9900012    2    1    2    0    0  0.35429472211E+02 -0.48055791812E+01  0.24602481088E+02  0.47787272263E+02  0.20000005557E+02 0.  0.
         12    1    1    2    0    0 -0.35429472211E+02  0.48055791812E+01 -0.24602481088E+02  0.43400727737E+02  0.00000000000E+00 0. -1.
         11    1    3    3    0    0  0.19040218609E+02  0.49093517051E+01  0.13984120048E+02  0.24128557202E+02  0.51100000000E-03 0. -1.
        -11    1    3    3    0    0  0.58626760758E+01 -0.29717617144E+01  0.88639638039E+01  0.11035043862E+02  0.51100000000E-03 0.  1.
        -12    1    3    3    0    0  0.10526577526E+02 -0.67431691719E+01  0.17543972353E+01  0.12623671200E+02  0.00000000000E+00 0.  1.
</event>
<event>
 7    1  0.2682317E-010  0.4778727E+02  0.7816164E-02  0.1312668E+00
        -11   -1    0    0    0    0  0.00000000000E+00  0.00000000000E+00  0.45593999997E+02  0.45594000000E+02  0.51100000000E-03 0. -1.
         11   -1    0    0    0    0 -0.00000000000E+00 -0.00000000000E+00 -0.45593999997E+02  0.45594000000E+02  0.51100000000E-03 0.  1.
    9900012    2    1    2    0    0  0.28039803752E+02  0.32084599431E+02 -0.82444803341E+01  0.47787267621E+02  0.19999984391E+02 0.  0.
         12    1    1    2    0    0 -0.28039803752E+02 -0.32084599431E+02  0.82444803341E+01  0.43400732379E+02  0.00000000000E+00 0. -1.
         11    1    3    3    0    0  0.19230215128E+02  0.11667859033E+02 -0.61175037672E+01  0.23310168616E+02  0.51100000000E-03 0. -1.
        -11    1    3    3    0    0  0.52578960792E+01  0.92198303240E+01 -0.58949062425E+01  0.12140867442E+02  0.51100000000E-03 0.  1.
         12    1    3    3    0    0  0.35516925440E+01  0.11196910074E+02  0.37679296756E+01  0.12336231563E+02  0.00000000000E+00 0. -1.
</event>
<event>
 7    1  0.2682317E-010  0.4778727E+02  0.7816164E-02  0.1312668E+00
        -11   -1    0    0    0    0  0.00000000000E+00  0.00000000000E+00  0.45593999997E+02  0.45594000000E+02  0.51100000000E-03 0.  1.
         11   -1    0    0    0    0 -0.00000000000E+00 -0.00000000000E+00 -0.45593999997E+02  0.45594000000E+02  0.51100000000E-03 0. -1.
    9900012    2    1    2    0    0  0.15393545002E+02 -0.40041681025E+02  0.65822374433E+01  0.47787270780E+02  0.19999998795E+02 0.  0.
         12    1    1    2    0    0 -0.15393545002E+02  0.40041681025E+02 -0.65822374433E+01  0.43400729220E+02  0.00000000000E+00 0. -1.
         11    1    3    3    0    0  0.36990096192E+01 -0.14779909021E+01  0.17603467009E+01  0.43549913935E+01  0.51100000000E-03 0.  1.
        -11    1    3    3    0    0  0.13155481561E+02 -0.17924335827E+02  0.21677622669E+00  0.22235006232E+02  0.51100000000E-03 0. -1.
         12    1    3    3    0    0 -0.14609461781E+01 -0.20639354296E+02  0.46051145158E+01  0.21197273155E+02  0.00000000000E+00 0. -1.
</event>
<event>
 7    1  0.2682317E-010  0.4778727E+02  0.7816164E-02  0.1312668E+00
        -11   -1    0    0    0    0  0.00000000000E+00  0.00000000000E+00  0.45593999997E+02  0.45594000000E+02  0.51100000000E-03 0.  1.
         11   -1    0    0    0    0 -0.00000000000E+00 -0.00000000000E+00 -0.45593999997E+02  0.45594000000E+02  0.51100000000E-03 0. -1.
    9900012    2    1    2    0    0 -0.91025624664E+01 -0.85554185625E+01  0.41564060200E+02  0.47787275000E+02  0.20000018035E+02 0.  0.
         12    1    1    2    0    0  0.91025624664E+01  0.85554185625E+01 -0.41564060200E+02  0.43400725000E+02  0.00000000000E+00 0. -1.
         11    1    3    3    0    0 -0.81134807069E+00 -0.25723820883E+01  0.36253124047E+01  0.45186641381E+01  0.51100000000E-03 0. -1.
        -11    1    3    3    0    0 -0.88233460951E+01  0.21825463604E-01  0.35801222850E+02  0.36872475784E+02  0.51100000000E-03 0.  1.
        -12    1    3    3    0    0  0.53213169942E+00 -0.60048619378E+01  0.21375249455E+01  0.63961350775E+01  0.00000000000E+00 0.  1.
</event>
<event>
 7    1  0.2682317E-010  0.4778727E+02  0.7816164E-02  0.1312668E+00
        -11   -1    0    0    0    0  0.00000000000E+00  0.00000000000E+00  0.45593999997E+02  0.45594000000E+02  0.51100000000E-03 0.  1.
         11   -1    0    0    0    0 -0.00000000000E+00 -0.00000000000E+00 -0.45593999997E+02  0.45594000000E+02  0.51100000000E-03 0. -1.
    9900012    2    1    2    0    0  0.35342520319E+02  0.14257320771E+02  0.20766758403E+02  0.47787271980E+02  0.20000004267E+02 0.  0.
         12    1    1    2    0    0 -0.35342520319E+02 -0.14257320771E+02 -0.20766758403E+02  0.43400728020E+02  0.00000000000E+00 0. -1.
         11    1    3    3    0    0  0.28345868185E+02  0.78781164892E+01  0.22203599075E+02  0.36858550904E+02  0.51100000000E-03 0. -1.
        -11    1    3    3    0    0  0.10774886530E+01  0.18906859774E+01  0.18014317907E+01  0.28250366405E+01  0.51100000000E-03 0.  1.
         12    1    3    3    0    0  0.59191634811E+01  0.44885183043E+01 -0.32382724633E+01  0.81036844355E+01  0.00000000000E+00 0. -1.
</event>
<event>
 7    1  0.2682317E-010  0.4778727E+02  0.7816164E-02  0.1312668E+00
        -11   -1    0    0    0    0  0.00000000000E+00  0.00000000000E+00  0.45593999997E+02  0.45594000000E+02  0.51100000000E-03 0. -1.
         11   -1    0    0    0    0 -0.00000000000E+00 -0.00000000000E+00 -0.45593999997E+02  0.45594000000E+02  0.51100000000E-03 0.  1.
    9900012    2    1    2    0    0 -0.37741746971E+02  0.21184985292E+02 -0.32218029828E+01  0.47787273269E+02  0.20000010144E+02 0.  0.
         12    1    1    2    0    0  0.37741746971E+02 -0.21184985292E+02  0.32218029828E+01  0.43400726731E+02  0.00000000000E+00 0. -1.
         11    1    3    3    0    0 -0.33202192566E+01  0.55628532583E+01  0.31787845412E+01  0.72162222601E+01  0.51100000000E-03 0. -1.
        -11    1    3    3    0    0 -0.38780189065E+01  0.25181301348E+01 -0.56843850237E+01  0.73274991214E+01  0.51100000000E-03 0.  1.
        -12    1    3    3    0    0 -0.30543508808E+02  0.13104001899E+02 -0.71620250033E+00  0.33243551888E+02  0.00000000000E+00 0.  1.
</event>
<event>
 7    1  0.2682317E-010  0.4778727E+02  0.7816164E-02  0.1312668E+00
        -11   -1    0    0    0    0  0.00000000000E+00  0.00000000000E+00  0.45593999997E+02  0.45594000000E+02  0.51100000000E-03 0.  1.
         11   -1    0    0    0    0 -0.00000000000E+00 -0.00000000000E+00 -0.45593999997E+02  0.45594000000E+02  0.51100000000E-03 0. -1.
    9900012    2    1    2    0    0  0.18109971323E+02  0.20500189811E+02  0.33695615923E+02  0.47787269867E+02  0.19999994632E+02 0.  0.
         12    1    1    2    0    0 -0.18109971323E+02 -0.20500189811E+02 -0.33695615923E+02  0.43400730133E+02  0.00000000000E+00 0. -1.
         11    1    3    3    0    0  0.64639272972E+00 -0.27752872273E+01  0.71933901264E+01  0.77372414029E+01  0.51100000000E-03 0. -1.
        -11    1    3    3    0    0  0.61021845672E+01  0.35828789857E+01  0.84363772369E+01  0.11011182473E+02  0.51100000000E-03 0.  1.
        -12    1    3    3    0    0  0.11361394026E+02  0.19692598053E+02  0.18065848560E+02  0.29038845991E+02  0.00000000000E+00 0.  1.
</event>
<event>
 7    1  0.2682317E-010  0.4778727E+02  0.7816164E-02  0.1312668E+00
        -11   -1    0    0    0    0  0.00000000000E+00  0.00000000000E+00  0.45593999997E+02  0.45594000000E+02  0.51100000000E-03 0.  1.
         11   -1    0    0    0    0 -0.00000000000E+00 -0.00000000000E+00 -0.45593999997E+02  0.45594000000E+02  0.51100000000E-03 0. -1.
    9900012    2    1    2    0    0  0.15307354503E+01  0.16927951844E+02  0.39934002160E+02  0.47787271513E+02  0.20000002136E+02 0.  0.
         12    1    1    2    0    0 -0.15307354503E+01 -0.16927951844E+02 -0.39934002160E+02  0.43400728487E+02  0.00000000000E+00 0. -1.
         11    1    3    3    0    0  0.14481999682E+01  0.60174201591E+01  0.12431027906E+02  0.13886579261E+02  0.51100000000E-03 0. -1.
        -11    1    3    3    0    0  0.79024302511E+01  0.29355035016E+01  0.93722403142E+01  0.12605731770E+02  0.51100000000E-03 0.  1.
         12    1    3    3    0    0 -0.78198947689E+01  0.79750281834E+01  0.18130733940E+02  0.21294960482E+02  0.00000000000E+00 0. -1.
</event>
<event>
 7    1  0.2682317E-010  0.4778727E+02  0.7816164E-02  0.1312668E+00
        -11   -1    0    0    0    0  0.00000000000E+00  0.00000000000E+00  0.45593999997E+02  0.45594000000E+02  0.51100000000E-03 0.  1.
         11   -1    0    0    0    0 -0.00000000000E+00 -0.00000000000E+00 -0.45593999997E+02  0.45594000000E+02  0.51100000000E-03 0. -1.
    9900012    2    1    2    0    0 -0.18806015012E+02  0.33253794758E+02  0.20594716090E+02  0.47787269623E+02  0.19999993521E+02 0.  0.
         12    1    1    2    0    0  0.18806015012E+02 -0.33253794758E+02 -0.20594716090E+02  0.43400730377E+02  0.00000000000E+00 0. -1.
         11    1    3    3    0    0 -0.65122300438E+00  0.12505202123E+01 -0.29098158859E+00  0.14396397983E+01  0.51100000000E-03 0. -1.
        -11    1    3    3    0    0  0.39180778038E+01  0.31234911037E+01  0.21259440687E+01  0.54430844928E+01  0.51100000000E-03 0.  1.
         12    1    3    3    0    0 -0.22072869811E+02  0.28879783442E+02  0.18759753610E+02  0.40904545332E+02  0.00000000000E+00 0. -1.
</event>
<event>
 7    1  0.2682317E-010  0.4778727E+02  0.7816164E-02  0.1312668E+00
        -11   -1    0    0    0    0  0.00000000000E+00  0.00000000000E+00  0.45593999997E+02  0.45594000000E+02  0.51100000000E-03 0.  1.
         11   -1    0    0    0    0 -0.00000000000E+00 -0.00000000000E+00 -0.45593999997E+02  0.45594000000E+02  0.51100000000E-03 0. -1.
    9900012    2    1    2    0    0  0.25626597378E+02 -0.31180652855E+02 -0.15958310918E+02  0.47787270825E+02  0.19999998998E+02 0.  0.
         12    1    1    2    0    0 -0.25626597378E+02  0.31180652855E+02  0.15958310918E+02  0.43400729175E+02  0.00000000000E+00 0. -1.
         11    1    3    3    0    0  0.10890448891E+02 -0.19209300043E+02 -0.10336308716E+02  0.24381106688E+02  0.51100000000E-03 0. -1.
        -11    1    3    3    0    0  0.76232129576E+01 -0.13408414529E+02 -0.44700180310E+01  0.16058643076E+02  0.51100000000E-03 0.  1.
         12    1    3    3    0    0  0.71129355287E+01  0.14370617171E+01 -0.11519841711E+01  0.73475210611E+01  0.00000000000E+00 0. -1.
</event>
<event>
 7    1  0.2682317E-010  0.4778727E+02  0.7816164E-02  0.1312668E+00
        -11   -1    0    0    0    0  0.00000000000E+00  0.00000000000E+00  0.45593999997E+02  0.45594000000E+02  0.51100000000E-03 0.  1.
         11   -1    0    0    0    0 -0.00000000000E+00 -0.00000000000E+00 -0.45593999997E+02  0.45594000000E+02  0.51100000000E-03 0. -1.
    9900012    2    1    2    0    0  0.31322297466E+02 -0.17924378737E+02  0.24109206795E+02  0.47787268163E+02  0.19999986863E+02 0.  0.
         12    1    1    2    0    0 -0.31322297466E+02  0.17924378737E+02 -0.24109206795E+02  0.43400731837E+02  0.00000000000E+00 0. -1.
         11    1    3    3    0    0  0.12142828773E+02 -0.81621113081E+01  0.75692767480E+01  0.16473078108E+02  0.51100000000E-03 0. -1.
        -11    1    3    3    0    0  0.40169797347E+01 -0.10033240235E+02  0.10254810408E+02  0.14898428526E+02  0.51100000000E-03 0.  1.
         12    1    3    3    0    0  0.15162488959E+02  0.27097280550E+00  0.62851196396E+01  0.16415761529E+02  0.00000000000E+00 0. -1.
</event>
<event>
 7    1  0.2682317E-010  0.4778728E+02  0.7816164E-02  0.1312668E+00
        -11   -1    0    0    0    0  0.00000000000E+00  0.00000000000E+00  0.45593999997E+02  0.45594000000E+02  0.51100000000E-03 0. -1.
         11   -1    0    0    0    0 -0.00000000000E+00 -0.00000000000E+00 -0.45593999997E+02  0.45594000000E+02  0.51100000000E-03 0.  1.
    9900012    2    1    2    0    0 -0.17170387925E+02 -0.36768581255E+02 -0.15390642452E+02  0.47787278070E+02  0.20000032031E+02 0.  0.
         12    1    1    2    0    0  0.17170387925E+02  0.36768581255E+02  0.15390642452E+02  0.43400721930E+02  0.00000000000E+00 0. -1.
         11    1    3    3    0    0 -0.41060898823E+01 -0.27681823152E+01 -0.64441706213E+00  0.49938042676E+01  0.51100000000E-03 0. -1.
        -11    1    3    3    0    0 -0.10082801777E+02 -0.35448027059E+02 -0.13361236311E+02  0.39201379441E+02  0.51100000000E-03 0.  1.
        -12    1    3    3    0    0 -0.29814962648E+01  0.14476281193E+01 -0.13849890790E+01  0.35920943609E+01  0.00000000000E+00 0.  1.
</event>
<event>
 7    1  0.2682317E-010  0.4778728E+02  0.7816164E-02  0.1312668E+00
        -11   -1    0    0    0    0  0.00000000000E+00  0.00000000000E+00  0.45593999997E+02  0.45594000000E+02  0.51100000000E-03 0.  1.
         11   -1    0    0    0    0 -0.00000000000E+00 -0.00000000000E+00 -0.45593999997E+02  0.45594000000E+02  0.51100000000E-03 0. -1.
    9900012    2    1    2    0    0  0.23866568078E+02  0.35739793905E+02  0.60560826981E+01  0.47787284824E+02  0.20000062824E+02 0.  0.
         12    1    1    2    0    0 -0.23866568078E+02 -0.35739793905E+02 -0.60560826981E+01  0.43400715176E+02  0.00000000000E+00 0. -1.
         11    1    3    3    0    0  0.79751354370E+01  0.10384455490E+02 -0.19363303012E+01  0.13235901041E+02  0.51100000000E-03 0. -1.
        -11    1    3    3    0    0  0.14997027819E+02  0.23982989905E+02  0.20195273578E+01  0.28357946667E+02  0.51100000000E-03 0.  1.
         12    1    3    3    0    0  0.89440482195E+00  0.13723485102E+01  0.59728856415E+01  0.61934371156E+01  0.00000000000E+00 0. -1.
</event>
<event>
 7    1  0.2682317E-010  0.4778727E+02  0.7816164E-02  0.1312668E+00
        -11   -1    0    0    0    0  0.00000000000E+00  0.00000000000E+00  0.45593999997E+02  0.45594000000E+02  0.51100000000E-03 0. -1.
         11   -1    0    0    0    0 -0.00000000000E+00 -0.00000000000E+00 -0.45593999997E+02  0.45594000000E+02  0.51100000000E-03 0.  1.
    9900012    2    1    2    0    0 -0.23046370460E+02 -0.12502166602E+01 -0.36754937323E+02  0.47787266704E+02  0.19999980210E+02 0.  0.
         12    1    1    2    0    0  0.23046370460E+02  0.12502166602E+01  0.36754937323E+02  0.43400733296E+02  0.00000000000E+00 0. -1.
         11    1    3    3    0    0  0.31431125103E+01  0.70850976007E+00 -0.30559453760E+01  0.44407144397E+01  0.51100000000E-03 0.  1.
        -11    1    3    3    0    0 -0.82394520105E+01  0.20737594426E-01 -0.56634377916E+01  0.99981762017E+01  0.51100000000E-03 0. -1.
        -12    1    3    3    0    0 -0.17950030959E+02 -0.19794640147E+01 -0.28035554155E+02  0.33348376062E+02  0.00000000000E+00 0.  1.
</event>
<event>
 7    1  0.2682317E-010  0.4778727E+02  0.7816164E-02  0.1312668E+00
        -11   -1    0    0    0    0  0.00000000000E+00  0.00000000000E+00  0.45593999997E+02  0.45594000000E+02  0.51100000000E-03 0.  1.
         11   -1    0    0    0    0 -0.00000000000E+00 -0.00000000000E+00 -0.45593999997E+02  0.45594000000E+02  0.51100000000E-03 0. -1.
    9900012    2    1    2    0    0  0.12449311744E+02  0.14602382890E+02  0.38928246837E+02  0.47787270159E+02  0.19999995963E+02 0.  0.
         12    1    1    2    0    0 -0.12449311744E+02 -0.14602382890E+02 -0.38928246837E+02  0.43400729841E+02  0.00000000000E+00 0. -1.
         11    1    3    3    0    0  0.65643903134E+01  0.20698781539E+01  0.65253160700E+01  0.94844802616E+01  0.51100000000E-03 0. -1.
        -11    1    3    3    0    0  0.64975569202E+01  0.31353344573E+01  0.25830111155E+02  0.26818710085E+02  0.51100000000E-03 0.  1.
         12    1    3    3    0    0 -0.61263549004E+00  0.93971702784E+01  0.65728196123E+01  0.11484079813E+02  0.00000000000E+00 0. -1.
</event>
<event>
 7    1  0.2682317E-010  0.4778726E+02  0.7816164E-02  0.1312668E+00
        -11   -1    0    0    0    0  0.00000000000E+00  0.00000000000E+00  0.45593999997E+02  0.45594000000E+02  0.51100000000E-03 0.  1.
         11   -1    0    0    0    0 -0.00000000000E+00 -0.00000000000E+00 -0.45593999997E+02  0.45594000000E+02  0.51100000000E-03 0. -1.
    9900012    2    1    2    0    0  0.16780759754E+02  0.27793515958E+02  0.28801924170E+02  0.47787259647E+02  0.19999948036E+02 0.  0.
         12    1    1    2    0    0 -0.16780759754E+02 -0.27793515958E+02 -0.28801924170E+02  0.43400740353E+02  0.00000000000E+00 0. -1.
         11    1    3    3    0    0  0.56902260031E+01  0.98861685535E+01  0.13178957705E+02  0.17429857345E+02  0.51100000000E-03 0. -1.
        -11    1    3    3    0    0  0.87753479067E+01  0.19252274011E+02  0.17184918782E+02  0.27257626809E+02  0.51100000000E-03 0.  1.
         12    1    3    3    0    0  0.23151858443E+01 -0.13449266058E+01 -0.15619523162E+01  0.30997754929E+01  0.00000000000E+00 0. -1.
</event>
<event>
 7    1  0.2682317E-010  0.4778726E+02  0.7816164E-02  0.1312668E+00
        -11   -1    0    0    0    0  0.00000000000E+00  0.00000000000E+00  0.45593999997E+02  0.45594000000E+02  0.51100000000E-03 0.  1.
         11   -1    0    0    0    0 -0.00000000000E+00 -0.00000000000E+00 -0.45593999997E+02  0.45594000000E+02  0.51100000000E-03 0. -1.
    9900012    2    1    2    0    0 -0.29517765996E+02 -0.30671970830E+02  0.84590621987E+01  0.47787262250E+02  0.19999959901E+02 0.  0.
         12    1    1    2    0    0  0.29517765996E+02  0.30671970830E+02 -0.84590621987E+01  0.43400737750E+02  0.00000000000E+00 0. -1.
         11    1    3    3    0    0 -0.50416109673E+00  0.11198441247E+01 -0.14730748636E+01  0.19178579431E+01  0.51100000000E-03 0. -1.
        -11    1    3    3    0    0 -0.14034751026E+02 -0.79225521945E+01  0.40161922500E+00  0.16121487769E+02  0.51100000000E-03 0.  1.
        -12    1    3    3    0    0 -0.14978853874E+02 -0.23869262760E+02  0.95305178373E+01  0.29747916538E+02  0.00000000000E+00 0.  1.
</event>
<event>
 7    1  0.2682317E-010  0.4778728E+02  0.7816164E-02  0.1312668E+00
        -11   -1    0    0    0    0  0.00000000000E+00  0.00000000000E+00  0.45593999997E+02  0.45594000000E+02  0.51100000000E-03 0. -1.
         11   -1    0    0    0    0 -0.00000000000E+00 -0.00000000000E+00 -0.45593999997E+02  0.45594000000E+02  0.51100000000E-03 0.  1.
    9900012    2    1    2    0    0  0.34149620634E+01 -0.42285488749E+02 -0.91596041079E+01  0.47787275673E+02  0.20000021105E+02 0.  0.
         12    1    1    2    0    0 -0.34149620634E+01  0.42285488749E+02  0.91596041079E+01  0.43400724327E+02  0.00000000000E+00 0. -1.
         11    1    3    3    0    0  0.63868501676E+01 -0.74985009810E+01 -0.16512128352E+01  0.99872857230E+01  0.51100000000E-03 0. -1.
        -11    1    3    3    0    0 -0.17910922266E+01 -0.12294939467E+02  0.32451567450E+01  0.12841518229E+02  0.51100000000E-03 0.  1.
        -12    1    3    3    0    0 -0.11807958775E+01 -0.22492048302E+02 -0.10753548018E+02  0.24958471722E+02  0.00000000000E+00 0.  1.
</event>
<event>
 7    1  0.2682317E-010  0.4778727E+02  0.7816164E-02  0.1312668E+00
        -11   -1    0    0    0    0  0.00000000000E+00  0.00000000000E+00  0.45593999997E+02  0.45594000000E+02  0.51100000000E-03 0. -1.
         11   -1    0    0    0    0 -0.00000000000E+00 -0.00000000000E+00 -0.45593999997E+02  0.45594000000E+02  0.51100000000E-03 0.  1.
    9900012    2    1    2    0    0 -0.36773585540E+02  0.20964270488E+02 -0.95826104886E+01  0.47787266661E+02  0.19999980013E+02 0.  0.
         12    1    1    2    0    0  0.36773585540E+02 -0.20964270488E+02  0.95826104886E+01  0.43400733339E+02  0.00000000000E+00 0. -1.
         11    1    3    3    0    0 -0.87625755786E+01  0.98071065410E+01 -0.24405033831E+01  0.13376028054E+02  0.51100000000E-03 0. -1.
        -11    1    3    3    0    0 -0.20962529613E+01  0.26514772667E+01 -0.62692354667E+01  0.71223536680E+01  0.51100000000E-03 0.  1.
         12    1    3    3    0    0 -0.25914757001E+02  0.85056866807E+01 -0.87287163887E+00  0.27288884939E+02  0.00000000000E+00 0. -1.
</event>
<event>
 7    1  0.2682317E-010  0.4778727E+02  0.7816164E-02  0.1312668E+00
        -11   -1    0    0    0    0  0.00000000000E+00  0.00000000000E+00  0.45593999997E+02  0.45594000000E+02  0.51100000000E-03 0. -1.
         11   -1    0    0    0    0 -0.00000000000E+00 -0.00000000000E+00 -0.45593999997E+02  0.45594000000E+02  0.51100000000E-03 0.  1.
    9900012    2    1    2    0    0 -0.37041734201E+02  0.14206599446E+02 -0.17598449194E+02  0.47787274724E+02  0.20000016777E+02 0.  0.
         12    1    1    2    0    0  0.37041734201E+02 -0.14206599446E+02  0.17598449194E+02  0.43400725276E+02  0.00000000000E+00 0. -1.
         11    1    3    3    0    0 -0.61804893100E+00 -0.18989775566E+01 -0.11082661278E+01  0.22839339554E+01  0.51100000000E-03 0. -1.
        -11    1    3    3    0    0 -0.24953719724E+01  0.22861249966E+01 -0.68203825222E+01  0.76138601767E+01  0.51100000000E-03 0.  1.
        -12    1    3    3    0    0 -0.33928313297E+02  0.13819452006E+02 -0.96698005441E+01  0.37889480592E+02  0.00000000000E+00 0.  1.
</event>
<event>
 7    1  0.2682317E-010  0.4778727E+02  0.7816164E-02  0.1312668E+00
        -11   -1    0    0    0    0  0.00000000000E+00  0.00000000000E+00  0.45593999997E+02  0.45594000000E+02  0.51100000000E-03 0. -1.
         11   -1    0    0    0    0 -0.00000000000E+00 -0.00000000000E+00 -0.45593999997E+02  0.45594000000E+02  0.51100000000E-03 0.  1.
    9900012    2    1    2    0    0 -0.17952653859E+02 -0.78754155727E+01 -0.38720838455E+02  0.47787270954E+02  0.19999999589E+02 0.  0.
         12    1    1    2    0    0  0.17952653859E+02  0.78754155727E+01  0.38720838455E+02  0.43400729046E+02  0.00000000000E+00 0. -1.
         11    1    3    3    0    0 -0.42038811432E+00  0.13845722067E+01  0.12751980473E+01  0.19287033684E+01  0.51100000000E-03 0. -1.
        -11    1    3    3    0    0 -0.71624902894E+01 -0.72597561681E+01 -0.11004955573E+02  0.15003811989E+02  0.51100000000E-03 0.  1.
        -12    1    3    3    0    0 -0.10369775455E+02 -0.20002316113E+01 -0.28991080930E+02  0.30854755597E+02  0.00000000000E+00 0.  1.
</event>
<event>
 7    1  0.2682317E-010  0.4778727E+02  0.7816164E-02  0.1312668E+00
        -11   -1    0    0    0    0  0.00000000000E+00  0.00000000000E+00  0.45593999997E+02  0.45594000000E+02  0.51100000000E-03 0.  1.
         11   -1    0    0    0    0 -0.00000000000E+00 -0.00000000000E+00 -0.45593999997E+02  0.45594000000E+02  0.51100000000E-03 0. -1.
    9900012    2    1    2    0    0  0.11437586809E+02  0.34342084266E+01  0.41725425271E+02  0.47787270818E+02  0.19999998966E+02 0.  0.
         12    1    1    2    0    0 -0.11437586809E+02 -0.34342084266E+01 -0.41725425271E+02  0.43400729182E+02  0.00000000000E+00 0. -1.
         11    1    3    3    0    0  0.34558475224E+01 -0.30353746404E+00  0.18625480273E+01  0.39375249212E+01  0.51100000000E-03 0. -1.
        -11    1    3    3    0    0  0.10288247697E+02  0.53216303666E+01  0.39331650048E+02  0.41001786378E+02  0.51100000000E-03 0.  1.
        -12    1    3    3    0    0 -0.23065084113E+01 -0.15838844760E+01  0.53122719546E+00  0.28479595183E+01  0.00000000000E+00 0.  1.
</event>
<event>
 7    1  0.2682317E-010  0.4778727E+02  0.7816164E-02  0.1312668E+00
        -11   -1    0    0    0    0  0.00000000000E+00  0.00000000000E+00  0.45593999997E+02  0.45594000000E+02  0.51100000000E-03 0. -1.
         11   -1    0    0    0    0 -0.00000000000E+00 -0.00000000000E+00 -0.45593999997E+02  0.45594000000E+02  0.51100000000E-03 0.  1.
    9900012    2    1    2    0    0  0.30492368395E+02  0.64243772984E+01 -0.30208705833E+02  0.47787273484E+02  0.20000011123E+02 0.  0.
         12    1    1    2    0    0 -0.30492368395E+02 -0.64243772984E+01  0.30208705833E+02  0.43400726516E+02  0.00000000000E+00 0. -1.
         11    1    3    3    0    0  0.11514047191E+02  0.64328436407E+01 -0.18234721793E+02  0.22504662609E+02  0.51100000000E-03 0. -1.
        -11    1    3    3    0    0  0.15080975546E+02  0.47718196487E+01 -0.10355323707E+02  0.18906052351E+02  0.51100000000E-03 0.  1.
         12    1    3    3    0    0  0.38973456572E+01 -0.47802859910E+01 -0.16186603339E+01  0.63765585235E+01  0.00000000000E+00 0. -1.
</event>
<event>
 7    1  0.2682317E-010  0.4778727E+02  0.7816164E-02  0.1312668E+00
        -11   -1    0    0    0    0  0.00000000000E+00  0.00000000000E+00  0.45593999997E+02  0.45594000000E+02  0.51100000000E-03 0.  1.
         11   -1    0    0    0    0 -0.00000000000E+00 -0.00000000000E+00 -0.45593999997E+02  0.45594000000E+02  0.51100000000E-03 0. -1.
    9900012    2    1    2    0    0 -0.39399143733E+02 -0.17308264850E+02 -0.56351476730E+01  0.47787269035E+02  0.19999990837E+02 0.  0.
         12    1    1    2    0    0  0.39399143733E+02  0.17308264850E+02  0.56351476730E+01  0.43400730965E+02  0.00000000000E+00 0. -1.
         11    1    3    3    0    0 -0.20309601392E+01 -0.23134085540E+00 -0.41214932763E+01  0.46005461378E+01  0.51100000000E-03 0. -1.
        -11    1    3    3    0    0 -0.34562034259E+01  0.22213887253E+01  0.35220380241E+00  0.41235855477E+01  0.51100000000E-03 0.  1.
        -12    1    3    3    0    0 -0.33911980168E+02 -0.19298312720E+02 -0.18658581991E+01  0.39063137349E+02  0.00000000000E+00 0.  1.
</event>
<event>
 7    1  0.2682317E-010  0.4778727E+02  0.7816164E-02  0.1312668E+00
        -11   -1    0    0    0    0  0.00000000000E+00  0.00000000000E+00  0.45593999997E+02  0.45594000000E+02  0.51100000000E-03 0.  1.
         11   -1    0    0    0    0 -0.00000000000E+00 -0.00000000000E+00 -0.45593999997E+02  0.45594000000E+02  0.51100000000E-03 0. -1.
    9900012    2    1    2    0    0 -0.58572561560E+01  0.22236945148E+02  0.36808069059E+02  0.47787272736E+02  0.20000007711E+02 0.  0.
         12    1    1    2    0    0  0.58572561560E+01 -0.22236945148E+02 -0.36808069059E+02  0.43400727264E+02  0.00000000000E+00 0. -1.
         11    1    3    3    0    0  0.69650803410E+00  0.14205690056E+01  0.43533250271E+00  0.16409309523E+01  0.51100000000E-03 0. -1.
        -11    1    3    3    0    0 -0.65379521853E+01  0.21963868810E+02  0.22129811276E+02  0.31857258189E+02  0.51100000000E-03 0.  1.
        -12    1    3    3    0    0 -0.15812004706E-01 -0.11474926678E+01  0.14242925280E+02  0.14289083595E+02  0.00000000000E+00 0.  1.
</event>
<event>
 7    1  0.2682317E-010  0.4778728E+02  0.7816164E-02  0.1312668E+00
        -11   -1    0    0    0    0  0.00000000000E+00  0.00000000000E+00  0.45593999997E+02  0.45594000000E+02  0.51100000000E-03 0.  1.
         11   -1    0    0    0    0 -0.00000000000E+00 -0.00000000000E+00 -0.45593999997E+02  0.45594000000E+02  0.51100000000E-03 0. -1.
    9900012    2    1    2    0    0 -0.26606987150E+02 -0.34284299174E+02  0.52691745776E+00  0.47787279073E+02  0.20000036604E+02 0.  0.
         12    1    1    2    0    0  0.26606987150E+02  0.34284299174E+02 -0.52691745776E+00  0.43400720927E+02  0.00000000000E+00 0. -1.
         11    1    3    3    0    0 -0.21939592163E+02 -0.23495444868E+02  0.55968846255E+01  0.32629844492E+02  0.51100000000E-03 0.  1.
        -11    1    3    3    0    0 -0.39778488685E+00 -0.16446970889E+01  0.21593765858E+01  0.27433863802E+01  0.51100000000E-03 0. -1.
        -12    1    3    3    0    0 -0.42696101000E+01 -0.91441572172E+01 -0.72293437535E+01  0.12414048201E+02  0.00000000000E+00 0.  1.
</event>
<event>
 7    1  0.2682317E-010  0.4778727E+02  0.7816164E-02  0.1312668E+00
        -11   -1    0    0    0    0  0.00000000000E+00  0.00000000000E+00  0.45593999997E+02  0.45594000000E+02  0.51100000000E-03 0.  1.
         11   -1    0    0    0    0 -0.00000000000E+00 -0.00000000000E+00 -0.45593999997E+02  0.45594000000E+02  0.51100000000E-03 0. -1.
    9900012    2    1    2    0    0  0.20071549778E+02 -0.56150772045E+01  0.38068713723E+02  0.47787272275E+02  0.20000005610E+02 0.  0.
         12    1    1    2    0    0 -0.20071549778E+02  0.56150772045E+01 -0.38068713723E+02  0.43400727725E+02  0.00000000000E+00 0. -1.
         11    1    3    3    0    0  0.31091833002E+01  0.36758877598E+01  0.16290633400E+02  0.16987168936E+02  0.51100000000E-03 0. -1.
        -11    1    3    3    0    0  0.80049118239E+01  0.60642380157E+00  0.11137549457E+02  0.13729215976E+02  0.51100000000E-03 0.  1.
        -12    1    3    3    0    0  0.89574546543E+01 -0.98973887658E+01  0.10640530866E+02  0.17070887364E+02  0.00000000000E+00 0.  1.
</event>
<event>
 7    1  0.2682317E-010  0.4778728E+02  0.7816164E-02  0.1312668E+00
        -11   -1    0    0    0    0  0.00000000000E+00  0.00000000000E+00  0.45593999997E+02  0.45594000000E+02  0.51100000000E-03 0. -1.
         11   -1    0    0    0    0 -0.00000000000E+00 -0.00000000000E+00 -0.45593999997E+02  0.45594000000E+02  0.51100000000E-03 0.  1.
    9900012    2    1    2    0    0  0.36881734376E+02 -0.72507114761E+01 -0.21697641458E+02  0.47787276592E+02  0.20000025294E+02 0.  0.
         12    1    1    2    0    0 -0.36881734376E+02  0.72507114761E+01  0.21697641458E+02  0.43400723408E+02  0.00000000000E+00 0. -1.
         11    1    3    3    0    0  0.16646635394E+02 -0.68369010292E+01 -0.76916104661E+01  0.19570757712E+02  0.51100000000E-03 0. -1.
        -11    1    3    3    0    0  0.14518033216E+02 -0.61522405537E+01 -0.12151040962E+02  0.19906560452E+02  0.51100000000E-03 0.  1.
         12    1    3    3    0    0  0.57170657660E+01  0.57384301068E+01 -0.18549900300E+01  0.83099584280E+01  0.00000000000E+00 0. -1.
</event>
<event>
 7    1  0.2682317E-010  0.4778727E+02  0.7816164E-02  0.1312668E+00
        -11   -1    0    0    0    0  0.00000000000E+00  0.00000000000E+00  0.45593999997E+02  0.45594000000E+02  0.51100000000E-03 0.  1.
         11   -1    0    0    0    0 -0.00000000000E+00 -0.00000000000E+00 -0.45593999997E+02  0.45594000000E+02  0.51100000000E-03 0. -1.
    9900012    2    1    2    0    0  0.16793763149E+02  0.32639115053E+02  0.23157736886E+02  0.47787273165E+02  0.20000009667E+02 0.  0.
         12    1    1    2    0    0 -0.16793763149E+02 -0.32639115053E+02 -0.23157736886E+02  0.43400726835E+02  0.00000000000E+00 0. -1.
         11    1    3    3    0    0  0.76014931998E+00  0.13274880714E+02  0.14130711149E+02  0.19403022517E+02  0.51100000000E-03 0. -1.
        -11    1    3    3    0    0  0.40639419191E+00 -0.21777638865E+00 -0.12292934512E+01  0.13129148659E+01  0.51100000000E-03 0.  1.
        -12    1    3    3    0    0  0.15627219637E+02  0.19582010728E+02  0.10256319188E+02  0.27071335782E+02  0.00000000000E+00 0.  1.
</event>
<event>
 7    1  0.2682317E-010  0.4778727E+02  0.7816164E-02  0.1312668E+00
        -11   -1    0    0    0    0  0.00000000000E+00  0.00000000000E+00  0.45593999997E+02  0.45594000000E+02  0.51100000000E-03 0.  1.
         11   -1    0    0    0    0 -0.00000000000E+00 -0.00000000000E+00 -0.45593999997E+02  0.45594000000E+02  0.51100000000E-03 0. -1.
    9900012    2    1    2    0    0  0.13790992759E+02 -0.20786630743E+02  0.35515457195E+02  0.47787271910E+02  0.20000003948E+02 0.  0.
         12    1    1    2    0    0 -0.13790992759E+02  0.20786630743E+02 -0.35515457195E+02  0.43400728090E+02  0.00000000000E+00 0. -1.
         11    1    3    3    0    0  0.22191944863E+01 -0.28008281631E+01  0.65579041493E+00  0.36331149027E+01  0.51100000000E-03 0. -1.
        -11    1    3    3    0    0  0.36919585864E+01 -0.18036943118E+02  0.28933475255E+02  0.34294429079E+02  0.51100000000E-03 0.  1.
        -12    1    3    3    0    0  0.78798396862E+01  0.51140537563E-01  0.59261915249E+01  0.98597279285E+01  0.00000000000E+00 0.  1.
</event>
<event>
 7    1  0.2682317E-010  0.4778726E+02  0.7816164E-02  0.1312668E+00
        -11   -1    0    0    0    0  0.00000000000E+00  0.00000000000E+00  0.45593999997E+02  0.45594000000E+02  0.51100000000E-03 0.  1.
         11   -1    0    0    0    0 -0.00000000000E+00 -0.00000000000E+00 -0.45593999997E+02  0.45594000000E+02  0.51100000000E-03 0. -1.
    9900012    2    1    2    0    0  0.45475560250E+01  0.63026300650E+01  0.42699193811E+02  0.47787256186E+02  0.19999932254E+02 0.  0.
         12    1    1    2    0    0 -0.45475560250E+01 -0.63026300650E+01 -0.42699193811E+02  0.43400743814E+02  0.00000000000E+00 0. -1.
         11    1    3    3    0    0  0.10164540619E+01 -0.29070384910E+01  0.68077262804E+01  0.74718932686E+01  0.51100000000E-03 0. -1.
        -11    1    3    3    0    0  0.80878198555E+01  0.26732730736E-01  0.14855818978E+02  0.16914753986E+02  0.51100000000E-03 0.  1.
         12    1    3    3    0    0 -0.45567178924E+01  0.91829358252E+01  0.21035648553E+02  0.23400608931E+02  0.00000000000E+00 0. -1.
</event>
<event>
 7    1  0.2682317E-010  0.4778727E+02  0.7816164E-02  0.1312668E+00
        -11   -1    0    0    0    0  0.00000000000E+00  0.00000000000E+00  0.45593999997E+02  0.45594000000E+02  0.51100000000E-03 0. -1.
         11   -1    0    0    0    0 -0.00000000000E+00 -0.00000000000E+00 -0.45593999997E+02  0.45594000000E+02  0.51100000000E-03 0.  1.
    9900012    2    1    2    0    0  0.24220900242E+02 -0.31406185856E+02 -0.17624493465E+02  0.47787270876E+02  0.19999999234E+02 0.  0.
         12    1    1    2    0    0 -0.24220900242E+02  0.31406185856E+02  0.17624493465E+02  0.43400729124E+02  0.00000000000E+00 0. -1.
         11    1    3    3    0    0  0.14590022473E+02 -0.10205641723E+02 -0.19203035875E+01  0.17908418268E+02  0.51100000000E-03 0. -1.
        -11    1    3    3    0    0  0.36368357977E+01 -0.15085739019E+02 -0.52863451712E+01  0.16393643338E+02  0.51100000000E-03 0.  1.
         12    1    3    3    0    0  0.59940419717E+01 -0.61148051143E+01 -0.10417844706E+02  0.13485209270E+02  0.00000000000E+00 0. -1.
</event>
<event>
 7    1  0.2682317E-010  0.4778728E+02  0.7816164E-02  0.1312668E+00
        -11   -1    0    0    0    0  0.00000000000E+00  0.00000000000E+00  0.45593999997E+02  0.45594000000E+02  0.51100000000E-03 0.  1.
         11   -1    0    0    0    0 -0.00000000000E+00 -0.00000000000E+00 -0.45593999997E+02  0.45594000000E+02  0.51100000000E-03 0. -1.
    9900012    2    1    2    0    0 -0.12944623368E+02  0.41012563626E+02  0.58334619995E+01  0.47787275027E+02  0.20000018157E+02 0.  0.
         12    1    1    2    0    0  0.12944623368E+02 -0.41012563626E+02 -0.58334619995E+01  0.43400724973E+02  0.00000000000E+00 0. -1.
         11    1    3    3    0    0 -0.19844074749E+01  0.78924201203E+00 -0.13102642163E+01  0.25055076447E+01  0.51100000000E-03 0. -1.
        -11    1    3    3    0    0 -0.27295888019E+00 -0.13768174440E+01  0.13397695416E+01  0.19403905561E+01  0.51100000000E-03 0.  1.
        -12    1    3    3    0    0 -0.10687257013E+02  0.41600139058E+02  0.58039566742E+01  0.43341376826E+02  0.00000000000E+00 0.  1.
</event>
<event>
 7    1  0.2682317E-010  0.4778727E+02  0.7816164E-02  0.1312668E+00
        -11   -1    0    0    0    0  0.00000000000E+00  0.00000000000E+00  0.45593999997E+02  0.45594000000E+02  0.51100000000E-03 0. -1.
         11   -1    0    0    0    0 -0.00000000000E+00 -0.00000000000E+00 -0.45593999997E+02  0.45594000000E+02  0.51100000000E-03 0.  1.
    9900012    2    1    2    0    0 -0.92376657824E+01 -0.42361668215E+02 -0.19436506916E+01  0.47787272114E+02  0.20000004876E+02 0.  0.
         12    1    1    2    0    0  0.92376657824E+01  0.42361668215E+02  0.19436506916E+01  0.43400727886E+02  0.00000000000E+00 0. -1.
         11    1    3    3    0    0 -0.15605168970E+01  0.93707295706E+00 -0.26434942441E+00  0.18393475996E+01  0.51100000000E-03 0. -1.
        -11    1    3    3    0    0 -0.73251980222E+01 -0.15676928277E+02 -0.52768432313E+01  0.18090596480E+02  0.51100000000E-03 0.  1.
        -12    1    3    3    0    0 -0.35195086321E+00 -0.27621812895E+02  0.35975419641E+01  0.27857328034E+02  0.00000000000E+00 0.  1.
</event>
<event>
 7    1  0.2682317E-010  0.4778727E+02  0.7816164E-02  0.1312668E+00
        -11   -1    0    0    0    0  0.00000000000E+00  0.00000000000E+00  0.45593999997E+02  0.45594000000E+02  0.51100000000E-03 0. -1.
         11   -1    0    0    0    0 -0.00000000000E+00 -0.00000000000E+00 -0.45593999997E+02  0.45594000000E+02  0.51100000000E-03 0.  1.
    9900012    2    1    2    0    0 -0.15435601950E+02 -0.26963462032E+01 -0.40473390034E+02  0.47787269693E+02  0.19999993836E+02 0.  0.
         12    1    1    2    0    0  0.15435601950E+02  0.26963462032E+01  0.40473390034E+02  0.43400730307E+02  0.00000000000E+00 0. -1.
         11    1    3    3    0    0 -0.15223282185E+01  0.18842139508E+01 -0.93537019785E+01  0.96622712848E+01  0.51100000000E-03 0. -1.
        -11    1    3    3    0    0 -0.24542718686E+01  0.57578076747E+01 -0.12174037949E+02  0.13688791030E+02  0.51100000000E-03 0.  1.
         12    1    3    3    0    0 -0.11459001863E+02 -0.10338367829E+02 -0.18945650106E+02  0.24436207378E+02  0.00000000000E+00 0. -1.
</event>
<event>
 7    1  0.2682317E-010  0.4778727E+02  0.7816164E-02  0.1312668E+00
        -11   -1    0    0    0    0  0.00000000000E+00  0.00000000000E+00  0.45593999997E+02  0.45594000000E+02  0.51100000000E-03 0. -1.
         11   -1    0    0    0    0 -0.00000000000E+00 -0.00000000000E+00 -0.45593999997E+02  0.45594000000E+02  0.51100000000E-03 0.  1.
    9900012    2    1    2    0    0 -0.75455262761E+01 -0.40531619316E+02 -0.13560088208E+02  0.47787272778E+02  0.20000007904E+02 0.  0.
         12    1    1    2    0    0  0.75455262761E+01  0.40531619316E+02  0.13560088208E+02  0.43400727222E+02  0.00000000000E+00 0. -1.
         11    1    3    3    0    0 -0.55842373248E+00 -0.21558078101E+02 -0.19848114823E+01  0.21656455051E+02  0.51100000000E-03 0. -1.
        -11    1    3    3    0    0 -0.40190511102E+01 -0.61887638360E+01  0.15816112498E+01  0.75468578926E+01  0.51100000000E-03 0.  1.
        -12    1    3    3    0    0 -0.29680514334E+01 -0.12784777379E+02 -0.13156887975E+02  0.18583959834E+02  0.00000000000E+00 0.  1.
</event>
<event>
 7    1  0.2682317E-010  0.4778727E+02  0.7816164E-02  0.1312668E+00
        -11   -1    0    0    0    0  0.00000000000E+00  0.00000000000E+00  0.45593999997E+02  0.45594000000E+02  0.51100000000E-03 0.  1.
         11   -1    0    0    0    0 -0.00000000000E+00 -0.00000000000E+00 -0.45593999997E+02  0.45594000000E+02  0.51100000000E-03 0. -1.
    9900012    2    1    2    0    0  0.74466062963E+01  0.35453342768E+02  0.23900454831E+02  0.47787271896E+02  0.20000003884E+02 0.  0.
         12    1    1    2    0    0 -0.74466062963E+01 -0.35453342768E+02 -0.23900454831E+02  0.43400728104E+02  0.00000000000E+00 0. -1.
         11    1    3    3    0    0  0.62930436809E+01  0.18264930666E+02  0.10826771274E+02  0.22145633147E+02  0.51100000000E-03 0. -1.
        -11    1    3    3    0    0  0.69560822188E+01  0.12488084639E+02  0.65416026030E+01  0.15720429468E+02  0.51100000000E-03 0.  1.
         12    1    3    3    0    0 -0.58025196033E+01  0.47003274633E+01  0.65320809541E+01  0.99212092812E+01  0.00000000000E+00 0. -1.
</event>
<event>
 7    1  0.2682317E-010  0.4778727E+02  0.7816164E-02  0.1312668E+00
        -11   -1    0    0    0    0  0.00000000000E+00  0.00000000000E+00  0.45593999997E+02  0.45594000000E+02  0.51100000000E-03 0.  1.
         11   -1    0    0    0    0 -0.00000000000E+00 -0.00000000000E+00 -0.45593999997E+02  0.45594000000E+02  0.51100000000E-03 0. -1.
    9900012    2    1    2    0    0 -0.29091156460E+02  0.21677553501E+02  0.23820413232E+02  0.47787265024E+02  0.19999972549E+02 0.  0.
         12    1    1    2    0    0  0.29091156460E+02 -0.21677553501E+02 -0.23820413232E+02  0.43400734976E+02  0.00000000000E+00 0. -1.
         11    1    3    3    0    0 -0.12833002841E+02  0.43915105958E+01  0.15871794543E+01  0.13656151218E+02  0.51100000000E-03 0. -1.
        -11    1    3    3    0    0 -0.14412782561E+02  0.87839675663E+01  0.12056064451E+02  0.20742108804E+02  0.51100000000E-03 0.  1.
         12    1    3    3    0    0 -0.18453710587E+01  0.85020753386E+01  0.10177169327E+02  0.13389005001E+02  0.00000000000E+00 0. -1.
</event>
<event>
 7    1  0.2682317E-010  0.4778727E+02  0.7816164E-02  0.1312668E+00
        -11   -1    0    0    0    0  0.00000000000E+00  0.00000000000E+00  0.45593999997E+02  0.45594000000E+02  0.51100000000E-03 0.  1.
         11   -1    0    0    0    0 -0.00000000000E+00 -0.00000000000E+00 -0.45593999997E+02  0.45594000000E+02  0.51100000000E-03 0. -1.
    9900012    2    1    2    0    0  0.57342187627E+01 -0.39361146517E+02  0.17362088028E+02  0.47787271658E+02  0.20000002798E+02 0.  0.
         12    1    1    2    0    0 -0.57342187627E+01  0.39361146517E+02 -0.17362088028E+02  0.43400728342E+02  0.00000000000E+00 0. -1.
         11    1    3    3    0    0 -0.11658580997E+01 -0.14561264614E+02 -0.22062264032E+01  0.14773526576E+02  0.51100000000E-03 0. -1.
        -11    1    3    3    0    0  0.23430535048E+01 -0.12363957135E+02  0.56291562656E+01  0.13785671412E+02  0.51100000000E-03 0.  1.
        -12    1    3    3    0    0  0.45570233576E+01 -0.12435924767E+02  0.13939158166E+02  0.19228073670E+02  0.00000000000E+00 0.  1.
</event>
<event>
 7    1  0.2682317E-010  0.4778727E+02  0.7816164E-02  0.1312668E+00
        -11   -1    0    0    0    0  0.00000000000E+00  0.00000000000E+00  0.45593999997E+02  0.45594000000E+02  0.51100000000E-03 0. -1.
         11   -1    0    0    0    0 -0.00000000000E+00 -0.00000000000E+00 -0.45593999997E+02  0.45594000000E+02  0.51100000000E-03 0.  1.
    9900012    2    1    2    0    0  0.28938100259E+02 -0.28345361814E+02 -0.15580430041E+02  0.47787274393E+02  0.20000015268E+02 0.  0.
         12    1    1    2    0    0 -0.28938100259E+02  0.28345361814E+02  0.15580430041E+02  0.43400725607E+02  0.00000000000E+00 0. -1.
         11    1    3    3    0    0  0.38685533258E+01  0.79551998179E+00 -0.96226848439E+00  0.40650360113E+01  0.51100000000E-03 0. -1.
        -11    1    3    3    0    0  0.20684054945E+02 -0.18289366533E+02 -0.16041016337E+02  0.31931884732E+02  0.51100000000E-03 0.  1.
         12    1    3    3    0    0  0.43854919877E+01 -0.10851515262E+02  0.14228547803E+01  0.11790353650E+02  0.00000000000E+00 0. -1.
</event>
<event>
 7    1  0.2682317E-010  0.4778728E+02  0.7816164E-02  0.1312668E+00
        -11   -1    0    0    0    0  0.00000000000E+00  0.00000000000E+00  0.45593999997E+02  0.45594000000E+02  0.51100000000E-03 0.  1.
         11   -1    0    0    0    0 -0.00000000000E+00 -0.00000000000E+00 -0.45593999997E+02  0.45594000000E+02  0.51100000000E-03 0. -1.
    9900012    2    1    2    0    0 -0.34345403869E+02  0.39794285988E+01  0.26233190018E+02  0.47787275612E+02  0.20000020824E+02 0.  0.
         12    1    1    2    0    0  0.34345403869E+02 -0.39794285988E+01 -0.26233190018E+02  0.43400724388E+02  0.00000000000E+00 0. -1.
         11    1    3    3    0    0 -0.16752796925E+00  0.31052519590E+01  0.19079144685E+00  0.31156150255E+01  0.51100000000E-03 0. -1.
        -11    1    3    3    0    0 -0.56053955575E+01  0.28536350572E+00  0.11063046692E+02  0.12405357474E+02  0.51100000000E-03 0.  1.
         12    1    3    3    0    0 -0.28572480343E+02  0.58881313401E+00  0.14979351879E+02  0.32266303113E+02  0.00000000000E+00 0. -1.
</event>
<event>
 7    1  0.2682317E-010  0.4778727E+02  0.7816164E-02  0.1312668E+00
        -11   -1    0    0    0    0  0.00000000000E+00  0.00000000000E+00  0.45593999997E+02  0.45594000000E+02  0.51100000000E-03 0.  1.
         11   -1    0    0    0    0 -0.00000000000E+00 -0.00000000000E+00 -0.45593999997E+02  0.45594000000E+02  0.51100000000E-03 0. -1.
    9900012    2    1    2    0    0  0.15914602964E+02 -0.54065117716E+01  0.40013976303E+02  0.47787271243E+02  0.20000000907E+02 0.  0.
         12    1    1    2    0    0 -0.15914602964E+02  0.54065117716E+01 -0.40013976303E+02  0.43400728757E+02  0.00000000000E+00 0. -1.
         11    1    3    3    0    0 -0.36742581609E+00 -0.23431374006E+01  0.13113871404E+01  0.27101717845E+01  0.51100000000E-03 0. -1.
        -11    1    3    3    0    0  0.99685752104E+01 -0.31179021642E+01  0.37129164514E+02  0.38570308054E+02  0.51100000000E-03 0.  1.
        -12    1    3    3    0    0  0.63134535699E+01  0.54527793111E-01  0.15734246482E+01  0.65067914046E+01  0.00000000000E+00 0.  1.
</event>
<event>
 7    1  0.2682317E-010  0.4778728E+02  0.7816164E-02  0.1312668E+00
        -11   -1    0    0    0    0  0.00000000000E+00  0.00000000000E+00  0.45593999997E+02  0.45594000000E+02  0.51100000000E-03 0.  1.
         11   -1    0    0    0    0 -0.00000000000E+00 -0.00000000000E+00 -0.45593999997E+02  0.45594000000E+02  0.51100000000E-03 0. -1.
    9900012    2    1    2    0    0 -0.22010196117E+02 -0.37365409121E+02  0.17320407599E+01  0.47787279993E+02  0.20000040801E+02 0.  0.
         12    1    1    2    0    0  0.22010196117E+02  0.37365409121E+02 -0.17320407599E+01  0.43400720007E+02  0.00000000000E+00 0. -1.
         11    1    3    3    0    0 -0.19403343209E+00 -0.80047134132E+00 -0.98996111721E+00  0.12877991364E+01  0.51100000000E-03 0. -1.
        -11    1    3    3    0    0 -0.20583721241E+02 -0.16689125084E+02  0.11722494994E+01  0.26525283134E+02  0.51100000000E-03 0.  1.
         12    1    3    3    0    0 -0.12324414445E+01 -0.19875812696E+02  0.15497523777E+01  0.19974197723E+02  0.00000000000E+00 0. -1.
</event>
<event>
 7    1  0.2682317E-010  0.4778727E+02  0.7816164E-02  0.1312668E+00
        -11   -1    0    0    0    0  0.00000000000E+00  0.00000000000E+00  0.45593999997E+02  0.45594000000E+02  0.51100000000E-03 0.  1.
         11   -1    0    0    0    0 -0.00000000000E+00 -0.00000000000E+00 -0.45593999997E+02  0.45594000000E+02  0.51100000000E-03 0. -1.
    9900012    2    1    2    0    0  0.24077331895E+02  0.33800563857E+02  0.12705406279E+02  0.47787269856E+02  0.19999994584E+02 0.  0.
         12    1    1    2    0    0 -0.24077331895E+02 -0.33800563857E+02 -0.12705406279E+02  0.43400730144E+02  0.00000000000E+00 0. -1.
         11    1    3    3    0    0  0.92189963462E+01  0.14428272442E+02  0.11447020948E+02  0.20596097401E+02  0.51100000000E-03 0. -1.
        -11    1    3    3    0    0  0.11221364720E+02  0.16772495844E+02  0.56172349748E+01  0.20947290327E+02  0.51100000000E-03 0.  1.
         12    1    3    3    0    0  0.36369708289E+01  0.25997955715E+01 -0.43588496437E+01  0.62438821290E+01  0.00000000000E+00 0. -1.
</event>
<event>
 7    1  0.2682317E-010  0.4778727E+02  0.7816164E-02  0.1312668E+00
        -11   -1    0    0    0    0  0.00000000000E+00  0.00000000000E+00  0.45593999997E+02  0.45594000000E+02  0.51100000000E-03 0. -1.
         11   -1    0    0    0    0 -0.00000000000E+00 -0.00000000000E+00 -0.45593999997E+02  0.45594000000E+02  0.51100000000E-03 0.  1.
    9900012    2    1    2    0    0  0.34156027929E+02 -0.26553572307E+02 -0.34491889599E+01  0.47787270160E+02  0.19999995968E+02 0.  0.
         12    1    1    2    0    0 -0.34156027929E+02  0.26553572307E+02  0.34491889599E+01  0.43400729840E+02  0.00000000000E+00 0. -1.
         11    1    3    3    0    0  0.34565175805E+02 -0.25366103049E+02 -0.48810807283E+00  0.42876903014E+02  0.51100000000E-03 0. -1.
        -11    1    3    3    0    0  0.15977700573E+01 -0.53256534261E+00 -0.19281886491E+01  0.25601575592E+01  0.51100000000E-03 0.  1.
         12    1    3    3    0    0 -0.20069179329E+01 -0.65490391556E+00 -0.10328922380E+01  0.23502095871E+01  0.00000000000E+00 0. -1.
</event>
<event>
 7    1  0.2682317E-010  0.4778724E+02  0.7816164E-02  0.1312668E+00
        -11   -1    0    0    0    0  0.00000000000E+00  0.00000000000E+00  0.45593999997E+02  0.45594000000E+02  0.51100000000E-03 0.  1.
         11   -1    0    0    0    0 -0.00000000000E+00 -0.00000000000E+00 -0.45593999997E+02  0.45594000000E+02  0.51100000000E-03 0. -1.
    9900012    2    1    2    0    0 -0.40881943079E+02 -0.14237498873E+02  0.30961347251E+01  0.47787243160E+02  0.19999872864E+02 0.  0.
         12    1    1    2    0    0  0.40881943079E+02  0.14237498873E+02 -0.30961347251E+01  0.43400756840E+02  0.00000000000E+00 0. -1.
         11    1    3    3    0    0 -0.10602793651E+02 -0.72617180902E+01 -0.40048796229E+01  0.13460714835E+02  0.51100000000E-03 0. -1.
        -11    1    3    3    0    0 -0.23735997320E+02 -0.40832462479E+01 -0.22664488357E+00  0.24085718525E+02  0.51100000000E-03 0.  1.
         12    1    3    3    0    0 -0.65431521077E+01 -0.28925345351E+01  0.73276592316E+01  0.10240809800E+02  0.00000000000E+00 0. -1.
</event>
<event>
 7    1  0.2682317E-010  0.4778727E+02  0.7816164E-02  0.1312668E+00
        -11   -1    0    0    0    0  0.00000000000E+00  0.00000000000E+00  0.45593999997E+02  0.45594000000E+02  0.51100000000E-03 0.  1.
         11   -1    0    0    0    0 -0.00000000000E+00 -0.00000000000E+00 -0.45593999997E+02  0.45594000000E+02  0.51100000000E-03 0. -1.
    9900012    2    1    2    0    0  0.26894105252E+02 -0.10725917459E+02  0.32330875967E+02  0.47787265635E+02  0.19999975336E+02 0.  0.
         12    1    1    2    0    0 -0.26894105252E+02  0.10725917459E+02 -0.32330875967E+02  0.43400734365E+02  0.00000000000E+00 0. -1.
         11    1    3    3    0    0 -0.10256908698E+01 -0.90896549729E+00 -0.18935163404E+01  0.23374482728E+01  0.51100000000E-03 0. -1.
        -11    1    3    3    0    0  0.75789590045E+01 -0.69558002837E+00  0.89912193476E+01  0.11779918369E+02  0.51100000000E-03 0.  1.
        -12    1    3    3    0    0  0.20340837117E+02 -0.91213719330E+01  0.25233172960E+02  0.33669898993E+02  0.00000000000E+00 0.  1.
</event>
<event>
 7    1  0.2682317E-010  0.4778727E+02  0.7816164E-02  0.1312668E+00
        -11   -1    0    0    0    0  0.00000000000E+00  0.00000000000E+00  0.45593999997E+02  0.45594000000E+02  0.51100000000E-03 0.  1.
         11   -1    0    0    0    0 -0.00000000000E+00 -0.00000000000E+00 -0.45593999997E+02  0.45594000000E+02  0.51100000000E-03 0. -1.
    9900012    2    1    2    0    0 -0.26698884600E+02 -0.12535535936E+02  0.31837917300E+02  0.47787273300E+02  0.20000010286E+02 0.  0.
         12    1    1    2    0    0  0.26698884600E+02  0.12535535936E+02 -0.31837917300E+02  0.43400726700E+02  0.00000000000E+00 0. -1.
         11    1    3    3    0    0 -0.11083665466E+02 -0.11762948494E+02  0.96329097881E+01  0.18815088325E+02  0.51100000000E-03 0. -1.
        -11    1    3    3    0    0 -0.10740286200E+02 -0.44331436785E+01  0.10002347370E+02  0.15331453411E+02  0.51100000000E-03 0.  1.
        -12    1    3    3    0    0 -0.48749329343E+01  0.36605562370E+01  0.12202660142E+02  0.13640731565E+02  0.00000000000E+00 0.  1.
</event>
<event>
 7    1  0.2682317E-010  0.4778727E+02  0.7816164E-02  0.1312668E+00
        -11   -1    0    0    0    0  0.00000000000E+00  0.00000000000E+00  0.45593999997E+02  0.45594000000E+02  0.51100000000E-03 0. -1.
         11   -1    0    0    0    0 -0.00000000000E+00 -0.00000000000E+00 -0.45593999997E+02  0.45594000000E+02  0.51100000000E-03 0.  1.
    9900012    2    1    2    0    0 -0.50685549837E-01 -0.37429549267E+02 -0.21969289502E+02  0.47787269493E+02  0.19999992925E+02 0.  0.
         12    1    1    2    0    0  0.50685549837E-01  0.37429549267E+02  0.21969289502E+02  0.43400730507E+02  0.00000000000E+00 0. -1.
         11    1    3    3    0    0 -0.25581778437E+01 -0.10036615224E+02 -0.27854770985E+01  0.10725521058E+02  0.51100000000E-03 0. -1.
        -11    1    3    3    0    0  0.33385252672E+01 -0.11546099298E+02  0.18754363659E+00  0.12020537960E+02  0.51100000000E-03 0.  1.
        -12    1    3    3    0    0 -0.83103297339E+00 -0.15846834745E+02 -0.19371356040E+02  0.25041210475E+02  0.00000000000E+00 0.  1.
</event>
<event>
 7    1  0.2682317E-010  0.4778726E+02  0.7816164E-02  0.1312668E+00
        -11   -1    0    0    0    0  0.00000000000E+00  0.00000000000E+00  0.45593999997E+02  0.45594000000E+02  0.51100000000E-03 0.  1.
         11   -1    0    0    0    0 -0.00000000000E+00 -0.00000000000E+00 -0.45593999997E+02  0.45594000000E+02  0.51100000000E-03 0. -1.
    9900012    2    1    2    0    0 -0.16862787128E+02  0.44595049161E+01  0.39741459125E+02  0.47787258679E+02  0.19999943622E+02 0.  0.
         12    1    1    2    0    0  0.16862787128E+02 -0.44595049161E+01 -0.39741459125E+02  0.43400741321E+02  0.00000000000E+00 0. -1.
         11    1    3    3    0    0 -0.13753767992E+02 -0.21811014097E+01  0.15962259423E+02  0.21182942748E+02  0.51100000000E-03 0.  1.
        -11    1    3    3    0    0 -0.23059421013E+01  0.19615265246E+01  0.78823273028E+00  0.31283008774E+01  0.51100000000E-03 0. -1.
        -12    1    3    3    0    0 -0.80307703537E+00  0.46790798011E+01  0.22990966972E+02  0.23476015054E+02  0.00000000000E+00 0.  1.
</event>
<event>
 7    1  0.2682317E-010  0.4778727E+02  0.7816164E-02  0.1312668E+00
        -11   -1    0    0    0    0  0.00000000000E+00  0.00000000000E+00  0.45593999997E+02  0.45594000000E+02  0.51100000000E-03 0.  1.
         11   -1    0    0    0    0 -0.00000000000E+00 -0.00000000000E+00 -0.45593999997E+02  0.45594000000E+02  0.51100000000E-03 0. -1.
    9900012    2    1    2    0    0 -0.23107543710E+02  0.14700833746E+02  0.33668239062E+02  0.47787269468E+02  0.19999992814E+02 0.  0.
         12    1    1    2    0    0  0.23107543710E+02 -0.14700833746E+02 -0.33668239062E+02  0.43400730532E+02  0.00000000000E+00 0. -1.
         11    1    3    3    0    0  0.65934494198E+00  0.63095954269E+01  0.37423250484E+01  0.73655092989E+01  0.51100000000E-03 0. -1.
        -11    1    3    3    0    0 -0.20014974592E+02  0.10506165213E+02  0.22876286766E+02  0.32160584756E+02  0.51100000000E-03 0.  1.
         12    1    3    3    0    0 -0.37519140603E+01 -0.21149268935E+01  0.70496272475E+01  0.82611754133E+01  0.00000000000E+00 0. -1.
</event>
<event>
 7    1  0.2682317E-010  0.4778727E+02  0.7816164E-02  0.1312668E+00
        -11   -1    0    0    0    0  0.00000000000E+00  0.00000000000E+00  0.45593999997E+02  0.45594000000E+02  0.51100000000E-03 0.  1.
         11   -1    0    0    0    0 -0.00000000000E+00 -0.00000000000E+00 -0.45593999997E+02  0.45594000000E+02  0.51100000000E-03 0. -1.
    9900012    2    1    2    0    0 -0.33784834866E+02  0.26602794860E+02 -0.58736367940E+01  0.47787269931E+02  0.19999994924E+02 0.  0.
         12    1    1    2    0    0  0.33784834866E+02 -0.26602794860E+02  0.58736367940E+01  0.43400730069E+02  0.00000000000E+00 0. -1.
         11    1    3    3    0    0 -0.17016094938E+02  0.12832826181E+02  0.10828754904E+01  0.21340139041E+02  0.51100000000E-03 0.  1.
        -11    1    3    3    0    0 -0.17342563465E+02  0.98920789128E+01 -0.19094667965E+01  0.20056515062E+02  0.51100000000E-03 0. -1.
         12    1    3    3    0    0  0.57382353612E+00  0.38778897667E+01 -0.50470454880E+01  0.63906158272E+01  0.00000000000E+00 0. -1.
</event>
<event>
 7    1  0.2682317E-010  0.4778727E+02  0.7816164E-02  0.1312668E+00
        -11   -1    0    0    0    0  0.00000000000E+00  0.00000000000E+00  0.45593999997E+02  0.45594000000E+02  0.51100000000E-03 0. -1.
         11   -1    0    0    0    0 -0.00000000000E+00 -0.00000000000E+00 -0.45593999997E+02  0.45594000000E+02  0.51100000000E-03 0.  1.
    9900012    2    1    2    0    0  0.14198824058E+02 -0.33424924697E+02 -0.23765333419E+02  0.47787271110E+02  0.20000000301E+02 0.  0.
         12    1    1    2    0    0 -0.14198824058E+02  0.33424924697E+02  0.23765333419E+02  0.43400728890E+02  0.00000000000E+00 0. -1.
         11    1    3    3    0    0  0.90261467109E+01 -0.30686365241E+02 -0.15678345243E+02  0.35622111756E+02  0.51100000000E-03 0. -1.
        -11    1    3    3    0    0  0.53240471419E+01 -0.47052660261E+01 -0.60869313168E+01  0.93560536265E+01  0.51100000000E-03 0.  1.
         12    1    3    3    0    0 -0.15136979494E+00  0.19667065701E+01 -0.20000568601E+01  0.28091057280E+01  0.00000000000E+00 0. -1.
</event>
<event>
 7    1  0.2682317E-010  0.4778727E+02  0.7816164E-02  0.1312668E+00
        -11   -1    0    0    0    0  0.00000000000E+00  0.00000000000E+00  0.45593999997E+02  0.45594000000E+02  0.51100000000E-03 0.  1.
         11   -1    0    0    0    0 -0.00000000000E+00 -0.00000000000E+00 -0.45593999997E+02  0.45594000000E+02  0.51100000000E-03 0. -1.
    9900012    2    1    2    0    0  0.20982775193E+02  0.33695923760E+02  0.17547963974E+02  0.47787272213E+02  0.20000005326E+02 0.  0.
         12    1    1    2    0    0 -0.20982775193E+02 -0.33695923760E+02 -0.17547963974E+02  0.43400727787E+02  0.00000000000E+00 0. -1.
         11    1    3    3    0    0  0.41810309342E+01  0.14865093775E+02 -0.18874110223E+01  0.15556810510E+02  0.51100000000E-03 0. -1.
        -11    1    3    3    0    0  0.64828104473E+01  0.82140707803E+01  0.51729951023E+01  0.11672946015E+02  0.51100000000E-03 0.  1.
         12    1    3    3    0    0  0.10318933812E+02  0.10616759205E+02  0.14262379894E+02  0.20557515688E+02  0.00000000000E+00 0. -1.
</event>
<event>
 7    1  0.2682317E-010  0.4778728E+02  0.7816164E-02  0.1312668E+00
        -11   -1    0    0    0    0  0.00000000000E+00  0.00000000000E+00  0.45593999997E+02  0.45594000000E+02  0.51100000000E-03 0. -1.
         11   -1    0    0    0    0 -0.00000000000E+00 -0.00000000000E+00 -0.45593999997E+02  0.45594000000E+02  0.51100000000E-03 0.  1.
    9900012    2    1    2    0    0  0.83437652408E+01 -0.36502246411E+02 -0.21945170592E+02  0.47787275078E+02  0.20000018392E+02 0.  0.
         12    1    1    2    0    0 -0.83437652408E+01  0.36502246411E+02  0.21945170592E+02  0.43400724922E+02  0.00000000000E+00 0. -1.
         11    1    3    3    0    0  0.14529923562E+01 -0.17646548257E+02 -0.66782938395E+01  0.18923833148E+02  0.51100000000E-03 0. -1.
        -11    1    3    3    0    0  0.91199462393E+01 -0.18677109569E+02 -0.98450913363E+01  0.22998557888E+02  0.51100000000E-03 0.  1.
         12    1    3    3    0    0 -0.22291733547E+01 -0.17858858557E+00 -0.54217854159E+01  0.58648840419E+01  0.00000000000E+00 0. -1.
</event>
<event>
 7    1  0.2682317E-010  0.4778729E+02  0.7816164E-02  0.1312668E+00
        -11   -1    0    0    0    0  0.00000000000E+00  0.00000000000E+00  0.45593999997E+02  0.45594000000E+02  0.51100000000E-03 0.  1.
         11   -1    0    0    0    0 -0.00000000000E+00 -0.00000000000E+00 -0.45593999997E+02  0.45594000000E+02  0.51100000000E-03 0. -1.
    9900012    2    1    2    0    0  0.19519225162E+01  0.31575382662E+02  0.29712065410E+02  0.47787290067E+02  0.20000086729E+02 0.  0.
         12    1    1    2    0    0 -0.19519225162E+01 -0.31575382662E+02 -0.29712065410E+02  0.43400709933E+02  0.00000000000E+00 0. -1.
         11    1    3    3    0    0  0.65561735502E+01  0.53921023335E+01  0.23843526124E+01  0.88172170687E+01  0.51100000000E-03 0. -1.
        -11    1    3    3    0    0 -0.94543335729E+00  0.52768222302E+00 -0.26603930998E+00  0.11149304629E+01  0.51100000000E-03 0.  1.
        -12    1    3    3    0    0 -0.36588176767E+01  0.25655598106E+02  0.27593752108E+02  0.37855142535E+02  0.00000000000E+00 0.  1.
</event>
<event>
 7    1  0.2682317E-010  0.4778727E+02  0.7816164E-02  0.1312668E+00
        -11   -1    0    0    0    0  0.00000000000E+00  0.00000000000E+00  0.45593999997E+02  0.45594000000E+02  0.51100000000E-03 0. -1.
         11   -1    0    0    0    0 -0.00000000000E+00 -0.00000000000E+00 -0.45593999997E+02  0.45594000000E+02  0.51100000000E-03 0.  1.
    9900012    2    1    2    0    0  0.57272303016E+01 -0.32805166342E+02 -0.27832413453E+02  0.47787270234E+02  0.19999996303E+02 0.  0.
         12    1    1    2    0    0 -0.57272303016E+01  0.32805166342E+02  0.27832413453E+02  0.43400729766E+02  0.00000000000E+00 0. -1.
         11    1    3    3    0    0 -0.11442783218E+01  0.31424626457E+00  0.67077638698E+00  0.13631085118E+01  0.51100000000E-03 0. -1.
        -11    1    3    3    0    0  0.30397174337E+01 -0.83707024056E+00 -0.63350059730E+01  0.70762185949E+01  0.51100000000E-03 0.  1.
         12    1    3    3    0    0  0.38317911896E+01 -0.32282342366E+02 -0.22168183867E+02  0.39347943127E+02  0.00000000000E+00 0. -1.
</event>
<event>
 7    1  0.2682317E-010  0.4778727E+02  0.7816164E-02  0.1312668E+00
        -11   -1    0    0    0    0  0.00000000000E+00  0.00000000000E+00  0.45593999997E+02  0.45594000000E+02  0.51100000000E-03 0.  1.
         11   -1    0    0    0    0 -0.00000000000E+00 -0.00000000000E+00 -0.45593999997E+02  0.45594000000E+02  0.51100000000E-03 0. -1.
    9900012    2    1    2    0    0  0.87734716267E+00 -0.12715536992E+02  0.41486966170E+02  0.47787274418E+02  0.20000015381E+02 0.  0.
         12    1    1    2    0    0 -0.87734716267E+00  0.12715536992E+02 -0.41486966170E+02  0.43400725582E+02  0.00000000000E+00 0. -1.
         11    1    3    3    0    0 -0.28478852760E+01 -0.96108780326E+01  0.13226789290E+02  0.16596005010E+02  0.51100000000E-03 0. -1.
        -11    1    3    3    0    0 -0.97321180566E+00 -0.46157960343E+01  0.33225246589E+01  0.57699120114E+01  0.51100000000E-03 0.  1.
         12    1    3    3    0    0  0.46984442443E+01  0.15111370744E+01  0.24937652222E+02  0.25421357397E+02  0.00000000000E+00 0. -1.
</event>
<event>
 7    1  0.2682317E-010  0.4778727E+02  0.7816164E-02  0.1312668E+00
        -11   -1    0    0    0    0  0.00000000000E+00  0.00000000000E+00  0.45593999997E+02  0.45594000000E+02  0.51100000000E-03 0.  1.
         11   -1    0    0    0    0 -0.00000000000E+00 -0.00000000000E+00 -0.45593999997E+02  0.45594000000E+02  0.51100000000E-03 0. -1.
    9900012    2    1    2    0    0  0.34398821865E+02 -0.19363504604E+02  0.18038814333E+02  0.47787273292E+02  0.20000010248E+02 0.  0.
         12    1    1    2    0    0 -0.34398821865E+02  0.19363504604E+02 -0.18038814333E+02  0.43400726708E+02  0.00000000000E+00 0. -1.
         11    1    3    3    0    0  0.48937227831E+01 -0.14145443648E+01  0.82967940532E+01  0.97358230397E+01  0.51100000000E-03 0. -1.
        -11    1    3    3    0    0  0.22844171811E+02 -0.14634483307E+02  0.12812100955E+02  0.30002903501E+02  0.51100000000E-03 0.  1.
         12    1    3    3    0    0  0.66609272714E+01 -0.33144769323E+01 -0.30700806754E+01  0.80485467510E+01  0.00000000000E+00 0. -1.
</event>
<event>
 7    1  0.2682317E-010  0.4778727E+02  0.7816164E-02  0.1312668E+00
        -11   -1    0    0    0    0  0.00000000000E+00  0.00000000000E+00  0.45593999997E+02  0.45594000000E+02  0.51100000000E-03 0. -1.
         11   -1    0    0    0    0 -0.00000000000E+00 -0.00000000000E+00 -0.45593999997E+02  0.45594000000E+02  0.51100000000E-03 0.  1.
    9900012    2    1    2    0    0  0.89961038696E+00  0.41839078371E+02  0.11502418717E+02  0.47787269428E+02  0.19999992632E+02 0.  0.
         12    1    1    2    0    0 -0.89961038696E+00 -0.41839078371E+02 -0.11502418717E+02  0.43400730572E+02  0.00000000000E+00 0. -1.
         11    1    3    3    0    0 -0.10010347603E+01  0.67336491161E+01  0.81121634637E+01  0.10590150959E+02  0.51100000000E-03 0. -1.
        -11    1    3    3    0    0  0.16480224133E+01 -0.20400768596E+00 -0.32417550235E+00  0.16919477026E+01  0.51100000000E-03 0.  1.
        -12    1    3    3    0    0  0.25262273392E+00  0.35309436941E+02  0.37144307557E+01  0.35505170767E+02  0.00000000000E+00 0.  1.
</event>
<event>
 7    1  0.2682317E-010  0.4778727E+02  0.7816164E-02  0.1312668E+00
        -11   -1    0    0    0    0  0.00000000000E+00  0.00000000000E+00  0.45593999997E+02  0.45594000000E+02  0.51100000000E-03 0.  1.
         11   -1    0    0    0    0 -0.00000000000E+00 -0.00000000000E+00 -0.45593999997E+02  0.45594000000E+02  0.51100000000E-03 0. -1.
    9900012    2    1    2    0    0  0.28400835022E+01 -0.43114419955E+02  0.40870432126E+01  0.47787271843E+02  0.20000003639E+02 0.  0.
         12    1    1    2    0    0 -0.28400835022E+01  0.43114419955E+02 -0.40870432126E+01  0.43400728157E+02  0.00000000000E+00 0. -1.
         11    1    3    3    0    0  0.17690117102E+01 -0.14097658649E+01  0.10035424333E+01  0.24746595526E+01  0.51100000000E-03 0. -1.
        -11    1    3    3    0    0 -0.48474566683E+01 -0.45986896011E+01  0.38849064325E+01  0.77290543049E+01  0.51100000000E-03 0.  1.
         12    1    3    3    0    0  0.59185284602E+01 -0.37105964489E+02 -0.80140565314E+00  0.37583557985E+02  0.00000000000E+00 0. -1.
</event>
<event>
 7    1  0.2682317E-010  0.4778727E+02  0.7816164E-02  0.1312668E+00
        -11   -1    0    0    0    0  0.00000000000E+00  0.00000000000E+00  0.45593999997E+02  0.45594000000E+02  0.51100000000E-03 0.  1.
         11   -1    0    0    0    0 -0.00000000000E+00 -0.00000000000E+00 -0.45593999997E+02  0.45594000000E+02  0.51100000000E-03 0. -1.
    9900012    2    1    2    0    0  0.21824118405E+02 -0.35151881558E+02  0.13102532583E+02  0.47787270959E+02  0.19999999609E+02 0.  0.
         12    1    1    2    0    0 -0.21824118405E+02  0.35151881558E+02 -0.13102532583E+02  0.43400729041E+02  0.00000000000E+00 0. -1.
         11    1    3    3    0    0  0.11445279485E+02 -0.22262611103E+02  0.50974020819E+01  0.25546071789E+02  0.51100000000E-03 0. -1.
        -11    1    3    3    0    0  0.26374186636E+01 -0.12468530986E+02  0.66352609918E+01  0.14368261233E+02  0.51100000000E-03 0.  1.
         12    1    3    3    0    0  0.77414202565E+01 -0.42073946944E+00  0.13698695093E+01  0.78729379371E+01  0.00000000000E+00 0. -1.
</event>
<event>
 7    1  0.2682317E-010  0.4778727E+02  0.7816164E-02  0.1312668E+00
        -11   -1    0    0    0    0  0.00000000000E+00  0.00000000000E+00  0.45593999997E+02  0.45594000000E+02  0.51100000000E-03 0.  1.
         11   -1    0    0    0    0 -0.00000000000E+00 -0.00000000000E+00 -0.45593999997E+02  0.45594000000E+02  0.51100000000E-03 0. -1.
    9900012    2    1    2    0    0  0.23558569936E+02  0.10066389109E+01  0.36436293971E+02  0.47787273536E+02  0.20000011358E+02 0.  0.
         12    1    1    2    0    0 -0.23558569936E+02 -0.10066389109E+01 -0.36436293971E+02  0.43400726464E+02  0.00000000000E+00 0. -1.
         11    1    3    3    0    0  0.12948531438E+02  0.80351435193E+01  0.96102625890E+01  0.18016246698E+02  0.51100000000E-03 0. -1.
        -11    1    3    3    0    0  0.60319893021E+01 -0.33580166174E+01  0.12307166730E+02  0.14111255214E+02  0.51100000000E-03 0.  1.
         12    1    3    3    0    0  0.45780491956E+01 -0.36704879910E+01  0.14518864652E+02  0.15659771624E+02  0.00000000000E+00 0. -1.
</event>
<event>
 7    1  0.2682317E-010  0.4778727E+02  0.7816164E-02  0.1312668E+00
        -11   -1    0    0    0    0  0.00000000000E+00  0.00000000000E+00  0.45593999997E+02  0.45594000000E+02  0.51100000000E-03 0. -1.
         11   -1    0    0    0    0 -0.00000000000E+00 -0.00000000000E+00 -0.45593999997E+02  0.45594000000E+02  0.51100000000E-03 0.  1.
    9900012    2    1    2    0    0  0.16662815068E+02 -0.11683080042E+01 -0.40057569046E+02  0.47787272040E+02  0.20000004541E+02 0.  0.
         12    1    1    2    0    0 -0.16662815068E+02  0.11683080042E+01  0.40057569046E+02  0.43400727960E+02  0.00000000000E+00 0. -1.
         11    1    3    3    0    0 -0.37451294903E+00 -0.32362747517E+01 -0.60532795269E+01  0.68742946918E+01  0.51100000000E-03 0. -1.
        -11    1    3    3    0    0 -0.11794635062E+01  0.39832147318E+01 -0.40478701935E+01  0.58002057831E+01  0.51100000000E-03 0.  1.
         12    1    3    3    0    0  0.18216791523E+02 -0.19152479843E+01 -0.29956419325E+02  0.35112771566E+02  0.00000000000E+00 0. -1.
</event>
<event>
 7    1  0.2682317E-010  0.4778727E+02  0.7816164E-02  0.1312668E+00
        -11   -1    0    0    0    0  0.00000000000E+00  0.00000000000E+00  0.45593999997E+02  0.45594000000E+02  0.51100000000E-03 0.  1.
         11   -1    0    0    0    0 -0.00000000000E+00 -0.00000000000E+00 -0.45593999997E+02  0.45594000000E+02  0.51100000000E-03 0. -1.
    9900012    2    1    2    0    0  0.17534693868E+02  0.39563363123E+02  0.33012126334E+01  0.47787271947E+02  0.20000004116E+02 0.  0.
         12    1    1    2    0    0 -0.17534693868E+02 -0.39563363123E+02 -0.33012126334E+01  0.43400728053E+02  0.00000000000E+00 0. -1.
         11    1    3    3    0    0 -0.19115534366E+01 -0.34072952401E+00  0.12273192738E+01  0.22970515908E+01  0.51100000000E-03 0. -1.
        -11    1    3    3    0    0  0.19104246014E+01  0.54025256296E+01 -0.29808417090E+01  0.64592896584E+01  0.51100000000E-03 0.  1.
        -12    1    3    3    0    0  0.17535822703E+02  0.34501567018E+02  0.50547350685E+01  0.39030930698E+02  0.00000000000E+00 0.  1.
</event>
<event>
 7    1  0.2682317E-010  0.4778727E+02  0.7816164E-02  0.1312668E+00
        -11   -1    0    0    0    0  0.00000000000E+00  0.00000000000E+00  0.45593999997E+02  0.45594000000E+02  0.51100000000E-03 0.  1.
         11   -1    0    0    0    0 -0.00000000000E+00 -0.00000000000E+00 -0.45593999997E+02  0.45594000000E+02  0.51100000000E-03 0. -1.
    9900012    2    1    2    0    0  0.23069320477E+02  0.11049636583E+02  0.35061881450E+02  0.47787267901E+02  0.19999985669E+02 0.  0.
         12    1    1    2    0    0 -0.23069320477E+02 -0.11049636583E+02 -0.35061881450E+02  0.43400732099E+02  0.00000000000E+00 0. -1.
         11    1    3    3    0    0  0.73369586803E+01 -0.17829475051E+01  0.45780593532E+01  0.88299769074E+01  0.51100000000E-03 0. -1.
        -11    1    3    3    0    0  0.44364550589E+01 -0.24564238242E+01  0.46267179260E+01  0.68645954375E+01  0.51100000000E-03 0.  1.
        -12    1    3    3    0    0  0.11295906738E+02  0.15289007913E+02  0.25857104171E+02  0.32092695556E+02  0.00000000000E+00 0.  1.
</event>
<event>
 7    1  0.2682317E-010  0.4778727E+02  0.7816164E-02  0.1312668E+00
        -11   -1    0    0    0    0  0.00000000000E+00  0.00000000000E+00  0.45593999997E+02  0.45594000000E+02  0.51100000000E-03 0.  1.
         11   -1    0    0    0    0 -0.00000000000E+00 -0.00000000000E+00 -0.45593999997E+02  0.45594000000E+02  0.51100000000E-03 0. -1.
    9900012    2    1    2    0    0 -0.12892046644E+02 -0.26437503681E+02  0.31913589581E+02  0.47787266510E+02  0.19999979324E+02 0.  0.
         12    1    1    2    0    0  0.12892046644E+02  0.26437503681E+02 -0.31913589581E+02  0.43400733490E+02  0.00000000000E+00 0. -1.
         11    1    3    3    0    0 -0.43562482334E+01 -0.72096548540E+01  0.41830462524E+01  0.94049932481E+01  0.51100000000E-03 0. -1.
        -11    1    3    3    0    0 -0.53978602743E+01 -0.85437685495E+01  0.19401542715E+01  0.10290630468E+02  0.51100000000E-03 0.  1.
         12    1    3    3    0    0 -0.31379381361E+01 -0.10684080277E+02  0.25790389058E+02  0.28091642794E+02  0.00000000000E+00 0. -1.
</event>
<event>
 7    1  0.2682317E-010  0.4778728E+02  0.7816164E-02  0.1312668E+00
        -11   -1    0    0    0    0  0.00000000000E+00  0.00000000000E+00  0.45593999997E+02  0.45594000000E+02  0.51100000000E-03 0.  1.
         11   -1    0    0    0    0 -0.00000000000E+00 -0.00000000000E+00 -0.45593999997E+02  0.45594000000E+02  0.51100000000E-03 0. -1.
    9900012    2    1    2    0    0 -0.23161076949E+02 -0.69247764176E+01  0.36044896231E+02  0.47787279289E+02  0.20000037592E+02 0.  0.
         12    1    1    2    0    0  0.23161076949E+02  0.69247764176E+01 -0.36044896231E+02  0.43400720711E+02  0.00000000000E+00 0. -1.
         11    1    3    3    0    0 -0.36199129510E+01 -0.37499701976E+01  0.64523014908E+01  0.82944705102E+01  0.51100000000E-03 0. -1.
        -11    1    3    3    0    0 -0.50504971337E+01 -0.18707033881E+01  0.22815558691E+02  0.23442627223E+02  0.51100000000E-03 0.  1.
         12    1    3    3    0    0 -0.14490666864E+02 -0.13041028319E+01  0.67770360490E+01  0.16050181556E+02  0.00000000000E+00 0. -1.
</event>
<event>
 7    1  0.2682317E-010  0.4778727E+02  0.7816164E-02  0.1312668E+00
        -11   -1    0    0    0    0  0.00000000000E+00  0.00000000000E+00  0.45593999997E+02  0.45594000000E+02  0.51100000000E-03 0.  1.
         11   -1    0    0    0    0 -0.00000000000E+00 -0.00000000000E+00 -0.45593999997E+02  0.45594000000E+02  0.51100000000E-03 0. -1.
    9900012    2    1    2    0    0 -0.33899531293E+02  0.20935297918E+02  0.17209255624E+02  0.47787269592E+02  0.19999993377E+02 0.  0.
         12    1    1    2    0    0  0.33899531293E+02 -0.20935297918E+02 -0.17209255624E+02  0.43400730408E+02  0.00000000000E+00 0. -1.
         11    1    3    3    0    0 -0.10391641254E+02 -0.72524731540E+00  0.60360980952E+01  0.12039380055E+02  0.51100000000E-03 0. -1.
        -11    1    3    3    0    0 -0.20648247679E+02  0.15458219130E+02  0.12698320257E+02  0.28749852321E+02  0.51100000000E-03 0.  1.
         12    1    3    3    0    0 -0.28596423602E+01  0.62023261038E+01 -0.15251627284E+01  0.69980372158E+01  0.00000000000E+00 0. -1.
</event>
<event>
 7    1  0.2682317E-010  0.4778727E+02  0.7816164E-02  0.1312668E+00
        -11   -1    0    0    0    0  0.00000000000E+00  0.00000000000E+00  0.45593999997E+02  0.45594000000E+02  0.51100000000E-03 0.  1.
         11   -1    0    0    0    0 -0.00000000000E+00 -0.00000000000E+00 -0.45593999997E+02  0.45594000000E+02  0.51100000000E-03 0. -1.
    9900012    2    1    2    0    0  0.41478089870E+02 -0.10801638075E+01  0.12728878693E+02  0.47787273671E+02  0.20000011977E+02 0.  0.
         12    1    1    2    0    0 -0.41478089870E+02  0.10801638075E+01 -0.12728878693E+02  0.43400726329E+02  0.00000000000E+00 0. -1.
         11    1    3    3    0    0  0.15505988553E+02  0.19856792475E+01  0.86664494190E+01  0.17874169879E+02  0.51100000000E-03 0. -1.
        -11    1    3    3    0    0  0.27106147848E+02 -0.39268663290E+01  0.54487271833E+01  0.27925833175E+02  0.51100000000E-03 0.  1.
         12    1    3    3    0    0 -0.11340465313E+01  0.86102327401E+00 -0.13862979092E+01  0.19872706174E+01  0.00000000000E+00 0. -1.
</event>
<event>
 7    1  0.2682317E-010  0.4778727E+02  0.7816164E-02  0.1312668E+00
        -11   -1    0    0    0    0  0.00000000000E+00  0.00000000000E+00  0.45593999997E+02  0.45594000000E+02  0.51100000000E-03 0. -1.
         11   -1    0    0    0    0 -0.00000000000E+00 -0.00000000000E+00 -0.45593999997E+02  0.45594000000E+02  0.51100000000E-03 0.  1.
    9900012    2    1    2    0    0  0.35080242405E+02 -0.11508829926E+02 -0.22815500307E+02  0.47787266968E+02  0.19999981414E+02 0.  0.
         12    1    1    2    0    0 -0.35080242405E+02  0.11508829926E+02  0.22815500307E+02  0.43400733032E+02  0.00000000000E+00 0. -1.
         11    1    3    3    0    0  0.47666128351E+01 -0.61029624956E+01 -0.91752709670E+01  0.12006346102E+02  0.51100000000E-03 0. -1.
        -11    1    3    3    0    0  0.59823819337E+01  0.81399520271E+00 -0.80329703848E+01  0.10048885274E+02  0.51100000000E-03 0.  1.
        -12    1    3    3    0    0  0.24331247636E+02 -0.62198626336E+01 -0.56072589556E+01  0.25732035592E+02  0.00000000000E+00 0.  1.
</event>
<event>
 7    1  0.2682317E-010  0.4778727E+02  0.7816164E-02  0.1312668E+00
        -11   -1    0    0    0    0  0.00000000000E+00  0.00000000000E+00  0.45593999997E+02  0.45594000000E+02  0.51100000000E-03 0.  1.
         11   -1    0    0    0    0 -0.00000000000E+00 -0.00000000000E+00 -0.45593999997E+02  0.45594000000E+02  0.51100000000E-03 0. -1.
    9900012    2    1    2    0    0 -0.37516802202E+02 -0.44394247228E+01  0.21363625359E+02  0.47787269271E+02  0.19999991913E+02 0.  0.
         12    1    1    2    0    0  0.37516802202E+02  0.44394247228E+01 -0.21363625359E+02  0.43400730729E+02  0.00000000000E+00 0. -1.
         11    1    3    3    0    0 -0.15785040986E+02 -0.20393382323E+01  0.44834097420E+01  0.16535639768E+02  0.51100000000E-03 0. -1.
        -11    1    3    3    0    0 -0.21170064655E+02 -0.48773097722E+01  0.99965084660E+01  0.23914221080E+02  0.51100000000E-03 0.  1.
         12    1    3    3    0    0 -0.56169656089E+00  0.24772232817E+01  0.68837071513E+01  0.73374084225E+01  0.00000000000E+00 0. -1.
</event>
<event>
 7    1  0.2682317E-010  0.4778725E+02  0.7816164E-02  0.1312668E+00
        -11   -1    0    0    0    0  0.00000000000E+00  0.00000000000E+00  0.45593999997E+02  0.45594000000E+02  0.51100000000E-03 0.  1.
         11   -1    0    0    0    0 -0.00000000000E+00 -0.00000000000E+00 -0.45593999997E+02  0.45594000000E+02  0.51100000000E-03 0. -1.
    9900012    2    1    2    0    0 -0.22962722681E+01 -0.15068079100E+02  0.40636256635E+02  0.47787248538E+02  0.19999897386E+02 0.  0.
         12    1    1    2    0    0  0.22962722681E+01  0.15068079100E+02 -0.40636256635E+02  0.43400751462E+02  0.00000000000E+00 0. -1.
         11    1    3    3    0    0  0.13582312441E+01 -0.11208914868E+01 -0.36608981789E+00  0.17986694675E+01  0.51100000000E-03 0. -1.
        -11    1    3    3    0    0  0.41848085387E+01  0.55349797677E+00  0.64958274057E+01  0.77469191594E+01  0.51100000000E-03 0.  1.
        -12    1    3    3    0    0 -0.78393120509E+01 -0.14500685590E+02  0.34506519048E+02  0.38241659912E+02  0.00000000000E+00 0.  1.
</event>
<event>
 7    1  0.2682317E-010  0.4778727E+02  0.7816164E-02  0.1312668E+00
        -11   -1    0    0    0    0  0.00000000000E+00  0.00000000000E+00  0.45593999997E+02  0.45594000000E+02  0.51100000000E-03 0.  1.
         11   -1    0    0    0    0 -0.00000000000E+00 -0.00000000000E+00 -0.45593999997E+02  0.45594000000E+02  0.51100000000E-03 0. -1.
    9900012    2    1    2    0    0 -0.20625890152E+02  0.22273341693E+02  0.31017642720E+02  0.47787271266E+02  0.20000001010E+02 0.  0.
         12    1    1    2    0    0  0.20625890152E+02 -0.22273341693E+02 -0.31017642720E+02  0.43400728734E+02  0.00000000000E+00 0. -1.
         11    1    3    3    0    0 -0.91842226059E+01  0.10135459632E+02  0.14499614395E+02  0.19932794703E+02  0.51100000000E-03 0. -1.
        -11    1    3    3    0    0 -0.12911271591E+02  0.14597807564E+02  0.15120862606E+02  0.24666523995E+02  0.51100000000E-03 0.  1.
         12    1    3    3    0    0  0.14696040449E+01 -0.24599255028E+01  0.13971657193E+01  0.31879525679E+01  0.00000000000E+00 0. -1.
</event>
<event>
 7    1  0.2682317E-010  0.4778726E+02  0.7816164E-02  0.1312668E+00
        -11   -1    0    0    0    0  0.00000000000E+00  0.00000000000E+00  0.45593999997E+02  0.45594000000E+02  0.51100000000E-03 0.  1.
         11   -1    0    0    0    0 -0.00000000000E+00 -0.00000000000E+00 -0.45593999997E+02  0.45594000000E+02  0.51100000000E-03 0. -1.
    9900012    2    1    2    0    0 -0.86435642111E+00 -0.69528344019E+01  0.42831470979E+02  0.47787263549E+02  0.19999965826E+02 0.  0.
         12    1    1    2    0    0  0.86435642111E+00  0.69528344019E+01 -0.42831470979E+02  0.43400736451E+02  0.00000000000E+00 0. -1.
         11    1    3    3    0    0  0.49168289283E+00 -0.51707960417E+01  0.17806911247E+02  0.18548988441E+02  0.51100000000E-03 0. -1.
        -11    1    3    3    0    0 -0.17499896556E+01  0.36837446307E+01  0.23058379089E+02  0.23416261118E+02  0.51100000000E-03 0.  1.
         12    1    3    3    0    0  0.39395034169E+00 -0.54657829909E+01  0.19661806437E+01  0.58220139900E+01  0.00000000000E+00 0. -1.
</event>
<event>
 7    1  0.2682317E-010  0.4778729E+02  0.7816164E-02  0.1312668E+00
        -11   -1    0    0    0    0  0.00000000000E+00  0.00000000000E+00  0.45593999997E+02  0.45594000000E+02  0.51100000000E-03 0. -1.
         11   -1    0    0    0    0 -0.00000000000E+00 -0.00000000000E+00 -0.45593999997E+02  0.45594000000E+02  0.51100000000E-03 0.  1.
    9900012    2    1    2    0    0 -0.10646274994E+02  0.19528104948E+02 -0.37268374365E+02  0.47787288232E+02  0.20000078366E+02 0.  0.
         12    1    1    2    0    0  0.10646274994E+02 -0.19528104948E+02  0.37268374365E+02  0.43400711768E+02  0.00000000000E+00 0. -1.
         11    1    3    3    0    0  0.66259531615E+00  0.29575092479E+01 -0.11972429197E+02  0.12350099378E+02  0.51100000000E-03 0. -1.
        -11    1    3    3    0    0 -0.44642591321E+01  0.16920132713E+02 -0.21055081254E+02  0.27377672427E+02  0.51100000000E-03 0.  1.
        -12    1    3    3    0    0 -0.68446111785E+01 -0.34953701333E+00 -0.42408639141E+01  0.80595164276E+01  0.00000000000E+00 0.  1.
</event>
<event>
 7    1  0.2682317E-010  0.4778727E+02  0.7816164E-02  0.1312668E+00
        -11   -1    0    0    0    0  0.00000000000E+00  0.00000000000E+00  0.45593999997E+02  0.45594000000E+02  0.51100000000E-03 0.  1.
         11   -1    0    0    0    0 -0.00000000000E+00 -0.00000000000E+00 -0.45593999997E+02  0.45594000000E+02  0.51100000000E-03 0. -1.
    9900012    2    1    2    0    0 -0.37026915976E+02 -0.47687870101E+01  0.22133453020E+02  0.47787267531E+02  0.19999983981E+02 0.  0.
         12    1    1    2    0    0  0.37026915976E+02  0.47687870101E+01 -0.22133453020E+02  0.43400732469E+02  0.00000000000E+00 0. -1.
         11    1    3    3    0    0 -0.59630893725E+01  0.43380491944E+01  0.45384732423E+01  0.86588016093E+01  0.51100000000E-03 0. -1.
        -11    1    3    3    0    0 -0.86527777843E+01  0.10785409104E+01  0.10211755201E+02  0.13428095860E+02  0.51100000000E-03 0.  1.
        -12    1    3    3    0    0 -0.22411048819E+02 -0.10185377115E+02  0.73832245762E+01  0.25700370062E+02  0.00000000000E+00 0.  1.
</event>
<event>
 7    1  0.2682317E-010  0.4778727E+02  0.7816164E-02  0.1312668E+00
        -11   -1    0    0    0    0  0.00000000000E+00  0.00000000000E+00  0.45593999997E+02  0.45594000000E+02  0.51100000000E-03 0. -1.
         11   -1    0    0    0    0 -0.00000000000E+00 -0.00000000000E+00 -0.45593999997E+02  0.45594000000E+02  0.51100000000E-03 0.  1.
    9900012    2    1    2    0    0 -0.16031024739E+02  0.39358343446E+02 -0.88062675375E+01  0.47787270732E+02  0.19999998576E+02 0.  0.
         12    1    1    2    0    0  0.16031024739E+02 -0.39358343446E+02  0.88062675375E+01  0.43400729268E+02  0.00000000000E+00 0. -1.
         11    1    3    3    0    0 -0.91228946692E+01  0.10163082027E+02 -0.44172076782E+01  0.14353646484E+02  0.51100000000E-03 0. -1.
        -11    1    3    3    0    0 -0.10279684217E+02  0.20887174078E+02 -0.66032781112E+01  0.24198124528E+02  0.51100000000E-03 0.  1.
         12    1    3    3    0    0  0.33715541471E+01  0.83080873408E+01  0.22142182519E+01  0.92354997210E+01  0.00000000000E+00 0. -1.
</event>
<event>
 7    1  0.2682317E-010  0.4778731E+02  0.7816164E-02  0.1312668E+00
        -11   -1    0    0    0    0  0.00000000000E+00  0.00000000000E+00  0.45593999997E+02  0.45594000000E+02  0.51100000000E-03 0.  1.
         11   -1    0    0    0    0 -0.00000000000E+00 -0.00000000000E+00 -0.45593999997E+02  0.45594000000E+02  0.51100000000E-03 0. -1.
    9900012    2    1    2    0    0  0.20169267530E+02 -0.13405488585E+02  0.36015457050E+02  0.47787313100E+02  0.20000191745E+02 0.  0.
         12    1    1    2    0    0 -0.20169267530E+02  0.13405488585E+02 -0.36015457050E+02  0.43400686900E+02  0.00000000000E+00 0. -1.
         11    1    3    3    0    0  0.21933082231E+01 -0.83929342105E+01  0.46962089584E+01  0.98643968121E+01  0.51100000000E-03 0. -1.
        -11    1    3    3    0    0  0.58900972705E+01 -0.57868487671E+01  0.72918933509E+01  0.11016014407E+02  0.51100000000E-03 0.  1.
        -12    1    3    3    0    0  0.12085862036E+02  0.77429439263E+00  0.24027354741E+02  0.26906901881E+02  0.00000000000E+00 0.  1.
</event>
<event>
 7    1  0.2682317E-010  0.4778727E+02  0.7816164E-02  0.1312668E+00
        -11   -1    0    0    0    0  0.00000000000E+00  0.00000000000E+00  0.45593999997E+02  0.45594000000E+02  0.51100000000E-03 0. -1.
         11   -1    0    0    0    0 -0.00000000000E+00 -0.00000000000E+00 -0.45593999997E+02  0.45594000000E+02  0.51100000000E-03 0.  1.
    9900012    2    1    2    0    0 -0.42294860739E+02  0.68439449761E+01  0.69230714393E+01  0.47787265606E+02  0.19999975204E+02 0.  0.
         12    1    1    2    0    0  0.42294860739E+02 -0.68439449761E+01 -0.69230714393E+01  0.43400734394E+02  0.00000000000E+00 0. -1.
         11    1    3    3    0    0 -0.17316980866E+02  0.24962534694E+01  0.13994782078E+01  0.17551855948E+02  0.51100000000E-03 0. -1.
        -11    1    3    3    0    0 -0.96604387654E+01  0.23605751785E+01 -0.54009761756E+01  0.11316666303E+02  0.51100000000E-03 0.  1.
         12    1    3    3    0    0 -0.15317441108E+02  0.19871163282E+01  0.10924569407E+02  0.18918743355E+02  0.00000000000E+00 0. -1.
</event>
<event>
 7    1  0.2682317E-010  0.4778727E+02  0.7816164E-02  0.1312668E+00
        -11   -1    0    0    0    0  0.00000000000E+00  0.00000000000E+00  0.45593999997E+02  0.45594000000E+02  0.51100000000E-03 0.  1.
         11   -1    0    0    0    0 -0.00000000000E+00 -0.00000000000E+00 -0.45593999997E+02  0.45594000000E+02  0.51100000000E-03 0. -1.
    9900012    2    1    2    0    0 -0.94718828104E+01  0.39945857139E+02  0.14079595210E+02  0.47787273418E+02  0.20000010822E+02 0.  0.
         12    1    1    2    0    0  0.94718828104E+01 -0.39945857139E+02 -0.14079595210E+02  0.43400726582E+02  0.00000000000E+00 0. -1.
         11    1    3    3    0    0 -0.25619637129E+01  0.95819526894E+01 -0.31978927714E+01  0.10421323997E+02  0.51100000000E-03 0. -1.
        -11    1    3    3    0    0 -0.83992643615E+01  0.14965182353E+02  0.58439037327E+01  0.18128859197E+02  0.51100000000E-03 0.  1.
         12    1    3    3    0    0  0.14893452640E+01  0.15398722096E+02  0.11433584249E+02  0.19237090224E+02  0.00000000000E+00 0. -1.
</event>
<event>
 7    1  0.2682317E-010  0.4778727E+02  0.7816164E-02  0.1312668E+00
        -11   -1    0    0    0    0  0.00000000000E+00  0.00000000000E+00  0.45593999997E+02  0.45594000000E+02  0.51100000000E-03 0.  1.
         11   -1    0    0    0    0 -0.00000000000E+00 -0.00000000000E+00 -0.45593999997E+02  0.45594000000E+02  0.51100000000E-03 0. -1.
    9900012    2    1    2    0    0 -0.13551642487E+02  0.16567245888E+02  0.37755825303E+02  0.47787274261E+02  0.20000014665E+02 0.  0.
         12    1    1    2    0    0  0.13551642487E+02 -0.16567245888E+02 -0.37755825303E+02  0.43400725739E+02  0.00000000000E+00 0. -1.
         11    1    3    3    0    0 -0.53340650370E+01  0.98624178908E+01  0.70066992109E+01  0.13221700744E+02  0.51100000000E-03 0. -1.
        -11    1    3    3    0    0 -0.58700354960E+01  0.75049743612E+01  0.10553546879E+02  0.14218273766E+02  0.51100000000E-03 0.  1.
         12    1    3    3    0    0 -0.23475419541E+01 -0.80014636423E+00  0.20195579212E+02  0.20347299751E+02  0.00000000000E+00 0. -1.
</event>
<event>
 7    1  0.2682317E-010  0.4778728E+02  0.7816164E-02  0.1312668E+00
        -11   -1    0    0    0    0  0.00000000000E+00  0.00000000000E+00  0.45593999997E+02  0.45594000000E+02  0.51100000000E-03 0.  1.
         11   -1    0    0    0    0 -0.00000000000E+00 -0.00000000000E+00 -0.45593999997E+02  0.45594000000E+02  0.51100000000E-03 0. -1.
    9900012    2    1    2    0    0 -0.33005802478E+02  0.11525966466E+02  0.25717535635E+02  0.47787279506E+02  0.20000038581E+02 0.  0.
         12    1    1    2    0    0  0.33005802478E+02 -0.11525966466E+02 -0.25717535635E+02  0.43400720494E+02  0.00000000000E+00 0. -1.
         11    1    3    3    0    0 -0.50000939654E+01  0.32310178121E+01 -0.17448518062E+01  0.62036218333E+01  0.51100000000E-03 0.  1.
        -11    1    3    3    0    0 -0.19587893703E+01 -0.23647015549E+01  0.30369670197E+01  0.43187773942E+01  0.51100000000E-03 0. -1.
        -12    1    3    3    0    0 -0.26046919143E+02  0.10659650209E+02  0.24425420422E+02  0.37264880279E+02  0.00000000000E+00 0.  1.
</event>
<event>
 7    1  0.2682317E-010  0.4778727E+02  0.7816164E-02  0.1312668E+00
        -11   -1    0    0    0    0  0.00000000000E+00  0.00000000000E+00  0.45593999997E+02  0.45594000000E+02  0.51100000000E-03 0. -1.
         11   -1    0    0    0    0 -0.00000000000E+00 -0.00000000000E+00 -0.45593999997E+02  0.45594000000E+02  0.51100000000E-03 0.  1.
    9900012    2    1    2    0    0  0.24019418278E+02 -0.67156878072E+01 -0.35518873217E+02  0.47787271069E+02  0.20000000113E+02 0.  0.
         12    1    1    2    0    0 -0.24019418278E+02  0.67156878072E+01  0.35518873217E+02  0.43400728931E+02  0.00000000000E+00 0. -1.
         11    1    3    3    0    0  0.11893596636E+02 -0.11937514344E+01 -0.23070774802E+02  0.25983520425E+02  0.51100000000E-03 0. -1.
        -11    1    3    3    0    0  0.13862860353E+02 -0.20515256235E+01 -0.95060817476E+01  0.16933790037E+02  0.51100000000E-03 0.  1.
         12    1    3    3    0    0 -0.17370387113E+01 -0.34704107493E+01 -0.29420166670E+01  0.48699606079E+01  0.00000000000E+00 0. -1.
</event>
<event>
 7    1  0.2682317E-010  0.4778727E+02  0.7816164E-02  0.1312668E+00
        -11   -1    0    0    0    0  0.00000000000E+00  0.00000000000E+00  0.45593999997E+02  0.45594000000E+02  0.51100000000E-03 0.  1.
         11   -1    0    0    0    0 -0.00000000000E+00 -0.00000000000E+00 -0.45593999997E+02  0.45594000000E+02  0.51100000000E-03 0. -1.
    9900012    2    1    2    0    0 -0.29745099286E+02  0.15426733863E+02  0.27583844349E+02  0.47787268229E+02  0.19999987161E+02 0.  0.
         12    1    1    2    0    0  0.29745099286E+02 -0.15426733863E+02 -0.27583844349E+02  0.43400731771E+02  0.00000000000E+00 0. -1.
         11    1    3    3    0    0 -0.62659536985E+01  0.50007183278E+01  0.81594596994E+01  0.11438799867E+02  0.51100000000E-03 0. -1.
        -11    1    3    3    0    0 -0.22060419368E+02  0.13662247655E+02  0.13014721548E+02  0.29029331561E+02  0.51100000000E-03 0.  1.
         12    1    3    3    0    0 -0.14187262198E+01 -0.32362321201E+01  0.64096631019E+01  0.73191368004E+01  0.00000000000E+00 0. -1.
</event>
<event>
 7    1  0.2682317E-010  0.4778727E+02  0.7816164E-02  0.1312668E+00
        -11   -1    0    0    0    0  0.00000000000E+00  0.00000000000E+00  0.45593999997E+02  0.45594000000E+02  0.51100000000E-03 0.  1.
         11   -1    0    0    0    0 -0.00000000000E+00 -0.00000000000E+00 -0.45593999997E+02  0.45594000000E+02  0.51100000000E-03 0. -1.
    9900012    2    1    2    0    0  0.77380934802E+01 -0.32639695669E+02  0.27538981580E+02  0.47787270392E+02  0.19999997024E+02 0.  0.
         12    1    1    2    0    0 -0.77380934802E+01  0.32639695669E+02 -0.27538981580E+02  0.43400729608E+02  0.00000000000E+00 0. -1.
         11    1    3    3    0    0  0.82513809688E+01 -0.75060616927E+01  0.79694874466E+01  0.13709083866E+02  0.51100000000E-03 0. -1.
        -11    1    3    3    0    0  0.18667652962E+01 -0.20800489429E+01  0.73810651440E+01  0.78924989197E+01  0.51100000000E-03 0.  1.
        -12    1    3    3    0    0 -0.23800527848E+01 -0.23053585034E+02  0.12188428989E+02  0.26185687606E+02  0.00000000000E+00 0.  1.
</event>
<event>
 7    1  0.2682317E-010  0.4778728E+02  0.7816164E-02  0.1312668E+00
        -11   -1    0    0    0    0  0.00000000000E+00  0.00000000000E+00  0.45593999997E+02  0.45594000000E+02  0.51100000000E-03 0.  1.
         11   -1    0    0    0    0 -0.00000000000E+00 -0.00000000000E+00 -0.45593999997E+02  0.45594000000E+02  0.51100000000E-03 0. -1.
    9900012    2    1    2    0    0 -0.31703393297E+02  0.29087447778E+02  0.56954380411E+01  0.47787276743E+02  0.20000025981E+02 0.  0.
         12    1    1    2    0    0  0.31703393297E+02 -0.29087447778E+02 -0.56954380411E+01  0.43400723257E+02  0.00000000000E+00 0. -1.
         11    1    3    3    0    0 -0.23963735409E+02  0.24077051192E+02  0.33742969748E+01  0.34137236109E+02  0.51100000000E-03 0.  1.
        -11    1    3    3    0    0 -0.14757889118E+01  0.67531979239E+01  0.69116288187E+00  0.69470383259E+01  0.51100000000E-03 0. -1.
        -12    1    3    3    0    0 -0.62638689759E+01 -0.17428013377E+01  0.16299781844E+01  0.67030023073E+01  0.00000000000E+00 0.  1.
</event>
<event>
 7    1  0.2682317E-010  0.4778728E+02  0.7816164E-02  0.1312668E+00
        -11   -1    0    0    0    0  0.00000000000E+00  0.00000000000E+00  0.45593999997E+02  0.45594000000E+02  0.51100000000E-03 0. -1.
         11   -1    0    0    0    0 -0.00000000000E+00 -0.00000000000E+00 -0.45593999997E+02  0.45594000000E+02  0.51100000000E-03 0.  1.
    9900012    2    1    2    0    0 -0.21621553335E+02 -0.37496667097E+02 -0.31829407954E+01  0.47787277378E+02  0.20000028876E+02 0.  0.
         12    1    1    2    0    0  0.21621553335E+02  0.37496667097E+02  0.31829407954E+01  0.43400722622E+02  0.00000000000E+00 0. -1.
         11    1    3    3    0    0 -0.69332250821E+00 -0.36090492256E+01 -0.37589559291E+01  0.52569651274E+01  0.51100000000E-03 0. -1.
        -11    1    3    3    0    0 -0.15611600032E+02 -0.24057797528E+02 -0.63618261127E+01  0.29376393741E+02  0.51100000000E-03 0.  1.
         12    1    3    3    0    0 -0.53166307948E+01 -0.98298203435E+01  0.69378412465E+01  0.13153918509E+02  0.00000000000E+00 0. -1.
</event>
<event>
 7    1  0.2682317E-010  0.4778727E+02  0.7816164E-02  0.1312668E+00
        -11   -1    0    0    0    0  0.00000000000E+00  0.00000000000E+00  0.45593999997E+02  0.45594000000E+02  0.51100000000E-03 0.  1.
         11   -1    0    0    0    0 -0.00000000000E+00 -0.00000000000E+00 -0.45593999997E+02  0.45594000000E+02  0.51100000000E-03 0. -1.
    9900012    2    1    2    0    0 -0.26150219095E+02  0.19900109887E+02  0.28350925419E+02  0.47787270693E+02  0.19999998399E+02 0.  0.
         12    1    1    2    0    0  0.26150219095E+02 -0.19900109887E+02 -0.28350925419E+02  0.43400729307E+02  0.00000000000E+00 0. -1.
         11    1    3    3    0    0 -0.11436193082E+02  0.67257179337E+01  0.18239266579E+02  0.22554215560E+02  0.51100000000E-03 0. -1.
        -11    1    3    3    0    0 -0.94962260938E+01  0.24153049894E+01  0.88597785392E+01  0.13210135663E+02  0.51100000000E-03 0.  1.
         12    1    3    3    0    0 -0.52177999192E+01  0.10759086963E+02  0.12518803009E+01  0.12022919470E+02  0.00000000000E+00 0. -1.
</event>
<event>
 7    1  0.2682317E-010  0.4778727E+02  0.7816164E-02  0.1312668E+00
        -11   -1    0    0    0    0  0.00000000000E+00  0.00000000000E+00  0.45593999997E+02  0.45594000000E+02  0.51100000000E-03 0.  1.
         11   -1    0    0    0    0 -0.00000000000E+00 -0.00000000000E+00 -0.45593999997E+02  0.45594000000E+02  0.51100000000E-03 0. -1.
    9900012    2    1    2    0    0 -0.23121674881E+02 -0.32771775470E+02  0.16583795363E+02  0.47787269759E+02  0.19999994141E+02 0.  0.
         12    1    1    2    0    0  0.23121674881E+02  0.32771775470E+02 -0.16583795363E+02  0.43400730241E+02  0.00000000000E+00 0. -1.
         11    1    3    3    0    0 -0.41701935917E+01  0.96020938000E+00 -0.12009993061E+01  0.44446502945E+01  0.51100000000E-03 0. -1.
        -11    1    3    3    0    0 -0.97645478594E+01 -0.98346503304E+01  0.74366225832E+01  0.15728003615E+02  0.51100000000E-03 0.  1.
         12    1    3    3    0    0 -0.91869334296E+01 -0.23897334520E+02  0.10348172086E+02  0.27614615850E+02  0.00000000000E+00 0. -1.
</event>
<event>
 7    1  0.2682317E-010  0.4778727E+02  0.7816164E-02  0.1312668E+00
        -11   -1    0    0    0    0  0.00000000000E+00  0.00000000000E+00  0.45593999997E+02  0.45594000000E+02  0.51100000000E-03 0. -1.
         11   -1    0    0    0    0 -0.00000000000E+00 -0.00000000000E+00 -0.45593999997E+02  0.45594000000E+02  0.51100000000E-03 0.  1.
    9900012    2    1    2    0    0  0.25181935257E+01  0.47698381084E+01 -0.43064261498E+02  0.47787271059E+02  0.20000000067E+02 0.  0.
         12    1    1    2    0    0 -0.25181935257E+01 -0.47698381084E+01  0.43064261498E+02  0.43400728941E+02  0.00000000000E+00 0. -1.
         11    1    3    3    0    0 -0.96069383780E+00  0.45475063091E+01 -0.11330240109E+02  0.12246513278E+02  0.51100000000E-03 0. -1.
        -11    1    3    3    0    0 -0.31603644965E+01  0.18443841519E+01 -0.26952297277E+02  0.27199558552E+02  0.51100000000E-03 0.  1.
         12    1    3    3    0    0  0.66392518600E+01 -0.16220523525E+01 -0.47817241125E+01  0.83411992293E+01  0.00000000000E+00 0. -1.
</event>
<event>
 7    1  0.2682317E-010  0.4778727E+02  0.7816164E-02  0.1312668E+00
        -11   -1    0    0    0    0  0.00000000000E+00  0.00000000000E+00  0.45593999997E+02  0.45594000000E+02  0.51100000000E-03 0.  1.
         11   -1    0    0    0    0 -0.00000000000E+00 -0.00000000000E+00 -0.45593999997E+02  0.45594000000E+02  0.51100000000E-03 0. -1.
    9900012    2    1    2    0    0 -0.12299530552E+02  0.40939950745E+01  0.41419611483E+02  0.47787268868E+02  0.19999990075E+02 0.  0.
         12    1    1    2    0    0  0.12299530552E+02 -0.40939950745E+01 -0.41419611483E+02  0.43400731132E+02  0.00000000000E+00 0. -1.
         11    1    3    3    0    0  0.95861373944E+00 -0.79223262743E+00  0.10694663000E+01  0.16402229316E+01  0.51100000000E-03 0. -1.
        -11    1    3    3    0    0  0.25923145727E+01 -0.19999896491E+01  0.15729194427E+02  0.16066350270E+02  0.51100000000E-03 0.  1.
         12    1    3    3    0    0 -0.15850458864E+02  0.68862173510E+01  0.24620950756E+02  0.30080695666E+02  0.00000000000E+00 0. -1.
</event>
<event>
 7    1  0.2682317E-010  0.4778727E+02  0.7816164E-02  0.1312668E+00
        -11   -1    0    0    0    0  0.00000000000E+00  0.00000000000E+00  0.45593999997E+02  0.45594000000E+02  0.51100000000E-03 0.  1.
         11   -1    0    0    0    0 -0.00000000000E+00 -0.00000000000E+00 -0.45593999997E+02  0.45594000000E+02  0.51100000000E-03 0. -1.
    9900012    2    1    2    0    0 -0.63321989417E+01  0.73798658427E+01  0.42297328527E+02  0.47787272312E+02  0.20000005781E+02 0.  0.
         12    1    1    2    0    0  0.63321989417E+01 -0.73798658427E+01 -0.42297328527E+02  0.43400727688E+02  0.00000000000E+00 0. -1.
         11    1    3    3    0    0 -0.38845281144E+01  0.44995172215E+01  0.69971402005E+01  0.91812409370E+01  0.51100000000E-03 0. -1.
        -11    1    3    3    0    0 -0.26777897914E+01  0.82492932109E+01  0.12721794506E+02  0.15396929966E+02  0.51100000000E-03 0.  1.
        -12    1    3    3    0    0  0.23011896399E+00 -0.53689445897E+01  0.22578393820E+02  0.23209101410E+02  0.00000000000E+00 0.  1.
</event>
<event>
 7    1  0.2682317E-010  0.4778727E+02  0.7816164E-02  0.1312668E+00
        -11   -1    0    0    0    0  0.00000000000E+00  0.00000000000E+00  0.45593999997E+02  0.45594000000E+02  0.51100000000E-03 0.  1.
         11   -1    0    0    0    0 -0.00000000000E+00 -0.00000000000E+00 -0.45593999997E+02  0.45594000000E+02  0.51100000000E-03 0. -1.
    9900012    2    1    2    0    0 -0.20701660375E+02  0.13969543339E+02  0.35495300335E+02  0.47787271558E+02  0.20000002343E+02 0.  0.
         12    1    1    2    0    0  0.20701660375E+02 -0.13969543339E+02 -0.35495300335E+02  0.43400728442E+02  0.00000000000E+00 0. -1.
         11    1    3    3    0    0 -0.53398975657E+01  0.23940129696E+01  0.64973428885E+01  0.87442134571E+01  0.51100000000E-03 0. -1.
        -11    1    3    3    0    0 -0.14566590036E+02  0.15845878616E+02  0.26058161342E+02  0.33798005668E+02  0.51100000000E-03 0.  1.
         12    1    3    3    0    0 -0.79517277259E+00 -0.42703482463E+01  0.29397961051E+01  0.52450524328E+01  0.00000000000E+00 0. -1.
</event>
<event>
 7    1  0.2682317E-010  0.4778726E+02  0.7816164E-02  0.1312668E+00
        -11   -1    0    0    0    0  0.00000000000E+00  0.00000000000E+00  0.45593999997E+02  0.45594000000E+02  0.51100000000E-03 0.  1.
         11   -1    0    0    0    0 -0.00000000000E+00 -0.00000000000E+00 -0.45593999997E+02  0.45594000000E+02  0.51100000000E-03 0. -1.
    9900012    2    1    2    0    0  0.72612286408E+01 -0.36857965107E+02  0.21734523396E+02  0.47787256453E+02  0.19999933469E+02 0.  0.
         12    1    1    2    0    0 -0.72612286408E+01  0.36857965107E+02 -0.21734523396E+02  0.43400743547E+02  0.00000000000E+00 0. -1.
         11    1    3    3    0    0 -0.75867736084E+00 -0.79557517867E+00  0.40010465754E+01  0.41493258685E+01  0.51100000000E-03 0. -1.
        -11    1    3    3    0    0  0.66280786901E+01 -0.81231723416E+01  0.10291157844E+02  0.14690993365E+02  0.51100000000E-03 0.  1.
        -12    1    3    3    0    0  0.13918273116E+01 -0.27939217587E+02  0.74423189771E+01  0.28946937220E+02  0.00000000000E+00 0.  1.
</event>
<event>
 7    1  0.2682317E-010  0.4778727E+02  0.7816164E-02  0.1312668E+00
        -11   -1    0    0    0    0  0.00000000000E+00  0.00000000000E+00  0.45593999997E+02  0.45594000000E+02  0.51100000000E-03 0.  1.
         11   -1    0    0    0    0 -0.00000000000E+00 -0.00000000000E+00 -0.45593999997E+02  0.45594000000E+02  0.51100000000E-03 0. -1.
    9900012    2    1    2    0    0 -0.29837257174E+02  0.31397596504E+02  0.27481789550E+01  0.47787268792E+02  0.19999989729E+02 0.  0.
         12    1    1    2    0    0  0.29837257174E+02 -0.31397596504E+02 -0.27481789550E+01  0.43400731208E+02  0.00000000000E+00 0. -1.
         11    1    3    3    0    0 -0.49693916877E+01  0.45482235042E+01  0.60463539438E+01  0.90520487772E+01  0.51100000000E-03 0. -1.
        -11    1    3    3    0    0 -0.15867075782E+02  0.14289980703E+02  0.38710102736E+01  0.21701436892E+02  0.51100000000E-03 0.  1.
         12    1    3    3    0    0 -0.90007897036E+01  0.12559392296E+02 -0.71691852624E+01  0.17033783122E+02  0.00000000000E+00 0. -1.
</event>
<event>
 7    1  0.2682317E-010  0.4778725E+02  0.7816164E-02  0.1312668E+00
        -11   -1    0    0    0    0  0.00000000000E+00  0.00000000000E+00  0.45593999997E+02  0.45594000000E+02  0.51100000000E-03 0.  1.
         11   -1    0    0    0    0 -0.00000000000E+00 -0.00000000000E+00 -0.45593999997E+02  0.45594000000E+02  0.51100000000E-03 0. -1.
    9900012    2    1    2    0    0 -0.26906019287E+02 -0.16518582522E+02  0.29779654964E+02  0.47787247793E+02  0.19999893985E+02 0.  0.
         12    1    1    2    0    0  0.26906019287E+02  0.16518582522E+02 -0.29779654964E+02  0.43400752207E+02  0.00000000000E+00 0. -1.
         11    1    3    3    0    0 -0.11177599502E+02 -0.13190488619E+02  0.16828697055E+02  0.24127427659E+02  0.51100000000E-03 0. -1.
        -11    1    3    3    0    0 -0.15548608538E+01 -0.27797779754E+01  0.80427357636E+01  0.86504541321E+01  0.51100000000E-03 0.  1.
         12    1    3    3    0    0 -0.14173558931E+02 -0.54831592796E+00  0.49082221453E+01  0.15009366001E+02  0.00000000000E+00 0. -1.
</event>
<event>
 7    1  0.2682317E-010  0.4778727E+02  0.7816164E-02  0.1312668E+00
        -11   -1    0    0    0    0  0.00000000000E+00  0.00000000000E+00  0.45593999997E+02  0.45594000000E+02  0.51100000000E-03 0.  1.
         11   -1    0    0    0    0 -0.00000000000E+00 -0.00000000000E+00 -0.45593999997E+02  0.45594000000E+02  0.51100000000E-03 0. -1.
    9900012    2    1    2    0    0 -0.35920212856E+02  0.76251208490E+01  0.23134812179E+02  0.47787266203E+02  0.19999977926E+02 0.  0.
         12    1    1    2    0    0  0.35920212856E+02 -0.76251208490E+01 -0.23134812179E+02  0.43400733797E+02  0.00000000000E+00 0. -1.
         11    1    3    3    0    0 -0.28098283099E+01  0.55878426672E+01  0.88820140945E+00  0.63172797001E+01  0.51100000000E-03 0. -1.
        -11    1    3    3    0    0 -0.58750330062E+00 -0.93977570443E+00 -0.91050062930E+00  0.14343465969E+01  0.51100000000E-03 0.  1.
        -12    1    3    3    0    0 -0.32522881245E+02  0.29770538862E+01  0.23157111399E+02  0.40035639906E+02  0.00000000000E+00 0.  1.
</event>
<event>
 7    1  0.2682317E-010  0.4778727E+02  0.7816164E-02  0.1312668E+00
        -11   -1    0    0    0    0  0.00000000000E+00  0.00000000000E+00  0.45593999997E+02  0.45594000000E+02  0.51100000000E-03 0.  1.
         11   -1    0    0    0    0 -0.00000000000E+00 -0.00000000000E+00 -0.45593999997E+02  0.45594000000E+02  0.51100000000E-03 0. -1.
    9900012    2    1    2    0    0  0.13248478361E+01 -0.43203668366E+02 -0.39129407863E+01  0.47787270885E+02  0.19999999275E+02 0.  0.
         12    1    1    2    0    0 -0.13248478361E+01  0.43203668366E+02  0.39129407863E+01  0.43400729115E+02  0.00000000000E+00 0. -1.
         11    1    3    3    0    0 -0.34437746455E+01 -0.65475755086E+01 -0.17243092390E+01  0.75962866891E+01  0.51100000000E-03 0. -1.
        -11    1    3    3    0    0 -0.49143970735E+01 -0.66999191410E+01  0.16634779411E+01  0.84739231890E+01  0.51100000000E-03 0.  1.
        -12    1    3    3    0    0  0.96830195551E+01 -0.29956173716E+02 -0.38521094884E+01  0.31717061007E+02  0.00000000000E+00 0.  1.
</event>
<event>
 7    1  0.2682317E-010  0.4778727E+02  0.7816164E-02  0.1312668E+00
        -11   -1    0    0    0    0  0.00000000000E+00  0.00000000000E+00  0.45593999997E+02  0.45594000000E+02  0.51100000000E-03 0.  1.
         11   -1    0    0    0    0 -0.00000000000E+00 -0.00000000000E+00 -0.45593999997E+02  0.45594000000E+02  0.51100000000E-03 0. -1.
    9900012    2    1    2    0    0  0.23998631744E+02  0.17981397914E+02  0.31374486262E+02  0.47787269767E+02  0.19999994175E+02 0.  0.
         12    1    1    2    0    0 -0.23998631744E+02 -0.17981397914E+02 -0.31374486262E+02  0.43400730233E+02  0.00000000000E+00 0. -1.
         11    1    3    3    0    0  0.42988954448E+01  0.46384495308E+01  0.18651787807E+02  0.19694793849E+02  0.51100000000E-03 0. -1.
        -11    1    3    3    0    0  0.16628206618E+01 -0.10454132273E+01  0.79510348050E+00  0.21189740855E+01  0.51100000000E-03 0.  1.
        -12    1    3    3    0    0  0.18036915638E+02  0.14388361611E+02  0.11927594975E+02  0.25973501833E+02  0.00000000000E+00 0.  1.
</event>
<event>
 7    1  0.2682317E-010  0.4778728E+02  0.7816164E-02  0.1312668E+00
        -11   -1    0    0    0    0  0.00000000000E+00  0.00000000000E+00  0.45593999997E+02  0.45594000000E+02  0.51100000000E-03 0. -1.
         11   -1    0    0    0    0 -0.00000000000E+00 -0.00000000000E+00 -0.45593999997E+02  0.45594000000E+02  0.51100000000E-03 0.  1.
    9900012    2    1    2    0    0 -0.16908187845E+02  0.26721218866E+02 -0.29727299941E+02  0.47787277475E+02  0.20000029322E+02 0.  0.
         12    1    1    2    0    0  0.16908187845E+02 -0.26721218866E+02  0.29727299941E+02  0.43400722525E+02  0.00000000000E+00 0. -1.
         11    1    3    3    0    0 -0.12139836609E+02  0.14160543596E+02 -0.12057796818E+02  0.22210067361E+02  0.51100000000E-03 0.  1.
        -11    1    3    3    0    0 -0.70675680784E+01  0.17515354300E+01 -0.54039345592E+01  0.90675743111E+01  0.51100000000E-03 0. -1.
         12    1    3    3    0    0  0.22992168420E+01  0.10809139840E+02 -0.12265568564E+02  0.16509635803E+02  0.00000000000E+00 0. -1.
</event>
<event>
 7    1  0.2682317E-010  0.4778727E+02  0.7816164E-02  0.1312668E+00
        -11   -1    0    0    0    0  0.00000000000E+00  0.00000000000E+00  0.45593999997E+02  0.45594000000E+02  0.51100000000E-03 0.  1.
         11   -1    0    0    0    0 -0.00000000000E+00 -0.00000000000E+00 -0.45593999997E+02  0.45594000000E+02  0.51100000000E-03 0. -1.
    9900012    2    1    2    0    0 -0.20815084584E+02 -0.24635758966E+02  0.29041950977E+02  0.47787270943E+02  0.19999999540E+02 0.  0.
         12    1    1    2    0    0  0.20815084584E+02  0.24635758966E+02 -0.29041950977E+02  0.43400729057E+02  0.00000000000E+00 0. -1.
         11    1    3    3    0    0 -0.57758392954E+01 -0.92580443295E+01  0.19377359618E+02  0.22238564935E+02  0.51100000000E-03 0. -1.
        -11    1    3    3    0    0 -0.74138678759E+01 -0.81319220546E+01  0.10215999192E+02  0.15015333261E+02  0.51100000000E-03 0.  1.
         12    1    3    3    0    0 -0.76253774131E+01 -0.72457925816E+01 -0.55140783266E+00  0.10533372747E+02  0.00000000000E+00 0. -1.
</event>
<event>
 7    1  0.2682317E-010  0.4778727E+02  0.7816164E-02  0.1312668E+00
        -11   -1    0    0    0    0  0.00000000000E+00  0.00000000000E+00  0.45593999997E+02  0.45594000000E+02  0.51100000000E-03 0.  1.
         11   -1    0    0    0    0 -0.00000000000E+00 -0.00000000000E+00 -0.45593999997E+02  0.45594000000E+02  0.51100000000E-03 0. -1.
    9900012    2    1    2    0    0 -0.39667328214E+02  0.17176197547E+02 -0.38864610200E+01  0.47787271099E+02  0.20000000251E+02 0.  0.
         12    1    1    2    0    0  0.39667328214E+02 -0.17176197547E+02  0.38864610200E+01  0.43400728901E+02  0.00000000000E+00 0. -1.
         11    1    3    3    0    0 -0.33372888576E+02  0.13057240769E+02  0.30908858305E+01  0.35969359237E+02  0.51100000000E-03 0.  1.
        -11    1    3    3    0    0 -0.14438286432E+01  0.36322801106E+01 -0.87153956090E+00  0.40047074075E+01  0.51100000000E-03 0. -1.
        -12    1    3    3    0    0 -0.48506109951E+01  0.48667666759E+00 -0.61058072896E+01  0.78132044554E+01  0.00000000000E+00 0.  1.
</event>
<event>
 7    1  0.2682317E-010  0.4778726E+02  0.7816164E-02  0.1312668E+00
        -11   -1    0    0    0    0  0.00000000000E+00  0.00000000000E+00  0.45593999997E+02  0.45594000000E+02  0.51100000000E-03 0.  1.
         11   -1    0    0    0    0 -0.00000000000E+00 -0.00000000000E+00 -0.45593999997E+02  0.45594000000E+02  0.51100000000E-03 0. -1.
    9900012    2    1    2    0    0 -0.69823407269E+01  0.14506286024E+02  0.40304331972E+02  0.47787255859E+02  0.19999930765E+02 0.  0.
         12    1    1    2    0    0  0.69823407269E+01 -0.14506286024E+02 -0.40304331972E+02  0.43400744141E+02  0.00000000000E+00 0. -1.
         11    1    3    3    0    0  0.35768371221E+01 -0.35349400917E-01  0.62294241076E+01  0.71833653917E+01  0.51100000000E-03 0. -1.
        -11    1    3    3    0    0  0.17873900360E+01  0.75311966131E+01  0.98833121861E+01  0.12553626790E+02  0.51100000000E-03 0.  1.
         12    1    3    3    0    0 -0.12346567885E+02  0.70104388116E+01  0.24191595679E+02  0.28050263677E+02  0.00000000000E+00 0. -1.
</event>
<event>
 7    1  0.2682317E-010  0.4778727E+02  0.7816164E-02  0.1312668E+00
        -11   -1    0    0    0    0  0.00000000000E+00  0.00000000000E+00  0.45593999997E+02  0.45594000000E+02  0.51100000000E-03 0.  1.
         11   -1    0    0    0    0 -0.00000000000E+00 -0.00000000000E+00 -0.45593999997E+02  0.45594000000E+02  0.51100000000E-03 0. -1.
    9900012    2    1    2    0    0 -0.20568642819E+01 -0.43248297182E+02  0.29962702219E+01  0.47787268035E+02  0.19999986280E+02 0.  0.
         12    1    1    2    0    0  0.20568642819E+01  0.43248297182E+02 -0.29962702219E+01  0.43400731965E+02  0.00000000000E+00 0. -1.
         11    1    3    3    0    0 -0.11811591395E+01 -0.18588278964E+01 -0.43475802746E+01  0.48735851861E+01  0.51100000000E-03 0. -1.
        -11    1    3    3    0    0  0.19980505973E+01 -0.91424715133E+01  0.45862862613E+01  0.10421660784E+02  0.51100000000E-03 0.  1.
        -12    1    3    3    0    0 -0.28737557397E+01 -0.32246997772E+02  0.27575642353E+01  0.32492022065E+02  0.00000000000E+00 0.  1.
</event>
<event>
 7    1  0.2682317E-010  0.4778728E+02  0.7816164E-02  0.1312668E+00
        -11   -1    0    0    0    0  0.00000000000E+00  0.00000000000E+00  0.45593999997E+02  0.45594000000E+02  0.51100000000E-03 0. -1.
         11   -1    0    0    0    0 -0.00000000000E+00 -0.00000000000E+00 -0.45593999997E+02  0.45594000000E+02  0.51100000000E-03 0.  1.
    9900012    2    1    2    0    0 -0.27050037906E+02  0.31361709301E+01 -0.33794711772E+02  0.47787278087E+02  0.20000032112E+02 0.  0.
         12    1    1    2    0    0  0.27050037906E+02 -0.31361709301E+01  0.33794711772E+02  0.43400721913E+02  0.00000000000E+00 0. -1.
         11    1    3    3    0    0 -0.71080936273E+01  0.56900367966E+01 -0.88070802674E+01  0.12667524496E+02  0.51100000000E-03 0. -1.
        -11    1    3    3    0    0 -0.20480509807E+02 -0.86069514447E+00 -0.25973357638E+02  0.33087873690E+02  0.51100000000E-03 0.  1.
        -12    1    3    3    0    0  0.53856552890E+00 -0.16931707220E+01  0.98572613341E+00  0.20318799012E+01  0.00000000000E+00 0.  1.
</event>
<event>
 7    1  0.2682317E-010  0.4778727E+02  0.7816164E-02  0.1312668E+00
        -11   -1    0    0    0    0  0.00000000000E+00  0.00000000000E+00  0.45593999997E+02  0.45594000000E+02  0.51100000000E-03 0.  1.
         11   -1    0    0    0    0 -0.00000000000E+00 -0.00000000000E+00 -0.45593999997E+02  0.45594000000E+02  0.51100000000E-03 0. -1.
    9900012    2    1    2    0    0  0.24860482069E+02 -0.14709777206E+02  0.32391389913E+02  0.47787271266E+02  0.20000001011E+02 0.  0.
         12    1    1    2    0    0 -0.24860482069E+02  0.14709777206E+02 -0.32391389913E+02  0.43400728734E+02  0.00000000000E+00 0. -1.
         11    1    3    3    0    0  0.78131902287E+01  0.89468743675E+00  0.34278324460E+01  0.85788369082E+01  0.51100000000E-03 0. -1.
        -11    1    3    3    0    0  0.19027523830E+02 -0.14409896664E+02  0.24637586601E+02  0.34303096926E+02  0.51100000000E-03 0.  1.
         12    1    3    3    0    0 -0.19802319893E+01 -0.11945679789E+01  0.43259708661E+01  0.49053374320E+01  0.00000000000E+00 0. -1.
</event>
<event>
 7    1  0.2682317E-010  0.4778727E+02  0.7816164E-02  0.1312668E+00
        -11   -1    0    0    0    0  0.00000000000E+00  0.00000000000E+00  0.45593999997E+02  0.45594000000E+02  0.51100000000E-03 0. -1.
         11   -1    0    0    0    0 -0.00000000000E+00 -0.00000000000E+00 -0.45593999997E+02  0.45594000000E+02  0.51100000000E-03 0.  1.
    9900012    2    1    2    0    0 -0.15419410176E+02  0.34409976038E+02 -0.21489963404E+02  0.47787272031E+02  0.20000004499E+02 0.  0.
         12    1    1    2    0    0  0.15419410176E+02 -0.34409976038E+02  0.21489963404E+02  0.43400727969E+02  0.00000000000E+00 0. -1.
         11    1    3    3    0    0 -0.30437098738E+01  0.15068884279E+01  0.23821245703E+00  0.34046479944E+01  0.51100000000E-03 0. -1.
        -11    1    3    3    0    0  0.95682417887E+00  0.70001352037E+01  0.13789176830E+01  0.71985289897E+01  0.51100000000E-03 0.  1.
        -12    1    3    3    0    0 -0.13332524481E+02  0.25902952407E+02 -0.23107093544E+02  0.37184095047E+02  0.00000000000E+00 0.  1.
</event>
<event>
 7    1  0.2682317E-010  0.4778727E+02  0.7816164E-02  0.1312668E+00
        -11   -1    0    0    0    0  0.00000000000E+00  0.00000000000E+00  0.45593999997E+02  0.45594000000E+02  0.51100000000E-03 0. -1.
         11   -1    0    0    0    0 -0.00000000000E+00 -0.00000000000E+00 -0.45593999997E+02  0.45594000000E+02  0.51100000000E-03 0.  1.
    9900012    2    1    2    0    0  0.74762567811E+01  0.37046070699E+01 -0.42591131391E+02  0.47787274175E+02  0.20000014274E+02 0.  0.
         12    1    1    2    0    0 -0.74762567811E+01 -0.37046070699E+01  0.42591131391E+02  0.43400725825E+02  0.00000000000E+00 0. -1.
         11    1    3    3    0    0  0.30060464015E+00  0.11824930262E+01 -0.71924743635E+01  0.72952272506E+01  0.51100000000E-03 0. -1.
        -11    1    3    3    0    0  0.35760657203E+01  0.16951830532E+01 -0.36440339850E+02  0.36654607626E+02  0.51100000000E-03 0.  1.
         12    1    3    3    0    0  0.35995864206E+01  0.82693099055E+00  0.10416828227E+01  0.38374392980E+01  0.00000000000E+00 0. -1.
</event>
<event>
 7    1  0.2682317E-010  0.4778728E+02  0.7816164E-02  0.1312668E+00
        -11   -1    0    0    0    0  0.00000000000E+00  0.00000000000E+00  0.45593999997E+02  0.45594000000E+02  0.51100000000E-03 0.  1.
         11   -1    0    0    0    0 -0.00000000000E+00 -0.00000000000E+00 -0.45593999997E+02  0.45594000000E+02  0.51100000000E-03 0. -1.
    9900012    2    1    2    0    0  0.33273139066E+02 -0.15690602457E+02  0.23028794952E+02  0.47787283581E+02  0.20000057159E+02 0.  0.
         12    1    1    2    0    0 -0.33273139066E+02  0.15690602457E+02 -0.23028794952E+02  0.43400716419E+02  0.00000000000E+00 0. -1.
         11    1    3    3    0    0  0.17736176056E+02 -0.95314321897E+01  0.18295221108E+02  0.27205426965E+02  0.51100000000E-03 0.  1.
        -11    1    3    3    0    0 -0.60183481191E+00  0.71349173255E+00  0.27796054959E+01  0.29321464095E+01  0.51100000000E-03 0. -1.
        -12    1    3    3    0    0  0.16138797821E+02 -0.68726619994E+01  0.19539683481E+01  0.17649710207E+02  0.00000000000E+00 0.  1.
</event>
<event>
 7    1  0.2682317E-010  0.4778726E+02  0.7816164E-02  0.1312668E+00
        -11   -1    0    0    0    0  0.00000000000E+00  0.00000000000E+00  0.45593999997E+02  0.45594000000E+02  0.51100000000E-03 0. -1.
         11   -1    0    0    0    0 -0.00000000000E+00 -0.00000000000E+00 -0.45593999997E+02  0.45594000000E+02  0.51100000000E-03 0.  1.
    9900012    2    1    2    0    0 -0.41105375027E+02  0.75122535500E+00  0.13907106204E+02  0.47787264999E+02  0.19999972436E+02 0.  0.
         12    1    1    2    0    0  0.41105375027E+02 -0.75122535500E+00 -0.13907106204E+02  0.43400735001E+02  0.00000000000E+00 0. -1.
         11    1    3    3    0    0 -0.25599941416E+02 -0.58762769251E+01  0.12017714349E+02  0.28884478348E+02  0.51100000000E-03 0.  1.
        -11    1    3    3    0    0 -0.74503122762E+01  0.26894676277E+01  0.50523496349E+01  0.93950319972E+01  0.51100000000E-03 0. -1.
         12    1    3    3    0    0 -0.80551213348E+01  0.39380346524E+01 -0.31629577791E+01  0.95077546537E+01  0.00000000000E+00 0. -1.
</event>
<event>
 7    1  0.2682317E-010  0.4778727E+02  0.7816164E-02  0.1312668E+00
        -11   -1    0    0    0    0  0.00000000000E+00  0.00000000000E+00  0.45593999997E+02  0.45594000000E+02  0.51100000000E-03 0. -1.
         11   -1    0    0    0    0 -0.00000000000E+00 -0.00000000000E+00 -0.45593999997E+02  0.45594000000E+02  0.51100000000E-03 0.  1.
    9900012    2    1    2    0    0 -0.29234269413E+02 -0.31964238317E+02  0.26960144102E+01  0.47787268059E+02  0.19999986389E+02 0.  0.
         12    1    1    2    0    0  0.29234269413E+02  0.31964238317E+02 -0.26960144102E+01  0.43400731941E+02  0.00000000000E+00 0. -1.
         11    1    3    3    0    0 -0.12700924203E+02 -0.72858793279E+01 -0.14341832237E+01  0.14712389166E+02  0.51100000000E-03 0. -1.
        -11    1    3    3    0    0 -0.13068711550E+02 -0.22359512428E+02 -0.16464913916E+01  0.25950914276E+02  0.51100000000E-03 0.  1.
        -12    1    3    3    0    0 -0.34646336607E+01 -0.23188465608E+01  0.57766890255E+01  0.71239646176E+01  0.00000000000E+00 0.  1.
</event>
<event>
 7    1  0.2682317E-010  0.4778726E+02  0.7816164E-02  0.1312668E+00
        -11   -1    0    0    0    0  0.00000000000E+00  0.00000000000E+00  0.45593999997E+02  0.45594000000E+02  0.51100000000E-03 0. -1.
         11   -1    0    0    0    0 -0.00000000000E+00 -0.00000000000E+00 -0.45593999997E+02  0.45594000000E+02  0.51100000000E-03 0.  1.
    9900012    2    1    2    0    0 -0.38457679774E+02  0.12614834591E+02  0.15668340988E+02  0.47787261589E+02  0.19999956887E+02 0.  0.
         12    1    1    2    0    0  0.38457679774E+02 -0.12614834591E+02 -0.15668340988E+02  0.43400738411E+02  0.00000000000E+00 0. -1.
         11    1    3    3    0    0 -0.44908238047E+01 -0.39885459399E+01  0.50599742657E+01  0.78536193560E+01  0.51100000000E-03 0. -1.
        -11    1    3    3    0    0 -0.76180745055E+01  0.16945993024E+01 -0.14696730192E+00  0.78056598450E+01  0.51100000000E-03 0.  1.
        -12    1    3    3    0    0 -0.26348781464E+02  0.14908781228E+02  0.10755334024E+02  0.32127982388E+02  0.00000000000E+00 0.  1.
</event>
<event>
 7    1  0.2682317E-010  0.4778727E+02  0.7816164E-02  0.1312668E+00
        -11   -1    0    0    0    0  0.00000000000E+00  0.00000000000E+00  0.45593999997E+02  0.45594000000E+02  0.51100000000E-03 0.  1.
         11   -1    0    0    0    0 -0.00000000000E+00 -0.00000000000E+00 -0.45593999997E+02  0.45594000000E+02  0.51100000000E-03 0. -1.
    9900012    2    1    2    0    0  0.27160663757E+02  0.16077206075E+02  0.29790019473E+02  0.47787268772E+02  0.19999989640E+02 0.  0.
         12    1    1    2    0    0 -0.27160663757E+02 -0.16077206075E+02 -0.29790019473E+02  0.43400731228E+02  0.00000000000E+00 0. -1.
         11    1    3    3    0    0  0.33493846625E+01  0.29636697061E+01  0.23760978394E+00  0.44786353295E+01  0.51100000000E-03 0. -1.
        -11    1    3    3    0    0  0.71378713466E+00  0.41906933994E+01  0.12606741629E+02  0.13304184981E+02  0.51100000000E-03 0.  1.
        -12    1    3    3    0    0  0.23097491960E+02  0.89228429693E+01  0.16945668060E+02  0.30004448461E+02  0.00000000000E+00 0.  1.
</event>
<event>
 7    1  0.2682317E-010  0.4778727E+02  0.7816164E-02  0.1312668E+00
        -11   -1    0    0    0    0  0.00000000000E+00  0.00000000000E+00  0.45593999997E+02  0.45594000000E+02  0.51100000000E-03 0.  1.
         11   -1    0    0    0    0 -0.00000000000E+00 -0.00000000000E+00 -0.45593999997E+02  0.45594000000E+02  0.51100000000E-03 0. -1.
    9900012    2    1    2    0    0 -0.12970209443E+02  0.15295112359E+01  0.41389096990E+02  0.47787273194E+02  0.20000009802E+02 0.  0.
         12    1    1    2    0    0  0.12970209443E+02 -0.15295112359E+01 -0.41389096990E+02  0.43400726806E+02  0.00000000000E+00 0. -1.
         11    1    3    3    0    0 -0.46293943978E+00  0.38909962372E+01  0.14856500719E+02  0.15364562425E+02  0.51100000000E-03 0. -1.
        -11    1    3    3    0    0 -0.43535966835E+01  0.25025662323E+01  0.20654309246E+02  0.21255990509E+02  0.51100000000E-03 0.  1.
         12    1    3    3    0    0 -0.81536733202E+01 -0.48640512337E+01  0.58782870248E+01  0.11166720260E+02  0.00000000000E+00 0. -1.
</event>
<event>
 7    1  0.2682317E-010  0.4778727E+02  0.7816164E-02  0.1312668E+00
        -11   -1    0    0    0    0  0.00000000000E+00  0.00000000000E+00  0.45593999997E+02  0.45594000000E+02  0.51100000000E-03 0.  1.
         11   -1    0    0    0    0 -0.00000000000E+00 -0.00000000000E+00 -0.45593999997E+02  0.45594000000E+02  0.51100000000E-03 0. -1.
    9900012    2    1    2    0    0 -0.10200903180E+02  0.23319076407E+02  0.35153744323E+02  0.47787268554E+02  0.19999988644E+02 0.  0.
         12    1    1    2    0    0  0.10200903180E+02 -0.23319076407E+02 -0.35153744323E+02  0.43400731446E+02  0.00000000000E+00 0. -1.
         11    1    3    3    0    0  0.33120739029E+01  0.17614098426E+01  0.11745767140E+02  0.12330265372E+02  0.51100000000E-03 0. -1.
        -11    1    3    3    0    0 -0.77338156389E+00 -0.58932764073E+00  0.32755440464E+00  0.10260205946E+01  0.51100000000E-03 0.  1.
        -12    1    3    3    0    0 -0.12739595519E+02  0.22146994205E+02  0.23080422778E+02  0.34430982587E+02  0.00000000000E+00 0.  1.
</event>
<event>
 7    1  0.2682317E-010  0.4778727E+02  0.7816164E-02  0.1312668E+00
        -11   -1    0    0    0    0  0.00000000000E+00  0.00000000000E+00  0.45593999997E+02  0.45594000000E+02  0.51100000000E-03 0.  1.
         11   -1    0    0    0    0 -0.00000000000E+00 -0.00000000000E+00 -0.45593999997E+02  0.45594000000E+02  0.51100000000E-03 0. -1.
    9900012    2    1    2    0    0 -0.10002088503E+00  0.39407242259E+02 -0.18184690467E+02  0.47787265973E+02  0.19999976879E+02 0.  0.
         12    1    1    2    0    0  0.10002088503E+00 -0.39407242259E+02  0.18184690467E+02  0.43400734027E+02  0.00000000000E+00 0. -1.
         11    1    3    3    0    0 -0.62308164481E+01  0.18879883760E+02 -0.90386600011E+01  0.21839653369E+02  0.51100000000E-03 0. -1.
        -11    1    3    3    0    0  0.10028016854E+01  0.35161462102E+01 -0.71985110671E+01  0.80738749826E+01  0.51100000000E-03 0.  1.
         12    1    3    3    0    0  0.51279938776E+01  0.17011212289E+02 -0.19475193990E+01  0.17873737622E+02  0.00000000000E+00 0. -1.
</event>
<event>
 7    1  0.2682317E-010  0.4778727E+02  0.7816164E-02  0.1312668E+00
        -11   -1    0    0    0    0  0.00000000000E+00  0.00000000000E+00  0.45593999997E+02  0.45594000000E+02  0.51100000000E-03 0. -1.
         11   -1    0    0    0    0 -0.00000000000E+00 -0.00000000000E+00 -0.45593999997E+02  0.45594000000E+02  0.51100000000E-03 0.  1.
    9900012    2    1    2    0    0 -0.31255087013E+02 -0.27511598948E-01 -0.30112157067E+02  0.47787271615E+02  0.20000002601E+02 0.  0.
         12    1    1    2    0    0  0.31255087013E+02  0.27511598948E-01  0.30112157067E+02  0.43400728385E+02  0.00000000000E+00 0. -1.
         11    1    3    3    0    0 -0.10855860404E+02 -0.14067962017E+01 -0.12266082515E+02  0.16440363779E+02  0.51100000000E-03 0. -1.
        -11    1    3    3    0    0 -0.14887055719E+02 -0.64154869782E+01 -0.11720854077E+02  0.20004032637E+02  0.51100000000E-03 0.  1.
         12    1    3    3    0    0 -0.55121708899E+01  0.77947715809E+01 -0.61252204749E+01  0.11342875199E+02  0.00000000000E+00 0. -1.
</event>
<event>
 7    1  0.2682317E-010  0.4778727E+02  0.7816164E-02  0.1312668E+00
        -11   -1    0    0    0    0  0.00000000000E+00  0.00000000000E+00  0.45593999997E+02  0.45594000000E+02  0.51100000000E-03 0.  1.
         11   -1    0    0    0    0 -0.00000000000E+00 -0.00000000000E+00 -0.45593999997E+02  0.45594000000E+02  0.51100000000E-03 0. -1.
    9900012    2    1    2    0    0 -0.10254590365E+02 -0.40653729157E+02 -0.11213425161E+02  0.47787271644E+02  0.20000002736E+02 0.  0.
         12    1    1    2    0    0  0.10254590365E+02  0.40653729157E+02  0.11213425161E+02  0.43400728356E+02  0.00000000000E+00 0. -1.
         11    1    3    3    0    0  0.29178945250E+01 -0.16445025417E+01 -0.38869420919E+01  0.51309663958E+01  0.51100000000E-03 0. -1.
        -11    1    3    3    0    0 -0.18243720780E+01 -0.84790750687E+01  0.17422226870E+01  0.88463770919E+01  0.51100000000E-03 0.  1.
         12    1    3    3    0    0 -0.11348112812E+02 -0.30530151547E+02 -0.90687057566E+01  0.33809928157E+02  0.00000000000E+00 0. -1.
</event>
<event>
 7    1  0.2682317E-010  0.4778727E+02  0.7816164E-02  0.1312668E+00
        -11   -1    0    0    0    0  0.00000000000E+00  0.00000000000E+00  0.45593999997E+02  0.45594000000E+02  0.51100000000E-03 0. -1.
         11   -1    0    0    0    0 -0.00000000000E+00 -0.00000000000E+00 -0.45593999997E+02  0.45594000000E+02  0.51100000000E-03 0.  1.
    9900012    2    1    2    0    0 -0.27458129118E+01 -0.12709874197E+02 -0.41407043270E+02  0.47787267022E+02  0.19999981661E+02 0.  0.
         12    1    1    2    0    0  0.27458129118E+01  0.12709874197E+02  0.41407043270E+02  0.43400732978E+02  0.00000000000E+00 0. -1.
         11    1    3    3    0    0 -0.65550850990E+00 -0.51844752506E+01 -0.62310748735E+01  0.81323286562E+01  0.51100000000E-03 0. -1.
        -11    1    3    3    0    0 -0.44116698143E+01 -0.12255601352E+02 -0.25709622329E+02  0.28820952024E+02  0.51100000000E-03 0.  1.
         12    1    3    3    0    0  0.23213654125E+01  0.47302024054E+01 -0.94663460679E+01  0.10833986342E+02  0.00000000000E+00 0. -1.
</event>
<event>
 7    1  0.2682317E-010  0.4778727E+02  0.7816164E-02  0.1312668E+00
        -11   -1    0    0    0    0  0.00000000000E+00  0.00000000000E+00  0.45593999997E+02  0.45594000000E+02  0.51100000000E-03 0. -1.
         11   -1    0    0    0    0 -0.00000000000E+00 -0.00000000000E+00 -0.45593999997E+02  0.45594000000E+02  0.51100000000E-03 0.  1.
    9900012    2    1    2    0    0  0.14243963142E+02  0.73746288316E+01 -0.40327999082E+02  0.47787272514E+02  0.20000006700E+02 0.  0.
         12    1    1    2    0    0 -0.14243963142E+02 -0.73746288316E+01  0.40327999082E+02  0.43400727486E+02  0.00000000000E+00 0. -1.
         11    1    3    3    0    0  0.33906214003E+01 -0.70644058048E+00 -0.39804839731E-01  0.34636622902E+01  0.51100000000E-03 0. -1.
        -11    1    3    3    0    0  0.31386206220E+01  0.79353749085E+01 -0.10386979081E+02  0.13442858663E+02  0.51100000000E-03 0.  1.
         12    1    3    3    0    0  0.77147211201E+01  0.14569450355E+00 -0.29901215161E+02  0.30880751561E+02  0.00000000000E+00 0. -1.
</event>
<event>
 7    1  0.2682317E-010  0.4778727E+02  0.7816164E-02  0.1312668E+00
        -11   -1    0    0    0    0  0.00000000000E+00  0.00000000000E+00  0.45593999997E+02  0.45594000000E+02  0.51100000000E-03 0. -1.
         11   -1    0    0    0    0 -0.00000000000E+00 -0.00000000000E+00 -0.45593999997E+02  0.45594000000E+02  0.51100000000E-03 0.  1.
    9900012    2    1    2    0    0 -0.41297248625E+02  0.12524812954E+02 -0.46140560602E+01  0.47787271931E+02  0.20000004044E+02 0.  0.
         12    1    1    2    0    0  0.41297248625E+02 -0.12524812954E+02  0.46140560602E+01  0.43400728069E+02  0.00000000000E+00 0. -1.
         11    1    3    3    0    0 -0.50848782282E+01 -0.28707769796E+01  0.81790895604E+00  0.58962973453E+01  0.51100000000E-03 0. -1.
        -11    1    3    3    0    0 -0.12701863215E+02  0.54564568999E+01 -0.84277965798E+01  0.16190676530E+02  0.51100000000E-03 0.  1.
         12    1    3    3    0    0 -0.23510507182E+02  0.99391330342E+01  0.29958315636E+01  0.25700298056E+02  0.00000000000E+00 0. -1.
</event>
<event>
 7    1  0.2682317E-010  0.4778727E+02  0.7816164E-02  0.1312668E+00
        -11   -1    0    0    0    0  0.00000000000E+00  0.00000000000E+00  0.45593999997E+02  0.45594000000E+02  0.51100000000E-03 0. -1.
         11   -1    0    0    0    0 -0.00000000000E+00 -0.00000000000E+00 -0.45593999997E+02  0.45594000000E+02  0.51100000000E-03 0.  1.
    9900012    2    1    2    0    0  0.25037620334E+02 -0.32565985078E+02 -0.14007049486E+02  0.47787271304E+02  0.20000001181E+02 0.  0.
         12    1    1    2    0    0 -0.25037620334E+02  0.32565985078E+02  0.14007049486E+02  0.43400728696E+02  0.00000000000E+00 0. -1.
         11    1    3    3    0    0  0.61322740242E+01 -0.54698325637E+00  0.19908971448E+01  0.64705213926E+01  0.51100000000E-03 0. -1.
        -11    1    3    3    0    0  0.36697514617E+01 -0.41800310648E+01  0.43472847486E+00  0.55793121979E+01  0.51100000000E-03 0.  1.
        -12    1    3    3    0    0  0.15235594848E+02 -0.27838970757E+02 -0.16432675105E+02  0.35737437713E+02  0.00000000000E+00 0.  1.
</event>
<event>
 7    1  0.2682317E-010  0.4778727E+02  0.7816164E-02  0.1312668E+00
        -11   -1    0    0    0    0  0.00000000000E+00  0.00000000000E+00  0.45593999997E+02  0.45594000000E+02  0.51100000000E-03 0. -1.
         11   -1    0    0    0    0 -0.00000000000E+00 -0.00000000000E+00 -0.45593999997E+02  0.45594000000E+02  0.51100000000E-03 0.  1.
    9900012    2    1    2    0    0 -0.25153771553E+02  0.71787437542E+01 -0.34632020851E+02  0.47787268976E+02  0.19999990568E+02 0.  0.
         12    1    1    2    0    0  0.25153771553E+02 -0.71787437542E+01  0.34632020851E+02  0.43400731024E+02  0.00000000000E+00 0. -1.
         11    1    3    3    0    0 -0.14068682638E+02 -0.24421708130E+01 -0.18879715106E+02  0.23671410439E+02  0.51100000000E-03 0. -1.
        -11    1    3    3    0    0 -0.83616963052E+01  0.24106208001E+01 -0.13543183137E+02  0.16098039244E+02  0.51100000000E-03 0.  1.
        -12    1    3    3    0    0 -0.27233926100E+01  0.72102937670E+01 -0.22091226076E+01  0.80178192927E+01  0.00000000000E+00 0.  1.
</event>
<event>
 7    1  0.2682317E-010  0.4778727E+02  0.7816164E-02  0.1312668E+00
        -11   -1    0    0    0    0  0.00000000000E+00  0.00000000000E+00  0.45593999997E+02  0.45594000000E+02  0.51100000000E-03 0.  1.
         11   -1    0    0    0    0 -0.00000000000E+00 -0.00000000000E+00 -0.45593999997E+02  0.45594000000E+02  0.51100000000E-03 0. -1.
    9900012    2    1    2    0    0  0.34557613535E+02 -0.11017803464E+02  0.23832808255E+02  0.47787269641E+02  0.19999993600E+02 0.  0.
         12    1    1    2    0    0 -0.34557613535E+02  0.11017803464E+02 -0.23832808255E+02  0.43400730359E+02  0.00000000000E+00 0. -1.
         11    1    3    3    0    0  0.76674438034E+01 -0.22573346521E+01  0.27043643418E+01  0.84379405642E+01  0.51100000000E-03 0. -1.
        -11    1    3    3    0    0  0.29056984358E+02 -0.97868196611E+01  0.18584053483E+02  0.35853273535E+02  0.51100000000E-03 0.  1.
         12    1    3    3    0    0 -0.21668146261E+01  0.10263508495E+01  0.25443904302E+01  0.34960555418E+01  0.00000000000E+00 0. -1.
</event>
<event>
 7    1  0.2682317E-010  0.4778727E+02  0.7816164E-02  0.1312668E+00
        -11   -1    0    0    0    0  0.00000000000E+00  0.00000000000E+00  0.45593999997E+02  0.45594000000E+02  0.51100000000E-03 0.  1.
         11   -1    0    0    0    0 -0.00000000000E+00 -0.00000000000E+00 -0.45593999997E+02  0.45594000000E+02  0.51100000000E-03 0. -1.
    9900012    2    1    2    0    0  0.13895700231E+02  0.39531672774E+02  0.11303964946E+02  0.47787271196E+02  0.20000000693E+02 0.  0.
         12    1    1    2    0    0 -0.13895700231E+02 -0.39531672774E+02 -0.11303964946E+02  0.43400728804E+02  0.00000000000E+00 0. -1.
         11    1    3    3    0    0  0.18401496748E+00 -0.38783113439E+00  0.55181371114E+00  0.69912311504E+00  0.51100000000E-03 0.  1.
        -11    1    3    3    0    0 -0.21260825373E+01  0.17509278182E+02  0.62990353521E-01  0.17637999248E+02  0.51100000000E-03 0. -1.
        -12    1    3    3    0    0  0.15837767800E+02  0.22410225726E+02  0.10689160881E+02  0.29450148834E+02  0.00000000000E+00 0.  1.
</event>
<event>
 7    1  0.2682317E-010  0.4778728E+02  0.7816164E-02  0.1312668E+00
        -11   -1    0    0    0    0  0.00000000000E+00  0.00000000000E+00  0.45593999997E+02  0.45594000000E+02  0.51100000000E-03 0.  1.
         11   -1    0    0    0    0 -0.00000000000E+00 -0.00000000000E+00 -0.45593999997E+02  0.45594000000E+02  0.51100000000E-03 0. -1.
    9900012    2    1    2    0    0  0.16028658576E+02  0.40144894122E+02  0.38848637138E+01  0.47787278971E+02  0.20000036139E+02 0.  0.
         12    1    1    2    0    0 -0.16028658576E+02 -0.40144894122E+02 -0.38848637138E+01  0.43400721029E+02  0.00000000000E+00 0. -1.
         11    1    3    3    0    0  0.81198796111E+01  0.11980664336E+02  0.57241108259E+01  0.15563875091E+02  0.51100000000E-03 0. -1.
        -11    1    3    3    0    0 -0.14504234072E+01  0.12819703275E+02  0.36895697240E+01  0.13418697595E+02  0.51100000000E-03 0.  1.
         12    1    3    3    0    0  0.93592023716E+01  0.15344526510E+02 -0.55288168361E+01  0.18804706285E+02  0.00000000000E+00 0. -1.
</event>
<event>
 7    1  0.2682317E-010  0.4778728E+02  0.7816164E-02  0.1312668E+00
        -11   -1    0    0    0    0  0.00000000000E+00  0.00000000000E+00  0.45593999997E+02  0.45594000000E+02  0.51100000000E-03 0.  1.
         11   -1    0    0    0    0 -0.00000000000E+00 -0.00000000000E+00 -0.45593999997E+02  0.45594000000E+02  0.51100000000E-03 0. -1.
    9900012    2    1    2    0    0 -0.21227749607E+02 -0.31121462471E+02  0.21551329602E+02  0.47787278954E+02  0.20000036062E+02 0.  0.
         12    1    1    2    0    0  0.21227749607E+02  0.31121462471E+02 -0.21551329602E+02  0.43400721046E+02  0.00000000000E+00 0. -1.
         11    1    3    3    0    0  0.32999078478E+01 -0.31940530869E+01  0.51619269286E+01  0.69091864067E+01  0.51100000000E-03 0. -1.
        -11    1    3    3    0    0 -0.10066766214E+02 -0.85932810230E+01  0.46246007339E+01  0.14020384907E+02  0.51100000000E-03 0.  1.
        -12    1    3    3    0    0 -0.14460891241E+02 -0.19334128361E+02  0.11764801940E+02  0.26857707640E+02  0.00000000000E+00 0.  1.
</event>
<event>
 7    1  0.2682317E-010  0.4778727E+02  0.7816164E-02  0.1312668E+00
        -11   -1    0    0    0    0  0.00000000000E+00  0.00000000000E+00  0.45593999997E+02  0.45594000000E+02  0.51100000000E-03 0. -1.
         11   -1    0    0    0    0 -0.00000000000E+00 -0.00000000000E+00 -0.45593999997E+02  0.45594000000E+02  0.51100000000E-03 0.  1.
    9900012    2    1    2    0    0  0.23875086549E+02 -0.11237506129E+02 -0.34457535275E+02  0.47787273751E+02  0.20000012342E+02 0.  0.
         12    1    1    2    0    0 -0.23875086549E+02  0.11237506129E+02  0.34457535275E+02  0.43400726249E+02  0.00000000000E+00 0. -1.
         11    1    3    3    0    0  0.72883111998E+01 -0.77709020881E+01 -0.49971439143E+01  0.11767661066E+02  0.51100000000E-03 0. -1.
        -11    1    3    3    0    0  0.97746785409E+01 -0.70614989196E+01 -0.12376729099E+02  0.17279830179E+02  0.51100000000E-03 0.  1.
         12    1    3    3    0    0  0.68120968082E+01  0.35948948787E+01 -0.17083662261E+02  0.18739782506E+02  0.00000000000E+00 0. -1.
</event>
<event>
 7    1  0.2682317E-010  0.4778727E+02  0.7816164E-02  0.1312668E+00
        -11   -1    0    0    0    0  0.00000000000E+00  0.00000000000E+00  0.45593999997E+02  0.45594000000E+02  0.51100000000E-03 0. -1.
         11   -1    0    0    0    0 -0.00000000000E+00 -0.00000000000E+00 -0.45593999997E+02  0.45594000000E+02  0.51100000000E-03 0.  1.
    9900012    2    1    2    0    0 -0.37742163026E+02 -0.13270839600E+02  0.16823701998E+02  0.47787274171E+02  0.20000014256E+02 0.  0.
         12    1    1    2    0    0  0.37742163026E+02  0.13270839600E+02 -0.16823701998E+02  0.43400725829E+02  0.00000000000E+00 0. -1.
         11    1    3    3    0    0 -0.35654325094E+01  0.17336897029E+01  0.57599315374E+01  0.69924817155E+01  0.51100000000E-03 0. -1.
        -11    1    3    3    0    0 -0.22685967991E+02 -0.87546267053E+01  0.12997263261E+02  0.27572186800E+02  0.51100000000E-03 0.  1.
         12    1    3    3    0    0 -0.11490762526E+02 -0.62499025977E+01 -0.19334928004E+01  0.13222605655E+02  0.00000000000E+00 0. -1.
</event>
<event>
 7    1  0.2682317E-010  0.4778727E+02  0.7816164E-02  0.1312668E+00
        -11   -1    0    0    0    0  0.00000000000E+00  0.00000000000E+00  0.45593999997E+02  0.45594000000E+02  0.51100000000E-03 0. -1.
         11   -1    0    0    0    0 -0.00000000000E+00 -0.00000000000E+00 -0.45593999997E+02  0.45594000000E+02  0.51100000000E-03 0.  1.
    9900012    2    1    2    0    0  0.37716789012E+02  0.56503884962E+01 -0.20715698218E+02  0.47787271709E+02  0.20000003029E+02 0.  0.
         12    1    1    2    0    0 -0.37716789012E+02 -0.56503884962E+01  0.20715698218E+02  0.43400728291E+02  0.00000000000E+00 0. -1.
         11    1    3    3    0    0  0.40394534860E+01  0.18840131628E+01 -0.47279821719E+01  0.64977308148E+01  0.51100000000E-03 0.  1.
        -11    1    3    3    0    0  0.32831790700E+02  0.28965400082E+01 -0.89566829376E+01  0.34154627712E+02  0.51100000000E-03 0. -1.
         12    1    3    3    0    0  0.84554482580E+00  0.86983532519E+00 -0.70310331087E+01  0.71349131824E+01  0.00000000000E+00 0. -1.
</event>
<event>
 7    1  0.2682317E-010  0.4778727E+02  0.7816164E-02  0.1312668E+00
        -11   -1    0    0    0    0  0.00000000000E+00  0.00000000000E+00  0.45593999997E+02  0.45594000000E+02  0.51100000000E-03 0.  1.
         11   -1    0    0    0    0 -0.00000000000E+00 -0.00000000000E+00 -0.45593999997E+02  0.45594000000E+02  0.51100000000E-03 0. -1.
    9900012    2    1    2    0    0  0.11489418503E+02 -0.26890498268E+02  0.32070511855E+02  0.47787269991E+02  0.19999995199E+02 0.  0.
         12    1    1    2    0    0 -0.11489418503E+02  0.26890498268E+02 -0.32070511855E+02  0.43400730009E+02  0.00000000000E+00 0. -1.
         11    1    3    3    0    0  0.91590092043E+01 -0.54974915079E+01  0.10899335494E+02  0.15261237727E+02  0.51100000000E-03 0.  1.
        -11    1    3    3    0    0  0.35784216875E+01 -0.94013504355E+01  0.26091639019E+01  0.10392219605E+02  0.51100000000E-03 0. -1.
        -12    1    3    3    0    0 -0.12480123885E+01 -0.11991656325E+02  0.18562012459E+02  0.22133812660E+02  0.00000000000E+00 0.  1.
</event>
<event>
 7    1  0.2682317E-010  0.4778727E+02  0.7816164E-02  0.1312668E+00
        -11   -1    0    0    0    0  0.00000000000E+00  0.00000000000E+00  0.45593999997E+02  0.45594000000E+02  0.51100000000E-03 0.  1.
         11   -1    0    0    0    0 -0.00000000000E+00 -0.00000000000E+00 -0.45593999997E+02  0.45594000000E+02  0.51100000000E-03 0. -1.
    9900012    2    1    2    0    0  0.18313351089E+02 -0.67849614082E+01  0.38758338483E+02  0.47787270382E+02  0.19999996979E+02 0.  0.
         12    1    1    2    0    0 -0.18313351089E+02  0.67849614082E+01 -0.38758338483E+02  0.43400729618E+02  0.00000000000E+00 0. -1.
         11    1    3    3    0    0 -0.28772016771E+01 -0.41838793110E+00  0.17329762687E+01  0.33847518315E+01  0.51100000000E-03 0. -1.
        -11    1    3    3    0    0  0.63976832925E+01 -0.71807753283E+01  0.16313660212E+02  0.18937512920E+02  0.51100000000E-03 0.  1.
        -12    1    3    3    0    0  0.14792869474E+02  0.81420185118E+00  0.20711702003E+02  0.25465005631E+02  0.00000000000E+00 0.  1.
</event>
<event>
 7    1  0.2682317E-010  0.4778727E+02  0.7816164E-02  0.1312668E+00
        -11   -1    0    0    0    0  0.00000000000E+00  0.00000000000E+00  0.45593999997E+02  0.45594000000E+02  0.51100000000E-03 0. -1.
         11   -1    0    0    0    0 -0.00000000000E+00 -0.00000000000E+00 -0.45593999997E+02  0.45594000000E+02  0.51100000000E-03 0.  1.
    9900012    2    1    2    0    0  0.35726971511E+02 -0.21332773397E+02 -0.12333679439E+02  0.47787270022E+02  0.19999995338E+02 0.  0.
         12    1    1    2    0    0 -0.35726971511E+02  0.21332773397E+02  0.12333679439E+02  0.43400729978E+02  0.00000000000E+00 0. -1.
         11    1    3    3    0    0  0.11847342327E+02 -0.74049333043E+01 -0.71073172564E+01  0.15675028431E+02  0.51100000000E-03 0. -1.
        -11    1    3    3    0    0  0.21923965005E+02 -0.10834616605E+02 -0.97208988899E+01  0.26316250379E+02  0.51100000000E-03 0.  1.
         12    1    3    3    0    0  0.19556641781E+01 -0.30932234868E+01  0.44945367070E+01  0.57959912118E+01  0.00000000000E+00 0. -1.
</event>
<event>
 7    1  0.2682317E-010  0.4778728E+02  0.7816164E-02  0.1312668E+00
        -11   -1    0    0    0    0  0.00000000000E+00  0.00000000000E+00  0.45593999997E+02  0.45594000000E+02  0.51100000000E-03 0.  1.
         11   -1    0    0    0    0 -0.00000000000E+00 -0.00000000000E+00 -0.45593999997E+02  0.45594000000E+02  0.51100000000E-03 0. -1.
    9900012    2    1    2    0    0 -0.23862601505E+02  0.17489177650E+02  0.31754176414E+02  0.47787276444E+02  0.20000024619E+02 0.  0.
         12    1    1    2    0    0  0.23862601505E+02 -0.17489177650E+02 -0.31754176414E+02  0.43400723556E+02  0.00000000000E+00 0. -1.
         11    1    3    3    0    0 -0.56200175544E+01  0.11573859906E+02  0.34772452473E+01  0.13327792961E+02  0.51100000000E-03 0. -1.
        -11    1    3    3    0    0 -0.52202282517E+00  0.11734836171E+01  0.12280049609E+01  0.17769547193E+01  0.51100000000E-03 0.  1.
        -12    1    3    3    0    0 -0.17720561125E+02  0.47418341261E+01  0.27048926206E+02  0.32682528763E+02  0.00000000000E+00 0.  1.
</event>
<event>
 7    1  0.2682317E-010  0.4778728E+02  0.7816164E-02  0.1312668E+00
        -11   -1    0    0    0    0  0.00000000000E+00  0.00000000000E+00  0.45593999997E+02  0.45594000000E+02  0.51100000000E-03 0.  1.
         11   -1    0    0    0    0 -0.00000000000E+00 -0.00000000000E+00 -0.45593999997E+02  0.45594000000E+02  0.51100000000E-03 0. -1.
    9900012    2    1    2    0    0 -0.14355728310E+02 -0.32954666102E+02  0.24321305613E+02  0.47787275813E+02  0.20000021741E+02 0.  0.
         12    1    1    2    0    0  0.14355728310E+02  0.32954666102E+02 -0.24321305613E+02  0.43400724187E+02  0.00000000000E+00 0. -1.
         11    1    3    3    0    0 -0.13554524964E+02 -0.16497197838E+02  0.10211432645E+02  0.23667615859E+02  0.51100000000E-03 0. -1.
        -11    1    3    3    0    0 -0.39700360842E+01 -0.33342723842E+01  0.74223344823E+01  0.90537068800E+01  0.51100000000E-03 0.  1.
         12    1    3    3    0    0  0.31688327382E+01 -0.13123195880E+02  0.66875384860E+01  0.15065953074E+02  0.00000000000E+00 0. -1.
</event>
<event>
 7    1  0.2682317E-010  0.4778727E+02  0.7816164E-02  0.1312668E+00
        -11   -1    0    0    0    0  0.00000000000E+00  0.00000000000E+00  0.45593999997E+02  0.45594000000E+02  0.51100000000E-03 0.  1.
         11   -1    0    0    0    0 -0.00000000000E+00 -0.00000000000E+00 -0.45593999997E+02  0.45594000000E+02  0.51100000000E-03 0. -1.
    9900012    2    1    2    0    0  0.82188774623E+01  0.26959651552E+02  0.33003797590E+02  0.47787269431E+02  0.19999992644E+02 0.  0.
         12    1    1    2    0    0 -0.82188774623E+01 -0.26959651552E+02 -0.33003797590E+02  0.43400730569E+02  0.00000000000E+00 0. -1.
         11    1    3    3    0    0 -0.18458856667E+01  0.14541520694E+02  0.12988879927E+02  0.19585048379E+02  0.51100000000E-03 0. -1.
        -11    1    3    3    0    0  0.97453839414E-01 -0.61626106942E+00  0.76015986820E+01  0.76271605293E+01  0.51100000000E-03 0.  1.
        -12    1    3    3    0    0  0.99673092896E+01  0.13034391928E+02  0.12413318981E+02  0.20575060523E+02  0.00000000000E+00 0.  1.
</event>
<event>
 7    1  0.2682317E-010  0.4778727E+02  0.7816164E-02  0.1312668E+00
        -11   -1    0    0    0    0  0.00000000000E+00  0.00000000000E+00  0.45593999997E+02  0.45594000000E+02  0.51100000000E-03 0.  1.
         11   -1    0    0    0    0 -0.00000000000E+00 -0.00000000000E+00 -0.45593999997E+02  0.45594000000E+02  0.51100000000E-03 0. -1.
    9900012    2    1    2    0    0 -0.29269299009E+01 -0.32173562094E+02  0.28981344006E+02  0.47787270549E+02  0.19999997743E+02 0.  0.
         12    1    1    2    0    0  0.29269299009E+01  0.32173562094E+02 -0.28981344006E+02  0.43400729451E+02  0.00000000000E+00 0. -1.
         11    1    3    3    0    0 -0.44715034608E+01 -0.78073032360E+01  0.22819479195E+01  0.92820048259E+01  0.51100000000E-03 0. -1.
        -11    1    3    3    0    0  0.19378351551E+01 -0.14468055268E+02  0.24244264191E+02  0.28299543720E+02  0.51100000000E-03 0.  1.
         12    1    3    3    0    0 -0.39326159514E+00 -0.98982035902E+01  0.24551318954E+01  0.10205722004E+02  0.00000000000E+00 0. -1.
</event>
<event>
 7    1  0.2682317E-010  0.4778726E+02  0.7816164E-02  0.1312668E+00
        -11   -1    0    0    0    0  0.00000000000E+00  0.00000000000E+00  0.45593999997E+02  0.45594000000E+02  0.51100000000E-03 0. -1.
         11   -1    0    0    0    0 -0.00000000000E+00 -0.00000000000E+00 -0.45593999997E+02  0.45594000000E+02  0.51100000000E-03 0.  1.
    9900012    2    1    2    0    0  0.44847375650E+01  0.50225887804E+01 -0.42875221344E+02  0.47787264126E+02  0.19999968458E+02 0.  0.
         12    1    1    2    0    0 -0.44847375650E+01 -0.50225887804E+01  0.42875221344E+02  0.43400735874E+02  0.00000000000E+00 0. -1.
         11    1    3    3    0    0 -0.57515365671E+00 -0.25100856811E+01 -0.17440213536E+01  0.31101354630E+01  0.51100000000E-03 0. -1.
        -11    1    3    3    0    0 -0.30552402331E+01 -0.73029013952E+00 -0.22650633461E+02  0.22867422526E+02  0.51100000000E-03 0.  1.
        -12    1    3    3    0    0  0.81151314548E+01  0.82629646010E+01 -0.18480566530E+02  0.21809706137E+02  0.00000000000E+00 0.  1.
</event>
<event>
 7    1  0.2682317E-010  0.4778727E+02  0.7816164E-02  0.1312668E+00
        -11   -1    0    0    0    0  0.00000000000E+00  0.00000000000E+00  0.45593999997E+02  0.45594000000E+02  0.51100000000E-03 0.  1.
         11   -1    0    0    0    0 -0.00000000000E+00 -0.00000000000E+00 -0.45593999997E+02  0.45594000000E+02  0.51100000000E-03 0. -1.
    9900012    2    1    2    0    0  0.35526057524E+02  0.13112594173E+02  0.21203365020E+02  0.47787267548E+02  0.19999984060E+02 0.  0.
         12    1    1    2    0    0 -0.35526057524E+02 -0.13112594173E+02 -0.21203365020E+02  0.43400732452E+02  0.00000000000E+00 0. -1.
         11    1    3    3    0    0  0.11217847129E+02  0.29937188144E+01 -0.18953206379E+00  0.11611992474E+02  0.51100000000E-03 0. -1.
        -11    1    3    3    0    0  0.90321727543E+01 -0.61512493526E+00  0.20310786769E+01  0.92781358151E+01  0.51100000000E-03 0.  1.
        -12    1    3    3    0    0  0.15276037641E+02  0.10734000294E+02  0.19361818407E+02  0.26897139260E+02  0.00000000000E+00 0.  1.
</event>
<event>
 7    1  0.2682317E-010  0.4778727E+02  0.7816164E-02  0.1312668E+00
        -11   -1    0    0    0    0  0.00000000000E+00  0.00000000000E+00  0.45593999997E+02  0.45594000000E+02  0.51100000000E-03 0. -1.
         11   -1    0    0    0    0 -0.00000000000E+00 -0.00000000000E+00 -0.45593999997E+02  0.45594000000E+02  0.51100000000E-03 0.  1.
    9900012    2    1    2    0    0 -0.26386073406E+02 -0.32005109541E+02 -0.12769942753E+02  0.47787270232E+02  0.19999996296E+02 0.  0.
         12    1    1    2    0    0  0.26386073406E+02  0.32005109541E+02  0.12769942753E+02  0.43400729768E+02  0.00000000000E+00 0. -1.
         11    1    3    3    0    0  0.14598976282E+01 -0.49477836046E+01 -0.84092623816E+00  0.52267600750E+01  0.51100000000E-03 0. -1.
        -11    1    3    3    0    0 -0.15083102679E+02 -0.94944510417E+01 -0.10759515020E+02  0.20818543435E+02  0.51100000000E-03 0.  1.
         12    1    3    3    0    0 -0.12762868355E+02 -0.17562874894E+02 -0.11695014940E+01  0.21741966722E+02  0.00000000000E+00 0. -1.
</event>
<event>
 7    1  0.2682317E-010  0.4778725E+02  0.7816164E-02  0.1312668E+00
        -11   -1    0    0    0    0  0.00000000000E+00  0.00000000000E+00  0.45593999997E+02  0.45594000000E+02  0.51100000000E-03 0. -1.
         11   -1    0    0    0    0 -0.00000000000E+00 -0.00000000000E+00 -0.45593999997E+02  0.45594000000E+02  0.51100000000E-03 0.  1.
    9900012    2    1    2    0    0  0.23220921459E+02 -0.30808542891E+02 -0.19880832878E+02  0.47787250878E+02  0.19999908051E+02 0.  0.
         12    1    1    2    0    0 -0.23220921459E+02  0.30808542891E+02  0.19880832878E+02  0.43400749122E+02  0.00000000000E+00 0. -1.
         11    1    3    3    0    0 -0.76440088346E+00 -0.33256512683E+01 -0.35110474721E+01  0.48960922868E+01  0.51100000000E-03 0. -1.
        -11    1    3    3    0    0  0.18431476611E+02 -0.10571512926E+02 -0.12578097233E+02  0.24691795112E+02  0.51100000000E-03 0.  1.
         12    1    3    3    0    0  0.55538457317E+01 -0.16911378697E+02 -0.37916881733E+01  0.18199363479E+02  0.00000000000E+00 0. -1.
</event>
<event>
 7    1  0.2682317E-010  0.4778727E+02  0.7816164E-02  0.1312668E+00
        -11   -1    0    0    0    0  0.00000000000E+00  0.00000000000E+00  0.45593999997E+02  0.45594000000E+02  0.51100000000E-03 0. -1.
         11   -1    0    0    0    0 -0.00000000000E+00 -0.00000000000E+00 -0.45593999997E+02  0.45594000000E+02  0.51100000000E-03 0.  1.
    9900012    2    1    2    0    0 -0.23946574374E+02 -0.26510265723E+02 -0.24645295907E+02  0.47787271628E+02  0.20000002659E+02 0.  0.
         12    1    1    2    0    0  0.23946574374E+02  0.26510265723E+02  0.24645295907E+02  0.43400728372E+02  0.00000000000E+00 0. -1.
         11    1    3    3    0    0 -0.26900494149E+01 -0.27557532113E+01 -0.66854822594E+01  0.77153233839E+01  0.51100000000E-03 0. -1.
        -11    1    3    3    0    0 -0.23456377787E+02 -0.18417376451E+02 -0.16637221464E+02  0.34149649376E+02  0.51100000000E-03 0.  1.
         12    1    3    3    0    0  0.21998528279E+01 -0.53371360604E+01 -0.13225921832E+01  0.59222988674E+01  0.00000000000E+00 0. -1.
</event>
<event>
 7    1  0.2682317E-010  0.4778727E+02  0.7816164E-02  0.1312668E+00
        -11   -1    0    0    0    0  0.00000000000E+00  0.00000000000E+00  0.45593999997E+02  0.45594000000E+02  0.51100000000E-03 0. -1.
         11   -1    0    0    0    0 -0.00000000000E+00 -0.00000000000E+00 -0.45593999997E+02  0.45594000000E+02  0.51100000000E-03 0.  1.
    9900012    2    1    2    0    0  0.23957647269E+02  0.16701554236E+02 -0.32104709862E+02  0.47787272220E+02  0.20000005358E+02 0.  0.
         12    1    1    2    0    0 -0.23957647269E+02 -0.16701554236E+02  0.32104709862E+02  0.43400727780E+02  0.00000000000E+00 0. -1.
         11    1    3    3    0    0  0.39073557562E+01  0.25594125840E+01 -0.33931113620E+01  0.57733202541E+01  0.51100000000E-03 0. -1.
        -11    1    3    3    0    0  0.17030827488E+02  0.18018974006E+02 -0.27348581965E+02  0.36914461190E+02  0.51100000000E-03 0.  1.
         12    1    3    3    0    0  0.30194640250E+01 -0.38768323542E+01 -0.13630165346E+01  0.50994907760E+01  0.00000000000E+00 0. -1.
</event>
<event>
 7    1  0.2682317E-010  0.4778727E+02  0.7816164E-02  0.1312668E+00
        -11   -1    0    0    0    0  0.00000000000E+00  0.00000000000E+00  0.45593999997E+02  0.45594000000E+02  0.51100000000E-03 0.  1.
         11   -1    0    0    0    0 -0.00000000000E+00 -0.00000000000E+00 -0.45593999997E+02  0.45594000000E+02  0.51100000000E-03 0. -1.
    9900012    2    1    2    0    0  0.33494220405E+02 -0.12447012198E+02  0.24633967265E+02  0.47787271245E+02  0.20000000916E+02 0.  0.
         12    1    1    2    0    0 -0.33494220405E+02  0.12447012198E+02 -0.24633967265E+02  0.43400728755E+02  0.00000000000E+00 0. -1.
         11    1    3    3    0    0  0.16986318632E+02 -0.37324695863E+01  0.84675180718E+01  0.19343350601E+02  0.51100000000E-03 0. -1.
        -11    1    3    3    0    0  0.16838499029E+02 -0.10077573382E+02  0.17656352717E+02  0.26397714415E+02  0.51100000000E-03 0.  1.
         12    1    3    3    0    0 -0.33059725557E+00  0.13630307707E+01 -0.14899035233E+01  0.20462062301E+01  0.00000000000E+00 0. -1.
</event>
<event>
 7    1  0.2682317E-010  0.4778727E+02  0.7816164E-02  0.1312668E+00
        -11   -1    0    0    0    0  0.00000000000E+00  0.00000000000E+00  0.45593999997E+02  0.45594000000E+02  0.51100000000E-03 0. -1.
         11   -1    0    0    0    0 -0.00000000000E+00 -0.00000000000E+00 -0.45593999997E+02  0.45594000000E+02  0.51100000000E-03 0.  1.
    9900012    2    1    2    0    0 -0.10435189553E+02  0.36622349652E+02  0.20821462430E+02  0.47787274514E+02  0.20000015818E+02 0.  0.
         12    1    1    2    0    0  0.10435189553E+02 -0.36622349652E+02 -0.20821462430E+02  0.43400725486E+02  0.00000000000E+00 0. -1.
         11    1    3    3    0    0 -0.19224259251E+01 -0.42619599073E+00  0.28854334091E+01  0.34932922408E+01  0.51100000000E-03 0. -1.
        -11    1    3    3    0    0  0.23663068973E+01  0.10585881368E+02  0.65140890176E+00  0.10866675043E+02  0.51100000000E-03 0.  1.
        -12    1    3    3    0    0 -0.10879070525E+02  0.26462664274E+02  0.17284620119E+02  0.33427307230E+02  0.00000000000E+00 0.  1.
</event>
<event>
 7    1  0.2682317E-010  0.4778726E+02  0.7816164E-02  0.1312668E+00
        -11   -1    0    0    0    0  0.00000000000E+00  0.00000000000E+00  0.45593999997E+02  0.45594000000E+02  0.51100000000E-03 0. -1.
         11   -1    0    0    0    0 -0.00000000000E+00 -0.00000000000E+00 -0.45593999997E+02  0.45594000000E+02  0.51100000000E-03 0.  1.
    9900012    2    1    2    0    0  0.19181509335E+01  0.25943796846E+01 -0.43280640005E+02  0.47787263737E+02  0.19999966682E+02 0.  0.
         12    1    1    2    0    0 -0.19181509335E+01 -0.25943796846E+01  0.43280640005E+02  0.43400736263E+02  0.00000000000E+00 0. -1.
         11    1    3    3    0    0 -0.35047397470E+00  0.89960461733E+01 -0.99864589549E+01  0.13445484055E+02  0.51100000000E-03 0. -1.
        -11    1    3    3    0    0 -0.11115414826E+01 -0.66748800793E+00 -0.10970870629E+02  0.11047219892E+02  0.51100000000E-03 0.  1.
         12    1    3    3    0    0  0.33801663908E+01 -0.57341784808E+01 -0.22323310420E+02  0.23294559790E+02  0.00000000000E+00 0. -1.
</event>
<event>
 7    1  0.2682317E-010  0.4778727E+02  0.7816164E-02  0.1312668E+00
        -11   -1    0    0    0    0  0.00000000000E+00  0.00000000000E+00  0.45593999997E+02  0.45594000000E+02  0.51100000000E-03 0.  1.
         11   -1    0    0    0    0 -0.00000000000E+00 -0.00000000000E+00 -0.45593999997E+02  0.45594000000E+02  0.51100000000E-03 0. -1.
    9900012    2    1    2    0    0 -0.32106387743E+02  0.22666689400E+02  0.18412613085E+02  0.47787271171E+02  0.20000000576E+02 0.  0.
         12    1    1    2    0    0  0.32106387743E+02 -0.22666689400E+02 -0.18412613085E+02  0.43400728829E+02  0.00000000000E+00 0. -1.
         11    1    3    3    0    0 -0.18059694970E+02  0.55881084636E+01  0.86922710652E+01  0.20807092904E+02  0.51100000000E-03 0. -1.
        -11    1    3    3    0    0 -0.31594595456E+01  0.20834807524E+01 -0.27202989127E+01  0.46608049843E+01  0.51100000000E-03 0.  1.
        -12    1    3    3    0    0 -0.10887233228E+02  0.14995100184E+02  0.12440640933E+02  0.22319373282E+02  0.00000000000E+00 0.  1.
</event>
<event>
 7    1  0.2682317E-010  0.4778727E+02  0.7816164E-02  0.1312668E+00
        -11   -1    0    0    0    0  0.00000000000E+00  0.00000000000E+00  0.45593999997E+02  0.45594000000E+02  0.51100000000E-03 0. -1.
         11   -1    0    0    0    0 -0.00000000000E+00 -0.00000000000E+00 -0.45593999997E+02  0.45594000000E+02  0.51100000000E-03 0.  1.
    9900012    2    1    2    0    0 -0.38344155907E+02 -0.81543780589E+01 -0.18624039320E+02  0.47787274035E+02  0.20000013633E+02 0.  0.
         12    1    1    2    0    0  0.38344155907E+02  0.81543780589E+01  0.18624039320E+02  0.43400725965E+02  0.00000000000E+00 0. -1.
         11    1    3    3    0    0 -0.94674745610E+01 -0.54302640807E+00 -0.11787762119E+02  0.15128756997E+02  0.51100000000E-03 0. -1.
        -11    1    3    3    0    0 -0.62863286094E+01 -0.67781028802E+01 -0.30718945002E+01  0.97415164180E+01  0.51100000000E-03 0.  1.
        -12    1    3    3    0    0 -0.22590352737E+02 -0.83324877064E+00 -0.37643827006E+01  0.22917000620E+02  0.00000000000E+00 0.  1.
</event>
<event>
 7    1  0.2682317E-010  0.4778727E+02  0.7816164E-02  0.1312668E+00
        -11   -1    0    0    0    0  0.00000000000E+00  0.00000000000E+00  0.45593999997E+02  0.45594000000E+02  0.51100000000E-03 0.  1.
         11   -1    0    0    0    0 -0.00000000000E+00 -0.00000000000E+00 -0.45593999997E+02  0.45594000000E+02  0.51100000000E-03 0. -1.
    9900012    2    1    2    0    0  0.17695855021E+02  0.38219630831E+02  0.10475669952E+02  0.47787272740E+02  0.20000007730E+02 0.  0.
         12    1    1    2    0    0 -0.17695855021E+02 -0.38219630831E+02 -0.10475669952E+02  0.43400727260E+02  0.00000000000E+00 0. -1.
         11    1    3    3    0    0  0.30717409794E+01  0.20571133952E+01  0.18869831225E+01  0.41506642518E+01  0.51100000000E-03 0. -1.
        -11    1    3    3    0    0  0.63554792383E+01  0.17274046422E+02  0.13021456728E+02  0.22546466058E+02  0.51100000000E-03 0.  1.
         12    1    3    3    0    0  0.82686348033E+01  0.18888471013E+02 -0.44327698983E+01  0.21090142430E+02  0.00000000000E+00 0. -1.
</event>
<event>
 7    1  0.2682317E-010  0.4778727E+02  0.7816164E-02  0.1312668E+00
        -11   -1    0    0    0    0  0.00000000000E+00  0.00000000000E+00  0.45593999997E+02  0.45594000000E+02  0.51100000000E-03 0.  1.
         11   -1    0    0    0    0 -0.00000000000E+00 -0.00000000000E+00 -0.45593999997E+02  0.45594000000E+02  0.51100000000E-03 0. -1.
    9900012    2    1    2    0    0 -0.18219039618E+02  0.21802630478E+02  0.32807551285E+02  0.47787268189E+02  0.19999986983E+02 0.  0.
         12    1    1    2    0    0  0.18219039618E+02 -0.21802630478E+02 -0.32807551285E+02  0.43400731811E+02  0.00000000000E+00 0. -1.
         11    1    3    3    0    0 -0.47719999691E+01  0.57569747511E+01  0.73494475055E+00  0.75136466538E+01  0.51100000000E-03 0. -1.
        -11    1    3    3    0    0 -0.45199167861E+01 -0.19664488841E+00  0.19957366994E+01  0.49448237784E+01  0.51100000000E-03 0.  1.
        -12    1    3    3    0    0 -0.89271228631E+01  0.16242300615E+02  0.30076869835E+02  0.35328797757E+02  0.00000000000E+00 0.  1.
</event>
<event>
 7    1  0.2682317E-010  0.4778728E+02  0.7816164E-02  0.1312668E+00
        -11   -1    0    0    0    0  0.00000000000E+00  0.00000000000E+00  0.45593999997E+02  0.45594000000E+02  0.51100000000E-03 0. -1.
         11   -1    0    0    0    0 -0.00000000000E+00 -0.00000000000E+00 -0.45593999997E+02  0.45594000000E+02  0.51100000000E-03 0.  1.
    9900012    2    1    2    0    0  0.38831155554E+02 -0.32951201013E+01 -0.19102518831E+02  0.47787277842E+02  0.20000030992E+02 0.  0.
         12    1    1    2    0    0 -0.38831155554E+02  0.32951201013E+01  0.19102518831E+02  0.43400722158E+02  0.00000000000E+00 0. -1.
         11    1    3    3    0    0  0.58205183790E+01  0.29440932078E+01 -0.10450713555E+02  0.12319234273E+02  0.51100000000E-03 0.  1.
        -11    1    3    3    0    0  0.68765199710E+01 -0.38974031074E+01 -0.38557543539E+01  0.87944937200E+01  0.51100000000E-03 0. -1.
        -12    1    3    3    0    0  0.26134117205E+02 -0.23418102018E+01 -0.47960509221E+01  0.26673549849E+02  0.00000000000E+00 0.  1.
</event>
<event>
 7    1  0.2682317E-010  0.4778727E+02  0.7816164E-02  0.1312668E+00
        -11   -1    0    0    0    0  0.00000000000E+00  0.00000000000E+00  0.45593999997E+02  0.45594000000E+02  0.51100000000E-03 0.  1.
         11   -1    0    0    0    0 -0.00000000000E+00 -0.00000000000E+00 -0.45593999997E+02  0.45594000000E+02  0.51100000000E-03 0. -1.
    9900012    2    1    2    0    0 -0.70785867508E+01  0.19849292725E+02  0.37941037847E+02  0.47787272299E+02  0.20000005722E+02 0.  0.
         12    1    1    2    0    0  0.70785867508E+01 -0.19849292725E+02 -0.37941037847E+02  0.43400727701E+02  0.00000000000E+00 0. -1.
         11    1    3    3    0    0 -0.30267479678E+01  0.53697204336E+01  0.58401723971E+01  0.84913317380E+01  0.51100000000E-03 0.  1.
        -11    1    3    3    0    0 -0.15765307877E+01 -0.84093615111E+00  0.18718766568E+02  0.18803851866E+02  0.51100000000E-03 0. -1.
         12    1    3    3    0    0 -0.24753079953E+01  0.15320508442E+02  0.13382098882E+02  0.20492088695E+02  0.00000000000E+00 0. -1.
</event>
<event>
 7    1  0.2682317E-010  0.4778727E+02  0.7816164E-02  0.1312668E+00
        -11   -1    0    0    0    0  0.00000000000E+00  0.00000000000E+00  0.45593999997E+02  0.45594000000E+02  0.51100000000E-03 0.  1.
         11   -1    0    0    0    0 -0.00000000000E+00 -0.00000000000E+00 -0.45593999997E+02  0.45594000000E+02  0.51100000000E-03 0. -1.
    9900012    2    1    2    0    0  0.14716052028E+02  0.27766913459E+02  0.29934258130E+02  0.47787268668E+02  0.19999989167E+02 0.  0.
         12    1    1    2    0    0 -0.14716052028E+02 -0.27766913459E+02 -0.29934258130E+02  0.43400731332E+02  0.00000000000E+00 0. -1.
         11    1    3    3    0    0  0.32948390169E+00  0.79245153651E+01  0.10075842808E+02  0.12822991537E+02  0.51100000000E-03 0. -1.
        -11    1    3    3    0    0  0.12040468783E+02  0.20567732480E+02  0.21428376886E+02  0.32049646552E+02  0.51100000000E-03 0.  1.
         12    1    3    3    0    0  0.23460993434E+01 -0.72533438564E+00 -0.15699615643E+01  0.29146305792E+01  0.00000000000E+00 0. -1.
</event>
<event>
 7    1  0.2682317E-010  0.4778727E+02  0.7816164E-02  0.1312668E+00
        -11   -1    0    0    0    0  0.00000000000E+00  0.00000000000E+00  0.45593999997E+02  0.45594000000E+02  0.51100000000E-03 0.  1.
         11   -1    0    0    0    0 -0.00000000000E+00 -0.00000000000E+00 -0.45593999997E+02  0.45594000000E+02  0.51100000000E-03 0. -1.
    9900012    2    1    2    0    0  0.20368753778E+02 -0.27696602021E+02  0.26488401887E+02  0.47787270415E+02  0.19999997129E+02 0.  0.
         12    1    1    2    0    0 -0.20368753778E+02  0.27696602021E+02 -0.26488401887E+02  0.43400729585E+02  0.00000000000E+00 0. -1.
         11    1    3    3    0    0  0.75572032779E+01 -0.17089328606E+02  0.17183843065E+02  0.25385841258E+02  0.51100000000E-03 0. -1.
        -11    1    3    3    0    0  0.12090849035E+02 -0.12810847322E+02  0.65327861871E+01  0.18787861377E+02  0.51100000000E-03 0.  1.
         12    1    3    3    0    0  0.72070146545E+00  0.22035739070E+01  0.27717726346E+01  0.36135677804E+01  0.00000000000E+00 0. -1.
</event>
<event>
 7    1  0.2682317E-010  0.4778728E+02  0.7816164E-02  0.1312668E+00
        -11   -1    0    0    0    0  0.00000000000E+00  0.00000000000E+00  0.45593999997E+02  0.45594000000E+02  0.51100000000E-03 0. -1.
         11   -1    0    0    0    0 -0.00000000000E+00 -0.00000000000E+00 -0.45593999997E+02  0.45594000000E+02  0.51100000000E-03 0.  1.
    9900012    2    1    2    0    0  0.36395951247E+02  0.17636230945E+02 -0.15745492908E+02  0.47787280466E+02  0.20000042957E+02 0.  0.
         12    1    1    2    0    0 -0.36395951247E+02 -0.17636230945E+02  0.15745492908E+02  0.43400719534E+02  0.00000000000E+00 0. -1.
         11    1    3    3    0    0  0.26054566956E+01  0.66601808695E+01  0.21287471556E+01  0.74617677880E+01  0.51100000000E-03 0. -1.
        -11    1    3    3    0    0  0.23504949909E+01  0.24021193485E+01 -0.50814242806E+00  0.33990017733E+01  0.51100000000E-03 0.  1.
        -12    1    3    3    0    0  0.31439999561E+02  0.85739307266E+01 -0.17366097636E+02  0.36926510905E+02  0.00000000000E+00 0.  1.
</event>
<event>
 7    1  0.2682317E-010  0.4778730E+02  0.7816164E-02  0.1312668E+00
        -11   -1    0    0    0    0  0.00000000000E+00  0.00000000000E+00  0.45593999997E+02  0.45594000000E+02  0.51100000000E-03 0. -1.
         11   -1    0    0    0    0 -0.00000000000E+00 -0.00000000000E+00 -0.45593999997E+02  0.45594000000E+02  0.51100000000E-03 0.  1.
    9900012    2    1    2    0    0 -0.35578005683E+02 -0.14717832352E+02 -0.20030273061E+02  0.47787298204E+02  0.20000123831E+02 0.  0.
         12    1    1    2    0    0  0.35578005683E+02  0.14717832352E+02  0.20030273061E+02  0.43400701796E+02  0.00000000000E+00 0. -1.
         11    1    3    3    0    0 -0.17890389231E+02 -0.68761024967E+01 -0.84011009775E+01  0.20926665054E+02  0.51100000000E-03 0. -1.
        -11    1    3    3    0    0 -0.17641594292E+02 -0.13216690467E+01 -0.86282027973E+01  0.19682950541E+02  0.51100000000E-03 0.  1.
         12    1    3    3    0    0 -0.46022160058E-01 -0.65200608082E+01 -0.30009692866E+01  0.71776826093E+01  0.00000000000E+00 0. -1.
</event>
<event>
 7    1  0.2682317E-010  0.4778727E+02  0.7816164E-02  0.1312668E+00
        -11   -1    0    0    0    0  0.00000000000E+00  0.00000000000E+00  0.45593999997E+02  0.45594000000E+02  0.51100000000E-03 0. -1.
         11   -1    0    0    0    0 -0.00000000000E+00 -0.00000000000E+00 -0.45593999997E+02  0.45594000000E+02  0.51100000000E-03 0.  1.
    9900012    2    1    2    0    0 -0.25503199255E+02  0.31801662522E+02  0.14895112421E+02  0.47787270911E+02  0.19999999393E+02 0.  0.
         12    1    1    2    0    0  0.25503199255E+02 -0.31801662522E+02 -0.14895112421E+02  0.43400729089E+02  0.00000000000E+00 0. -1.
         11    1    3    3    0    0 -0.53355701191E+01  0.12811128873E+02  0.42055357912E+01  0.14501029724E+02  0.51100000000E-03 0. -1.
        -11    1    3    3    0    0 -0.16032327019E+02  0.20948169597E+02  0.67022100674E+01  0.27217291179E+02  0.51100000000E-03 0.  1.
         12    1    3    3    0    0 -0.41353021167E+01 -0.19576359474E+01  0.39873665623E+01  0.60689500081E+01  0.00000000000E+00 0. -1.
</event>
<event>
 7    1  0.2682317E-010  0.4778727E+02  0.7816164E-02  0.1312668E+00
        -11   -1    0    0    0    0  0.00000000000E+00  0.00000000000E+00  0.45593999997E+02  0.45594000000E+02  0.51100000000E-03 0.  1.
         11   -1    0    0    0    0 -0.00000000000E+00 -0.00000000000E+00 -0.45593999997E+02  0.45594000000E+02  0.51100000000E-03 0. -1.
    9900012    2    1    2    0    0  0.30319041116E+02  0.20040644797E+02  0.23722387506E+02  0.47787269971E+02  0.19999995106E+02 0.  0.
         12    1    1    2    0    0 -0.30319041116E+02 -0.20040644797E+02 -0.23722387506E+02  0.43400730029E+02  0.00000000000E+00 0. -1.
         11    1    3    3    0    0  0.59075161159E+01  0.81475099371E+01  0.81748325913E+01  0.12965668243E+02  0.51100000000E-03 0. -1.
        -11    1    3    3    0    0  0.14457936300E+02  0.13777442611E+02  0.14410795301E+02  0.24627644394E+02  0.51100000000E-03 0.  1.
         12    1    3    3    0    0  0.99535887000E+01 -0.18843077506E+01  0.11367596140E+01  0.10193957334E+02  0.00000000000E+00 0. -1.
</event>
<event>
 7    1  0.2682317E-010  0.4778727E+02  0.7816164E-02  0.1312668E+00
        -11   -1    0    0    0    0  0.00000000000E+00  0.00000000000E+00  0.45593999997E+02  0.45594000000E+02  0.51100000000E-03 0.  1.
         11   -1    0    0    0    0 -0.00000000000E+00 -0.00000000000E+00 -0.45593999997E+02  0.45594000000E+02  0.51100000000E-03 0. -1.
    9900012    2    1    2    0    0  0.14245894365E+02  0.25787149726E+01  0.40914888673E+02  0.47787269680E+02  0.19999993779E+02 0.  0.
         12    1    1    2    0    0 -0.14245894365E+02 -0.25787149726E+01 -0.40914888673E+02  0.43400730320E+02  0.00000000000E+00 0. -1.
         11    1    3    3    0    0  0.22134828401E+01  0.31727839168E-02  0.11046637815E+01  0.24738226859E+01  0.51100000000E-03 0.  1.
        -11    1    3    3    0    0  0.11277200647E+02 -0.43852978525E+01  0.13688729778E+02  0.18269849887E+02  0.51100000000E-03 0. -1.
         12    1    3    3    0    0  0.75521087847E+00  0.69608400412E+01  0.26121495114E+02  0.27043597108E+02  0.00000000000E+00 0. -1.
</event>
<event>
 7    1  0.2682317E-010  0.4778727E+02  0.7816164E-02  0.1312668E+00
        -11   -1    0    0    0    0  0.00000000000E+00  0.00000000000E+00  0.45593999997E+02  0.45594000000E+02  0.51100000000E-03 0.  1.
         11   -1    0    0    0    0 -0.00000000000E+00 -0.00000000000E+00 -0.45593999997E+02  0.45594000000E+02  0.51100000000E-03 0. -1.
    9900012    2    1    2    0    0 -0.36924238190E+02 -0.82779740721E+01  0.21253206723E+02  0.47787274007E+02  0.20000013509E+02 0.  0.
         12    1    1    2    0    0  0.36924238190E+02  0.82779740721E+01 -0.21253206723E+02  0.43400725993E+02  0.00000000000E+00 0. -1.
         11    1    3    3    0    0 -0.15483182653E+02 -0.38262572072E+01  0.14846639758E+02  0.21789720091E+02  0.51100000000E-03 0. -1.
        -11    1    3    3    0    0 -0.10893537202E+02 -0.11477824511E+01  0.95220410953E+01  0.14513987192E+02  0.51100000000E-03 0.  1.
         12    1    3    3    0    0 -0.10547518336E+02 -0.33039344138E+01 -0.31154741304E+01  0.11483566725E+02  0.00000000000E+00 0. -1.
</event>
<event>
 7    1  0.2682317E-010  0.4778727E+02  0.7816164E-02  0.1312668E+00
        -11   -1    0    0    0    0  0.00000000000E+00  0.00000000000E+00  0.45593999997E+02  0.45594000000E+02  0.51100000000E-03 0.  1.
         11   -1    0    0    0    0 -0.00000000000E+00 -0.00000000000E+00 -0.45593999997E+02  0.45594000000E+02  0.51100000000E-03 0. -1.
    9900012    2    1    2    0    0 -0.84435934200E+01  0.32900749493E+02  0.27016101680E+02  0.47787270317E+02  0.19999996683E+02 0.  0.
         12    1    1    2    0    0  0.84435934200E+01 -0.32900749493E+02 -0.27016101680E+02  0.43400729683E+02  0.00000000000E+00 0. -1.
         11    1    3    3    0    0  0.19275968713E+01  0.29228917159E+01  0.65559987402E+01  0.74323647263E+01  0.51100000000E-03 0. -1.
        -11    1    3    3    0    0 -0.85920680118E+01  0.10809891392E+02  0.14906483593E+02  0.20319464511E+02  0.51100000000E-03 0.  1.
         12    1    3    3    0    0 -0.17791222795E+01  0.19167966385E+02  0.55536193463E+01  0.20035441080E+02  0.00000000000E+00 0. -1.
</event>
<event>
 7    1  0.2682317E-010  0.4778727E+02  0.7816164E-02  0.1312668E+00
        -11   -1    0    0    0    0  0.00000000000E+00  0.00000000000E+00  0.45593999997E+02  0.45594000000E+02  0.51100000000E-03 0. -1.
         11   -1    0    0    0    0 -0.00000000000E+00 -0.00000000000E+00 -0.45593999997E+02  0.45594000000E+02  0.51100000000E-03 0.  1.
    9900012    2    1    2    0    0 -0.20066667833E+02 -0.17576115171E+02 -0.34234956532E+02  0.47787271536E+02  0.20000002242E+02 0.  0.
         12    1    1    2    0    0  0.20066667833E+02  0.17576115171E+02  0.34234956532E+02  0.43400728464E+02  0.00000000000E+00 0. -1.
         11    1    3    3    0    0 -0.53991461907E+01 -0.88407167437E+01 -0.74719151312E+01  0.12772570928E+02  0.51100000000E-03 0. -1.
        -11    1    3    3    0    0 -0.12263897968E+02 -0.90599181709E+01 -0.28297980045E+02  0.32144377199E+02  0.51100000000E-03 0.  1.
         12    1    3    3    0    0 -0.24036236742E+01  0.32451974316E+00  0.15349386440E+01  0.28703234089E+01  0.00000000000E+00 0. -1.
</event>
<event>
 7    1  0.2682317E-010  0.4778726E+02  0.7816164E-02  0.1312668E+00
        -11   -1    0    0    0    0  0.00000000000E+00  0.00000000000E+00  0.45593999997E+02  0.45594000000E+02  0.51100000000E-03 0. -1.
         11   -1    0    0    0    0 -0.00000000000E+00 -0.00000000000E+00 -0.45593999997E+02  0.45594000000E+02  0.51100000000E-03 0.  1.
    9900012    2    1    2    0    0  0.42126100937E+02  0.85612051265E+01 -0.59767329215E+01  0.47787263257E+02  0.19999964494E+02 0.  0.
         12    1    1    2    0    0 -0.42126100937E+02 -0.85612051265E+01  0.59767329215E+01  0.43400736743E+02  0.00000000000E+00 0. -1.
         11    1    3    3    0    0  0.12982257144E+02  0.65099558387E+01  0.40991269644E+01  0.15090439612E+02  0.51100000000E-03 0. -1.
        -11    1    3    3    0    0  0.87413435933E+01 -0.31022472664E+01  0.20200566955E+00  0.92777062074E+01  0.51100000000E-03 0.  1.
        -12    1    3    3    0    0  0.20402500201E+02  0.51534965542E+01 -0.10277865555E+02  0.23419117437E+02  0.00000000000E+00 0.  1.
</event>
<event>
 7    1  0.2682317E-010  0.4778727E+02  0.7816164E-02  0.1312668E+00
        -11   -1    0    0    0    0  0.00000000000E+00  0.00000000000E+00  0.45593999997E+02  0.45594000000E+02  0.51100000000E-03 0.  1.
         11   -1    0    0    0    0 -0.00000000000E+00 -0.00000000000E+00 -0.45593999997E+02  0.45594000000E+02  0.51100000000E-03 0. -1.
    9900012    2    1    2    0    0  0.25569302000E+02 -0.34334139255E+02 -0.71415059444E+01  0.47787269242E+02  0.19999991784E+02 0.  0.
         12    1    1    2    0    0 -0.25569302000E+02  0.34334139255E+02  0.71415059444E+01  0.43400730758E+02  0.00000000000E+00 0. -1.
         11    1    3    3    0    0  0.11506923486E+02 -0.23396844963E+02 -0.11915410462E+01  0.26100601768E+02  0.51100000000E-03 0. -1.
        -11    1    3    3    0    0  0.84233573286E+01 -0.64636673805E+01  0.21685074624E+01  0.10836713965E+02  0.51100000000E-03 0.  1.
         12    1    3    3    0    0  0.56390211854E+01 -0.44736269115E+01 -0.81184723607E+01  0.10849953509E+02  0.00000000000E+00 0. -1.
</event>
<event>
 7    1  0.2682317E-010  0.4778727E+02  0.7816164E-02  0.1312668E+00
        -11   -1    0    0    0    0  0.00000000000E+00  0.00000000000E+00  0.45593999997E+02  0.45594000000E+02  0.51100000000E-03 0.  1.
         11   -1    0    0    0    0 -0.00000000000E+00 -0.00000000000E+00 -0.45593999997E+02  0.45594000000E+02  0.51100000000E-03 0. -1.
    9900012    2    1    2    0    0 -0.34906304726E+02  0.25790590630E+02  0.13630824223E+00  0.47787271267E+02  0.20000001014E+02 0.  0.
         12    1    1    2    0    0  0.34906304726E+02 -0.25790590630E+02 -0.13630824223E+00  0.43400728733E+02  0.00000000000E+00 0. -1.
         11    1    3    3    0    0 -0.12968678115E+02  0.69302558990E+01 -0.15419246277E+01  0.14784877094E+02  0.51100000000E-03 0.  1.
        -11    1    3    3    0    0 -0.19763462653E+02  0.12601055410E+02 -0.45867194627E+01  0.23883447180E+02  0.51100000000E-03 0. -1.
         12    1    3    3    0    0 -0.21741639575E+01  0.62592793205E+01  0.62649523326E+01  0.91189469927E+01  0.00000000000E+00 0. -1.
</event>
<event>
 7    1  0.2682317E-010  0.4778727E+02  0.7816164E-02  0.1312668E+00
        -11   -1    0    0    0    0  0.00000000000E+00  0.00000000000E+00  0.45593999997E+02  0.45594000000E+02  0.51100000000E-03 0.  1.
         11   -1    0    0    0    0 -0.00000000000E+00 -0.00000000000E+00 -0.45593999997E+02  0.45594000000E+02  0.51100000000E-03 0. -1.
    9900012    2    1    2    0    0 -0.38735438666E+02 -0.15805050362E+02  0.11549422881E+02  0.47787274263E+02  0.20000014674E+02 0.  0.
         12    1    1    2    0    0  0.38735438666E+02  0.15805050362E+02 -0.11549422881E+02  0.43400725737E+02  0.00000000000E+00 0. -1.
         11    1    3    3    0    0 -0.28417456050E+01 -0.64637945782E+00 -0.15681310029E+00  0.29185467440E+01  0.51100000000E-03 0. -1.
        -11    1    3    3    0    0 -0.36299888217E+02 -0.16256437170E+02  0.74641298627E+01  0.40468096927E+02  0.51100000000E-03 0.  1.
         12    1    3    3    0    0  0.40619515603E+00  0.10977662658E+01  0.42421061191E+01  0.44006305917E+01  0.00000000000E+00 0. -1.
</event>
<event>
 7    1  0.2682317E-010  0.4778727E+02  0.7816164E-02  0.1312668E+00
        -11   -1    0    0    0    0  0.00000000000E+00  0.00000000000E+00  0.45593999997E+02  0.45594000000E+02  0.51100000000E-03 0.  1.
         11   -1    0    0    0    0 -0.00000000000E+00 -0.00000000000E+00 -0.45593999997E+02  0.45594000000E+02  0.51100000000E-03 0. -1.
    9900012    2    1    2    0    0  0.17901264328E+01 -0.28608021748E+02  0.32588337707E+02  0.47787271718E+02  0.20000003069E+02 0.  0.
         12    1    1    2    0    0 -0.17901264328E+01  0.28608021748E+02 -0.32588337707E+02  0.43400728282E+02  0.00000000000E+00 0. -1.
         11    1    3    3    0    0 -0.34167137480E+01 -0.90182598752E+00  0.22898455041E+00  0.35411378303E+01  0.51100000000E-03 0. -1.
        -11    1    3    3    0    0 -0.26677972352E+01 -0.22834614334E+01  0.46323698182E+01  0.58129328741E+01  0.51100000000E-03 0.  1.
         12    1    3    3    0    0  0.78746374161E+01 -0.25422734327E+02  0.27726983338E+02  0.38433201013E+02  0.00000000000E+00 0. -1.
</event>
<event>
 7    1  0.2682317E-010  0.4778727E+02  0.7816164E-02  0.1312668E+00
        -11   -1    0    0    0    0  0.00000000000E+00  0.00000000000E+00  0.45593999997E+02  0.45594000000E+02  0.51100000000E-03 0.  1.
         11   -1    0    0    0    0 -0.00000000000E+00 -0.00000000000E+00 -0.45593999997E+02  0.45594000000E+02  0.51100000000E-03 0. -1.
    9900012    2    1    2    0    0 -0.40117319377E+02  0.10773481346E+02  0.12576009509E+02  0.47787271556E+02  0.20000002332E+02 0.  0.
         12    1    1    2    0    0  0.40117319377E+02 -0.10773481346E+02 -0.12576009509E+02  0.43400728444E+02  0.00000000000E+00 0. -1.
         11    1    3    3    0    0 -0.21964287392E+02  0.10090322220E+02  0.10243299010E+02  0.26252041787E+02  0.51100000000E-03 0. -1.
        -11    1    3    3    0    0 -0.14243468088E+02  0.13041011968E+01  0.65671360449E+01  0.15738625709E+02  0.51100000000E-03 0.  1.
         12    1    3    3    0    0 -0.39095638967E+01 -0.62094207133E+00 -0.42344255459E+01  0.57966040594E+01  0.00000000000E+00 0. -1.
</event>
<event>
 7    1  0.2682317E-010  0.4778727E+02  0.7816164E-02  0.1312668E+00
        -11   -1    0    0    0    0  0.00000000000E+00  0.00000000000E+00  0.45593999997E+02  0.45594000000E+02  0.51100000000E-03 0.  1.
         11   -1    0    0    0    0 -0.00000000000E+00 -0.00000000000E+00 -0.45593999997E+02  0.45594000000E+02  0.51100000000E-03 0. -1.
    9900012    2    1    2    0    0  0.29003909547E+02 -0.10774200162E+02  0.30435398428E+02  0.47787266877E+02  0.19999981000E+02 0.  0.
         12    1    1    2    0    0 -0.29003909547E+02  0.10774200162E+02 -0.30435398428E+02  0.43400733123E+02  0.00000000000E+00 0. -1.
         11    1    3    3    0    0 -0.17301531954E+00 -0.32847823334E+01 -0.70425844459E+00  0.33638830979E+01  0.51100000000E-03 0. -1.
        -11    1    3    3    0    0  0.74283518459E+01 -0.61318833121E+01  0.70261820150E+01  0.11922568434E+02  0.51100000000E-03 0.  1.
        -12    1    3    3    0    0  0.21748573021E+02 -0.13575345166E+01  0.24113474857E+02  0.32500815345E+02  0.00000000000E+00 0.  1.
</event>
<event>
 7    1  0.2682317E-010  0.4778728E+02  0.7816164E-02  0.1312668E+00
        -11   -1    0    0    0    0  0.00000000000E+00  0.00000000000E+00  0.45593999997E+02  0.45594000000E+02  0.51100000000E-03 0.  1.
         11   -1    0    0    0    0 -0.00000000000E+00 -0.00000000000E+00 -0.45593999997E+02  0.45594000000E+02  0.51100000000E-03 0. -1.
    9900012    2    1    2    0    0  0.28816470660E+02  0.21766710198E+02  0.24071644062E+02  0.47787277633E+02  0.20000030040E+02 0.  0.
         12    1    1    2    0    0 -0.28816470660E+02 -0.21766710198E+02 -0.24071644062E+02  0.43400722367E+02  0.00000000000E+00 0. -1.
         11    1    3    3    0    0  0.98739952306E+01  0.44727364308E+01  0.12962995515E+02  0.16897940880E+02  0.51100000000E-03 0. -1.
        -11    1    3    3    0    0  0.22848491483E+01 -0.21636054897E+01  0.18686876315E+01  0.36597428968E+01  0.51100000000E-03 0.  1.
         12    1    3    3    0    0  0.16657626281E+02  0.19457579257E+02  0.92399609149E+01  0.27229593856E+02  0.00000000000E+00 0. -1.
</event>
<event>
 7    1  0.2682317E-010  0.4778727E+02  0.7816164E-02  0.1312668E+00
        -11   -1    0    0    0    0  0.00000000000E+00  0.00000000000E+00  0.45593999997E+02  0.45594000000E+02  0.51100000000E-03 0.  1.
         11   -1    0    0    0    0 -0.00000000000E+00 -0.00000000000E+00 -0.45593999997E+02  0.45594000000E+02  0.51100000000E-03 0. -1.
    9900012    2    1    2    0    0 -0.21736863279E+02 -0.27719750956E+02  0.25352461382E+02  0.47787272859E+02  0.20000008271E+02 0.  0.
         12    1    1    2    0    0  0.21736863279E+02  0.27719750956E+02 -0.25352461382E+02  0.43400727141E+02  0.00000000000E+00 0. -1.
         11    1    3    3    0    0 -0.49357259782E+01 -0.16277472040E+02  0.63909368361E+01  0.18170348397E+02  0.51100000000E-03 0. -1.
        -11    1    3    3    0    0 -0.10464722697E+02 -0.97386885029E+01  0.68710473221E+01  0.15860761850E+02  0.51100000000E-03 0.  1.
         12    1    3    3    0    0 -0.63364146038E+01 -0.17035904133E+01  0.12090477223E+02  0.13756162612E+02  0.00000000000E+00 0. -1.
</event>
<event>
 7    1  0.2682317E-010  0.4778725E+02  0.7816164E-02  0.1312668E+00
        -11   -1    0    0    0    0  0.00000000000E+00  0.00000000000E+00  0.45593999997E+02  0.45594000000E+02  0.51100000000E-03 0.  1.
         11   -1    0    0    0    0 -0.00000000000E+00 -0.00000000000E+00 -0.45593999997E+02  0.45594000000E+02  0.51100000000E-03 0. -1.
    9900012    2    1    2    0    0  0.34202015441E+02 -0.21172567158E+02  0.16296314204E+02  0.47787247507E+02  0.19999892682E+02 0.  0.
         12    1    1    2    0    0 -0.34202015441E+02  0.21172567158E+02 -0.16296314204E+02  0.43400752493E+02  0.00000000000E+00 0. -1.
         11    1    3    3    0    0  0.56367758222E+01  0.90415072331E+00  0.15878687448E+01  0.59255428116E+01  0.51100000000E-03 0. -1.
        -11    1    3    3    0    0  0.15099405254E+02 -0.12572282479E+02 -0.18236740222E+00  0.19649111529E+02  0.51100000000E-03 0.  1.
         12    1    3    3    0    0  0.13465834365E+02 -0.95044354029E+01  0.14890812862E+02  0.22212593166E+02  0.00000000000E+00 0. -1.
</event>
<event>
 7    1  0.2682317E-010  0.4778727E+02  0.7816164E-02  0.1312668E+00
        -11   -1    0    0    0    0  0.00000000000E+00  0.00000000000E+00  0.45593999997E+02  0.45594000000E+02  0.51100000000E-03 0.  1.
         11   -1    0    0    0    0 -0.00000000000E+00 -0.00000000000E+00 -0.45593999997E+02  0.45594000000E+02  0.51100000000E-03 0. -1.
    9900012    2    1    2    0    0  0.60316905490E+00 -0.32950167610E+02  0.28240853143E+02  0.47787272532E+02  0.20000006784E+02 0.  0.
         12    1    1    2    0    0 -0.60316905490E+00  0.32950167610E+02 -0.28240853143E+02  0.43400727468E+02  0.00000000000E+00 0. -1.
         11    1    3    3    0    0  0.40819366207E+01 -0.90606985841E+01  0.23148603844E+01  0.10203775981E+02  0.51100000000E-03 0. -1.
        -11    1    3    3    0    0 -0.21794462695E+01  0.25449997111E+00  0.86931491486E-01  0.21959766899E+01  0.51100000000E-03 0.  1.
        -12    1    3    3    0    0 -0.12993212963E+01 -0.24143968997E+02  0.25839061268E+02  0.35387519862E+02  0.00000000000E+00 0.  1.
</event>
<event>
 7    1  0.2682317E-010  0.4778727E+02  0.7816164E-02  0.1312668E+00
        -11   -1    0    0    0    0  0.00000000000E+00  0.00000000000E+00  0.45593999997E+02  0.45594000000E+02  0.51100000000E-03 0.  1.
         11   -1    0    0    0    0 -0.00000000000E+00 -0.00000000000E+00 -0.45593999997E+02  0.45594000000E+02  0.51100000000E-03 0. -1.
    9900012    2    1    2    0    0  0.15781738177E+02  0.21215647965E+02  0.34415929056E+02  0.47787272457E+02  0.20000006440E+02 0.  0.
         12    1    1    2    0    0 -0.15781738177E+02 -0.21215647965E+02 -0.34415929056E+02  0.43400727543E+02  0.00000000000E+00 0. -1.
         11    1    3    3    0    0  0.12690043451E+02  0.89504744753E+01  0.99875080150E+01  0.18463437186E+02  0.51100000000E-03 0. -1.
        -11    1    3    3    0    0  0.38152435506E+01  0.81215436922E+00  0.10937464699E+02  0.11612226848E+02  0.51100000000E-03 0.  1.
         12    1    3    3    0    0 -0.72354882494E+00  0.11453019121E+02  0.13490956342E+02  0.17711608422E+02  0.00000000000E+00 0. -1.
</event>
<event>
 7    1  0.2682317E-010  0.4778726E+02  0.7816164E-02  0.1312668E+00
        -11   -1    0    0    0    0  0.00000000000E+00  0.00000000000E+00  0.45593999997E+02  0.45594000000E+02  0.51100000000E-03 0.  1.
         11   -1    0    0    0    0 -0.00000000000E+00 -0.00000000000E+00 -0.45593999997E+02  0.45594000000E+02  0.51100000000E-03 0. -1.
    9900012    2    1    2    0    0  0.66223217874E+01 -0.42434985291E+02 -0.62482568760E+01  0.47787264563E+02  0.19999970450E+02 0.  0.
         12    1    1    2    0    0 -0.66223217874E+01  0.42434985291E+02  0.62482568760E+01  0.43400735437E+02  0.00000000000E+00 0. -1.
         11    1    3    3    0    0  0.43849914585E+01 -0.64463015237E+01  0.29143073771E+01  0.83232290113E+01  0.51100000000E-03 0. -1.
        -11    1    3    3    0    0  0.44348643136E+01 -0.26261494840E+02 -0.11271088351E+01  0.26657166153E+02  0.51100000000E-03 0.  1.
         12    1    3    3    0    0 -0.21975339847E+01 -0.97271889270E+01 -0.80354554180E+01  0.12806869399E+02  0.00000000000E+00 0. -1.
</event>
<event>
 7    1  0.2682317E-010  0.4778728E+02  0.7816164E-02  0.1312668E+00
        -11   -1    0    0    0    0  0.00000000000E+00  0.00000000000E+00  0.45593999997E+02  0.45594000000E+02  0.51100000000E-03 0.  1.
         11   -1    0    0    0    0 -0.00000000000E+00 -0.00000000000E+00 -0.45593999997E+02  0.45594000000E+02  0.51100000000E-03 0. -1.
    9900012    2    1    2    0    0 -0.38245660376E+01  0.42341415110E+02  0.87292701250E+01  0.47787275400E+02  0.20000019859E+02 0.  0.
         12    1    1    2    0    0  0.38245660376E+01 -0.42341415110E+02 -0.87292701250E+01  0.43400724600E+02  0.00000000000E+00 0. -1.
         11    1    3    3    0    0 -0.52852338636E+01  0.84015396876E+01  0.27546468041E+01  0.10300856537E+02  0.51100000000E-03 0. -1.
        -11    1    3    3    0    0 -0.14118372236E+01  0.30676956540E+02  0.92175099705E+01  0.32062929330E+02  0.51100000000E-03 0.  1.
         12    1    3    3    0    0  0.28725050497E+01  0.32629188824E+01 -0.32428866497E+01  0.54234895331E+01  0.00000000000E+00 0. -1.
</event>
<event>
 7    1  0.2682317E-010  0.4778727E+02  0.7816164E-02  0.1312668E+00
        -11   -1    0    0    0    0  0.00000000000E+00  0.00000000000E+00  0.45593999997E+02  0.45594000000E+02  0.51100000000E-03 0.  1.
         11   -1    0    0    0    0 -0.00000000000E+00 -0.00000000000E+00 -0.45593999997E+02  0.45594000000E+02  0.51100000000E-03 0. -1.
    9900012    2    1    2    0    0  0.19154822102E+02  0.30644831182E+02  0.24033519868E+02  0.47787274601E+02  0.20000016214E+02 0.  0.
         12    1    1    2    0    0 -0.19154822102E+02 -0.30644831182E+02 -0.24033519868E+02  0.43400725399E+02  0.00000000000E+00 0. -1.
         11    1    3    3    0    0  0.16718536177E+01  0.38650214198E+01 -0.10729379276E+01  0.43456508319E+01  0.51100000000E-03 0. -1.
        -11    1    3    3    0    0 -0.34465886318E+00  0.59242601629E+01  0.11215703584E+02  0.12688879200E+02  0.51100000000E-03 0.  1.
        -12    1    3    3    0    0  0.17827627348E+02  0.20855549599E+02  0.13890754212E+02  0.30752744569E+02  0.00000000000E+00 0.  1.
</event>
<event>
 7    1  0.2682317E-010  0.4778727E+02  0.7816164E-02  0.1312668E+00
        -11   -1    0    0    0    0  0.00000000000E+00  0.00000000000E+00  0.45593999997E+02  0.45594000000E+02  0.51100000000E-03 0.  1.
         11   -1    0    0    0    0 -0.00000000000E+00 -0.00000000000E+00 -0.45593999997E+02  0.45594000000E+02  0.51100000000E-03 0. -1.
    9900012    2    1    2    0    0 -0.19484620674E+02 -0.35842623049E+02 -0.14808074830E+02  0.47787272472E+02  0.20000006507E+02 0.  0.
         12    1    1    2    0    0  0.19484620674E+02  0.35842623049E+02  0.14808074830E+02  0.43400727528E+02  0.00000000000E+00 0. -1.
         11    1    3    3    0    0 -0.35487582557E+01 -0.91846218775E+01 -0.10067075694E+02  0.14081795961E+02  0.51100000000E-03 0. -1.
        -11    1    3    3    0    0 -0.49447066858E+00  0.11946037777E+01  0.58071278107E+00  0.14173238949E+01  0.51100000000E-03 0.  1.
        -12    1    3    3    0    0 -0.15441391749E+02 -0.27852604949E+02 -0.53217119167E+01  0.32288152616E+02  0.00000000000E+00 0.  1.
</event>
<event>
 7    1  0.2682317E-010  0.4778727E+02  0.7816164E-02  0.1312668E+00
        -11   -1    0    0    0    0  0.00000000000E+00  0.00000000000E+00  0.45593999997E+02  0.45594000000E+02  0.51100000000E-03 0.  1.
         11   -1    0    0    0    0 -0.00000000000E+00 -0.00000000000E+00 -0.45593999997E+02  0.45594000000E+02  0.51100000000E-03 0. -1.
    9900012    2    1    2    0    0 -0.23617211408E+02  0.22438830853E+02  0.28676639561E+02  0.47787268886E+02  0.19999990161E+02 0.  0.
         12    1    1    2    0    0  0.23617211408E+02 -0.22438830853E+02 -0.28676639561E+02  0.43400731114E+02  0.00000000000E+00 0. -1.
         11    1    3    3    0    0 -0.13815993084E+02  0.60162916406E+01  0.35350665553E+01  0.15478182252E+02  0.51100000000E-03 0. -1.
        -11    1    3    3    0    0 -0.21810885159E+01  0.91185611205E+00  0.63674153441E+01  0.67920988736E+01  0.51100000000E-03 0.  1.
         12    1    3    3    0    0 -0.76201298076E+01  0.15510683100E+02  0.18774157661E+02  0.25516987761E+02  0.00000000000E+00 0. -1.
</event>
<event>
 7    1  0.2682317E-010  0.4778727E+02  0.7816164E-02  0.1312668E+00
        -11   -1    0    0    0    0  0.00000000000E+00  0.00000000000E+00  0.45593999997E+02  0.45594000000E+02  0.51100000000E-03 0. -1.
         11   -1    0    0    0    0 -0.00000000000E+00 -0.00000000000E+00 -0.45593999997E+02  0.45594000000E+02  0.51100000000E-03 0.  1.
    9900012    2    1    2    0    0 -0.36575697940E+02  0.28751344681E+01 -0.23185668413E+02  0.47787270769E+02  0.19999998743E+02 0.  0.
         12    1    1    2    0    0  0.36575697940E+02 -0.28751344681E+01  0.23185668413E+02  0.43400729231E+02  0.00000000000E+00 0. -1.
         11    1    3    3    0    0 -0.74310318801E+01 -0.30011340531E+01  0.81656845013E+00  0.80556703447E+01  0.51100000000E-03 0. -1.
        -11    1    3    3    0    0 -0.34919413857E+01  0.30474502844E+01 -0.22530395596E+00  0.46401907300E+01  0.51100000000E-03 0.  1.
        -12    1    3    3    0    0 -0.25652724675E+02  0.28288182369E+01 -0.23776932907E+02  0.35091409694E+02  0.00000000000E+00 0.  1.
</event>
<event>
 7    1  0.2682317E-010  0.4778728E+02  0.7816164E-02  0.1312668E+00
        -11   -1    0    0    0    0  0.00000000000E+00  0.00000000000E+00  0.45593999997E+02  0.45594000000E+02  0.51100000000E-03 0.  1.
         11   -1    0    0    0    0 -0.00000000000E+00 -0.00000000000E+00 -0.45593999997E+02  0.45594000000E+02  0.51100000000E-03 0. -1.
    9900012    2    1    2    0    0 -0.17128803599E+02  0.15033046226E+02  0.36935544752E+02  0.47787275839E+02  0.20000021862E+02 0.  0.
         12    1    1    2    0    0  0.17128803599E+02 -0.15033046226E+02 -0.36935544752E+02  0.43400724161E+02  0.00000000000E+00 0. -1.
         11    1    3    3    0    0 -0.67029709994E+00 -0.14818437796E+01  0.79033538033E+01  0.80689628076E+01  0.51100000000E-03 0. -1.
        -11    1    3    3    0    0 -0.17261896570E+01 -0.15453676160E-01 -0.13020371614E+01  0.21622374011E+01  0.51100000000E-03 0.  1.
        -12    1    3    3    0    0 -0.14732316842E+02  0.16530343682E+02  0.30334228110E+02  0.37556075631E+02  0.00000000000E+00 0.  1.
</event>
<event>
 7    1  0.2682317E-010  0.4778727E+02  0.7816164E-02  0.1312668E+00
        -11   -1    0    0    0    0  0.00000000000E+00  0.00000000000E+00  0.45593999997E+02  0.45594000000E+02  0.51100000000E-03 0. -1.
         11   -1    0    0    0    0 -0.00000000000E+00 -0.00000000000E+00 -0.45593999997E+02  0.45594000000E+02  0.51100000000E-03 0.  1.
    9900012    2    1    2    0    0  0.36050661912E+02  0.65907162009E+00 -0.24156543679E+02  0.47787271870E+02  0.20000003762E+02 0.  0.
         12    1    1    2    0    0 -0.36050661912E+02 -0.65907162009E+00  0.24156543679E+02  0.43400728130E+02  0.00000000000E+00 0. -1.
         11    1    3    3    0    0  0.26466979819E+02  0.33207582625E+01 -0.19293529816E+02  0.32920643207E+02  0.51100000000E-03 0. -1.
        -11    1    3    3    0    0  0.65093862839E+01  0.26277123609E+01  0.50388923264E-01  0.70199374178E+01  0.51100000000E-03 0.  1.
        -12    1    3    3    0    0  0.30742958099E+01 -0.52893990033E+01 -0.49134027864E+01  0.78466912443E+01  0.00000000000E+00 0.  1.
</event>
<event>
 7    1  0.2682317E-010  0.4778727E+02  0.7816164E-02  0.1312668E+00
        -11   -1    0    0    0    0  0.00000000000E+00  0.00000000000E+00  0.45593999997E+02  0.45594000000E+02  0.51100000000E-03 0.  1.
         11   -1    0    0    0    0 -0.00000000000E+00 -0.00000000000E+00 -0.45593999997E+02  0.45594000000E+02  0.51100000000E-03 0. -1.
    9900012    2    1    2    0    0  0.85398960696E+01 -0.31274246288E+02  0.28855075459E+02  0.47787266302E+02  0.19999978379E+02 0.  0.
         12    1    1    2    0    0 -0.85398960696E+01  0.31274246288E+02 -0.28855075459E+02  0.43400733698E+02  0.00000000000E+00 0. -1.
         11    1    3    3    0    0 -0.23970352673E+01 -0.58482337552E+01  0.62267530088E+01  0.88724331173E+01  0.51100000000E-03 0.  1.
        -11    1    3    3    0    0  0.57527697523E+01 -0.84193170729E-01  0.33852606574E+01  0.66754354384E+01  0.51100000000E-03 0. -1.
         12    1    3    3    0    0  0.51841615847E+01 -0.25341819362E+02  0.19243061793E+02  0.32239397747E+02  0.00000000000E+00 0. -1.
</event>
<event>
 7    1  0.2682317E-010  0.4778727E+02  0.7816164E-02  0.1312668E+00
        -11   -1    0    0    0    0  0.00000000000E+00  0.00000000000E+00  0.45593999997E+02  0.45594000000E+02  0.51100000000E-03 0. -1.
         11   -1    0    0    0    0 -0.00000000000E+00 -0.00000000000E+00 -0.45593999997E+02  0.45594000000E+02  0.51100000000E-03 0.  1.
    9900012    2    1    2    0    0 -0.23279887273E+02  0.17900638616E+02 -0.31956802144E+02  0.47787271693E+02  0.20000002958E+02 0.  0.
         12    1    1    2    0    0  0.23279887273E+02 -0.17900638616E+02  0.31956802144E+02  0.43400728307E+02  0.00000000000E+00 0. -1.
         11    1    3    3    0    0 -0.92996424028E+00 -0.23834910937E+01 -0.36605611246E+01  0.44660464944E+01  0.51100000000E-03 0. -1.
        -11    1    3    3    0    0 -0.19709114151E+01  0.95850484195E+01 -0.83025186884E+01  0.12833139205E+02  0.51100000000E-03 0.  1.
        -12    1    3    3    0    0 -0.20379011617E+02  0.10699081290E+02 -0.19993722331E+02  0.30488085994E+02  0.00000000000E+00 0.  1.
</event>
<event>
 7    1  0.2682317E-010  0.4778727E+02  0.7816164E-02  0.1312668E+00
        -11   -1    0    0    0    0  0.00000000000E+00  0.00000000000E+00  0.45593999997E+02  0.45594000000E+02  0.51100000000E-03 0.  1.
         11   -1    0    0    0    0 -0.00000000000E+00 -0.00000000000E+00 -0.45593999997E+02  0.45594000000E+02  0.51100000000E-03 0. -1.
    9900012    2    1    2    0    0  0.24807793079E+02 -0.34490340763E+02  0.88663997764E+01  0.47787271338E+02  0.20000001338E+02 0.  0.
         12    1    1    2    0    0 -0.24807793079E+02  0.34490340763E+02 -0.88663997764E+01  0.43400728662E+02  0.00000000000E+00 0. -1.
         11    1    3    3    0    0 -0.88328754321E+00  0.76500920272E+00 -0.22613260896E+01  0.25453942541E+01  0.51100000000E-03 0. -1.
        -11    1    3    3    0    0  0.31708875961E+01 -0.66988243280E+01  0.28731218029E+01  0.79488115263E+01  0.51100000000E-03 0.  1.
        -12    1    3    3    0    0  0.22520193026E+02 -0.28556525638E+02  0.82546040630E+01  0.37293065558E+02  0.00000000000E+00 0.  1.
</event>
<event>
 7    1  0.2682317E-010  0.4778727E+02  0.7816164E-02  0.1312668E+00
        -11   -1    0    0    0    0  0.00000000000E+00  0.00000000000E+00  0.45593999997E+02  0.45594000000E+02  0.51100000000E-03 0.  1.
         11   -1    0    0    0    0 -0.00000000000E+00 -0.00000000000E+00 -0.45593999997E+02  0.45594000000E+02  0.51100000000E-03 0. -1.
    9900012    2    1    2    0    0 -0.24376036274E+02  0.35908636689E+02 -0.42381909271E-01  0.47787272708E+02  0.20000007583E+02 0.  0.
         12    1    1    2    0    0  0.24376036274E+02 -0.35908636689E+02  0.42381909271E-01  0.43400727292E+02  0.00000000000E+00 0. -1.
         11    1    3    3    0    0 -0.13123054141E+02  0.10285378437E+02  0.79613755283E+00  0.16692435258E+02  0.51100000000E-03 0. -1.
        -11    1    3    3    0    0 -0.64405016119E+01  0.14679744370E+02  0.62392572515E+01  0.17201839643E+02  0.51100000000E-03 0.  1.
         12    1    3    3    0    0 -0.48124805209E+01  0.10943513882E+02 -0.70777767136E+01  0.13892997807E+02  0.00000000000E+00 0. -1.
</event>
<event>
 7    1  0.2682317E-010  0.4778728E+02  0.7816164E-02  0.1312668E+00
        -11   -1    0    0    0    0  0.00000000000E+00  0.00000000000E+00  0.45593999997E+02  0.45594000000E+02  0.51100000000E-03 0. -1.
         11   -1    0    0    0    0 -0.00000000000E+00 -0.00000000000E+00 -0.45593999997E+02  0.45594000000E+02  0.51100000000E-03 0.  1.
    9900012    2    1    2    0    0 -0.26084016239E+02 -0.34605115720E+02 -0.23943019421E+01  0.47787278590E+02  0.20000034403E+02 0.  0.
         12    1    1    2    0    0  0.26084016239E+02  0.34605115720E+02  0.23943019421E+01  0.43400721410E+02  0.00000000000E+00 0. -1.
         11    1    3    3    0    0 -0.38464035852E+01 -0.96427664239E+01  0.49909996255E+01  0.11519020895E+02  0.51100000000E-03 0. -1.
        -11    1    3    3    0    0 -0.45662745186E+01 -0.13072780876E+02 -0.54518303055E+01  0.14881898963E+02  0.51100000000E-03 0.  1.
         12    1    3    3    0    0 -0.17671338135E+02 -0.11889568420E+02 -0.19334712621E+01  0.21386358732E+02  0.00000000000E+00 0. -1.
</event>
<event>
 7    1  0.2682317E-010  0.4778722E+02  0.7816164E-02  0.1312668E+00
        -11   -1    0    0    0    0  0.00000000000E+00  0.00000000000E+00  0.45593999997E+02  0.45594000000E+02  0.51100000000E-03 0.  1.
         11   -1    0    0    0    0 -0.00000000000E+00 -0.00000000000E+00 -0.45593999997E+02  0.45594000000E+02  0.51100000000E-03 0. -1.
    9900012    2    1    2    0    0 -0.36748397618E+02  0.72594749766E+01  0.21919930608E+02  0.47787215880E+02  0.19999748480E+02 0.  0.
         12    1    1    2    0    0  0.36748397618E+02 -0.72594749766E+01 -0.21919930608E+02  0.43400784120E+02  0.00000000000E+00 0. -1.
         11    1    3    3    0    0 -0.29914281028E+02  0.51252413456E+01  0.11812329348E+02  0.32567828192E+02  0.51100000000E-03 0. -1.
        -11    1    3    3    0    0  0.23753199566E+00 -0.19116799312E+01 -0.35496348421E+00  0.19588111049E+01  0.51100000000E-03 0.  1.
        -12    1    3    3    0    0 -0.70716485850E+01  0.40459135621E+01  0.10462564744E+02  0.13260576582E+02  0.00000000000E+00 0.  1.
</event>
<event>
 7    1  0.2682317E-010  0.4778728E+02  0.7816164E-02  0.1312668E+00
        -11   -1    0    0    0    0  0.00000000000E+00  0.00000000000E+00  0.45593999997E+02  0.45594000000E+02  0.51100000000E-03 0. -1.
         11   -1    0    0    0    0 -0.00000000000E+00 -0.00000000000E+00 -0.45593999997E+02  0.45594000000E+02  0.51100000000E-03 0.  1.
    9900012    2    1    2    0    0 -0.15532734406E+02 -0.99103443821E+01 -0.39295569962E+02  0.47787279009E+02  0.20000036313E+02 0.  0.
         12    1    1    2    0    0  0.15532734406E+02  0.99103443821E+01  0.39295569962E+02  0.43400720991E+02  0.00000000000E+00 0. -1.
         11    1    3    3    0    0  0.66725783565E+00 -0.38510631367E+01 -0.14581895437E+02  0.15096608729E+02  0.51100000000E-03 0. -1.
        -11    1    3    3    0    0 -0.24058561705E+01 -0.62111426911E+01 -0.38942034711E+01  0.77156502239E+01  0.51100000000E-03 0.  1.
        -12    1    3    3    0    0 -0.13794136071E+02  0.15186144576E+00 -0.20819471054E+02  0.24975020056E+02  0.00000000000E+00 0.  1.
</event>
<event>
 7    1  0.2682317E-010  0.4778727E+02  0.7816164E-02  0.1312668E+00
        -11   -1    0    0    0    0  0.00000000000E+00  0.00000000000E+00  0.45593999997E+02  0.45594000000E+02  0.51100000000E-03 0. -1.
         11   -1    0    0    0    0 -0.00000000000E+00 -0.00000000000E+00 -0.45593999997E+02  0.45594000000E+02  0.51100000000E-03 0.  1.
    9900012    2    1    2    0    0 -0.31670224970E+02 -0.24949401654E+02 -0.16066970831E+02  0.47787270234E+02  0.19999996304E+02 0.  0.
         12    1    1    2    0    0  0.31670224970E+02  0.24949401654E+02  0.16066970831E+02  0.43400729766E+02  0.00000000000E+00 0. -1.
         11    1    3    3    0    0 -0.23317202441E+02 -0.25465775836E+02 -0.11758274229E+02  0.36475398308E+02  0.51100000000E-03 0. -1.
        -11    1    3    3    0    0 -0.20907997250E+01 -0.24367999007E+01 -0.10610276666E+00  0.32125838984E+01  0.51100000000E-03 0.  1.
         12    1    3    3    0    0 -0.62622228040E+01  0.29531740826E+01 -0.42025938359E+01  0.80992880279E+01  0.00000000000E+00 0. -1.
</event>
<event>
 7    1  0.2682317E-010  0.4778727E+02  0.7816164E-02  0.1312668E+00
        -11   -1    0    0    0    0  0.00000000000E+00  0.00000000000E+00  0.45593999997E+02  0.45594000000E+02  0.51100000000E-03 0.  1.
         11   -1    0    0    0    0 -0.00000000000E+00 -0.00000000000E+00 -0.45593999997E+02  0.45594000000E+02  0.51100000000E-03 0. -1.
    9900012    2    1    2    0    0  0.14609086843E+02 -0.35350428960E+02  0.20507195775E+02  0.47787270460E+02  0.19999997335E+02 0.  0.
         12    1    1    2    0    0 -0.14609086843E+02  0.35350428960E+02 -0.20507195775E+02  0.43400729540E+02  0.00000000000E+00 0. -1.
         11    1    3    3    0    0  0.28725054564E+01  0.12506676670E+01  0.35182607303E+00  0.31526558736E+01  0.51100000000E-03 0. -1.
        -11    1    3    3    0    0  0.19161136809E+01 -0.10735268044E+02  0.93227996818E+00  0.10944707297E+02  0.51100000000E-03 0.  1.
        -12    1    3    3    0    0  0.98204677057E+01 -0.25865828583E+02  0.19223089733E+02  0.33689907289E+02  0.00000000000E+00 0.  1.
</event>
<event>
 7    1  0.2682317E-010  0.4778726E+02  0.7816164E-02  0.1312668E+00
        -11   -1    0    0    0    0  0.00000000000E+00  0.00000000000E+00  0.45593999997E+02  0.45594000000E+02  0.51100000000E-03 0.  1.
         11   -1    0    0    0    0 -0.00000000000E+00 -0.00000000000E+00 -0.45593999997E+02  0.45594000000E+02  0.51100000000E-03 0. -1.
    9900012    2    1    2    0    0  0.26946413933E+02 -0.11877433128E+02  0.31881674627E+02  0.47787264769E+02  0.19999971386E+02 0.  0.
         12    1    1    2    0    0 -0.26946413933E+02  0.11877433128E+02 -0.31881674627E+02  0.43400735231E+02  0.00000000000E+00 0. -1.
         11    1    3    3    0    0  0.51940046968E+01 -0.24816854402E+00  0.12606787447E+02  0.13637095087E+02  0.51100000000E-03 0. -1.
        -11    1    3    3    0    0 -0.10764079879E+01 -0.15416619804E+00  0.45121711804E+01  0.46413479071E+01  0.51100000000E-03 0.  1.
        -12    1    3    3    0    0  0.22828817224E+02 -0.11475098386E+02  0.14762716000E+02  0.29508821775E+02  0.00000000000E+00 0.  1.
</event>
<event>
 7    1  0.2682317E-010  0.4778727E+02  0.7816164E-02  0.1312668E+00
        -11   -1    0    0    0    0  0.00000000000E+00  0.00000000000E+00  0.45593999997E+02  0.45594000000E+02  0.51100000000E-03 0.  1.
         11   -1    0    0    0    0 -0.00000000000E+00 -0.00000000000E+00 -0.45593999997E+02  0.45594000000E+02  0.51100000000E-03 0. -1.
    9900012    2    1    2    0    0 -0.50724477793E+01  0.41666025820E+02 -0.11037922566E+02  0.47787272256E+02  0.20000005526E+02 0.  0.
         12    1    1    2    0    0  0.50724477793E+01 -0.41666025820E+02  0.11037922566E+02  0.43400727744E+02  0.00000000000E+00 0. -1.
         11    1    3    3    0    0 -0.68173692472E+01  0.18514029508E+02 -0.15717005445E+01  0.19791817879E+02  0.51100000000E-03 0. -1.
        -11    1    3    3    0    0  0.52168908428E+00  0.20945347093E+02 -0.12224485785E+02  0.24257324200E+02  0.51100000000E-03 0.  1.
         12    1    3    3    0    0  0.12232323836E+01  0.22066492187E+01  0.27582637635E+01  0.37381301780E+01  0.00000000000E+00 0. -1.
</event>
<event>
 7    1  0.2682317E-010  0.4778727E+02  0.7816164E-02  0.1312668E+00
        -11   -1    0    0    0    0  0.00000000000E+00  0.00000000000E+00  0.45593999997E+02  0.45594000000E+02  0.51100000000E-03 0.  1.
         11   -1    0    0    0    0 -0.00000000000E+00 -0.00000000000E+00 -0.45593999997E+02  0.45594000000E+02  0.51100000000E-03 0. -1.
    9900012    2    1    2    0    0 -0.33291465375E+00  0.92700578701E+01  0.42397858048E+02  0.47787272216E+02  0.20000005344E+02 0.  0.
         12    1    1    2    0    0  0.33291465375E+00 -0.92700578701E+01 -0.42397858048E+02  0.43400727784E+02  0.00000000000E+00 0. -1.
         11    1    3    3    0    0 -0.37804483147E+01  0.10270392478E+02  0.25744659852E+02  0.27974278583E+02  0.51100000000E-03 0. -1.
        -11    1    3    3    0    0 -0.19876285681E+01  0.32224106414E+01  0.48933505712E+01  0.61870411135E+01  0.51100000000E-03 0.  1.
        -12    1    3    3    0    0  0.54351622290E+01 -0.42227452496E+01  0.11759847625E+02  0.13625952520E+02  0.00000000000E+00 0.  1.
</event>
<event>
 7    1  0.2682317E-010  0.4778727E+02  0.7816164E-02  0.1312668E+00
        -11   -1    0    0    0    0  0.00000000000E+00  0.00000000000E+00  0.45593999997E+02  0.45594000000E+02  0.51100000000E-03 0.  1.
         11   -1    0    0    0    0 -0.00000000000E+00 -0.00000000000E+00 -0.45593999997E+02  0.45594000000E+02  0.51100000000E-03 0. -1.
    9900012    2    1    2    0    0  0.17040731055E+02  0.47757515401E+01  0.39628636782E+02  0.47787272232E+02  0.20000005412E+02 0.  0.
         12    1    1    2    0    0 -0.17040731055E+02 -0.47757515401E+01 -0.39628636782E+02  0.43400727768E+02  0.00000000000E+00 0. -1.
         11    1    3    3    0    0  0.97352016493E+01  0.50581005393E+01  0.20070995894E+02  0.22873640040E+02  0.51100000000E-03 0. -1.
        -11    1    3    3    0    0 -0.14589567205E+01 -0.40157389701E+01  0.12047921559E+02  0.12783079768E+02  0.51100000000E-03 0.  1.
         12    1    3    3    0    0  0.87644861259E+01  0.37333899709E+01  0.75097193286E+01  0.12130552424E+02  0.00000000000E+00 0. -1.
</event>
<event>
 7    1  0.2682317E-010  0.4778727E+02  0.7816164E-02  0.1312668E+00
        -11   -1    0    0    0    0  0.00000000000E+00  0.00000000000E+00  0.45593999997E+02  0.45594000000E+02  0.51100000000E-03 0.  1.
         11   -1    0    0    0    0 -0.00000000000E+00 -0.00000000000E+00 -0.45593999997E+02  0.45594000000E+02  0.51100000000E-03 0. -1.
    9900012    2    1    2    0    0  0.11716404143E+02 -0.33975923901E+02  0.24330757729E+02  0.47787270713E+02  0.19999998490E+02 0.  0.
         12    1    1    2    0    0 -0.11716404143E+02  0.33975923901E+02 -0.24330757729E+02  0.43400729287E+02  0.00000000000E+00 0. -1.
         11    1    3    3    0    0  0.50044392777E+01 -0.85482996755E+01  0.69834429727E+01  0.12119666490E+02  0.51100000000E-03 0.  1.
        -11    1    3    3    0    0 -0.17202429316E+01 -0.12176620778E+01 -0.24828841224E+01  0.32567853023E+01  0.51100000000E-03 0. -1.
         12    1    3    3    0    0  0.84322077969E+01 -0.24209962148E+02  0.19830198878E+02  0.32410818920E+02  0.00000000000E+00 0. -1.
</event>
<event>
 7    1  0.2682317E-010  0.4778727E+02  0.7816164E-02  0.1312668E+00
        -11   -1    0    0    0    0  0.00000000000E+00  0.00000000000E+00  0.45593999997E+02  0.45594000000E+02  0.51100000000E-03 0. -1.
         11   -1    0    0    0    0 -0.00000000000E+00 -0.00000000000E+00 -0.45593999997E+02  0.45594000000E+02  0.51100000000E-03 0.  1.
    9900012    2    1    2    0    0  0.89557297106E+00 -0.41666914625E+02  0.12111536286E+02  0.47787272627E+02  0.20000007217E+02 0.  0.
         12    1    1    2    0    0 -0.89557297106E+00  0.41666914625E+02 -0.12111536286E+02  0.43400727373E+02  0.00000000000E+00 0. -1.
         11    1    3    3    0    0 -0.78041904366E+01 -0.75250946854E+01  0.18110950367E+01  0.10991474145E+02  0.51100000000E-03 0. -1.
        -11    1    3    3    0    0  0.11055609696E+01 -0.76578315314E+01  0.15754868438E+01  0.78959994856E+01  0.51100000000E-03 0.  1.
         12    1    3    3    0    0  0.75942024381E+01 -0.26483988408E+02  0.87249544053E+01  0.28899798996E+02  0.00000000000E+00 0. -1.
</event>
<event>
 7    1  0.2682317E-010  0.4778728E+02  0.7816164E-02  0.1312668E+00
        -11   -1    0    0    0    0  0.00000000000E+00  0.00000000000E+00  0.45593999997E+02  0.45594000000E+02  0.51100000000E-03 0.  1.
         11   -1    0    0    0    0 -0.00000000000E+00 -0.00000000000E+00 -0.45593999997E+02  0.45594000000E+02  0.51100000000E-03 0. -1.
    9900012    2    1    2    0    0  0.41915450143E+02 -0.25410124806E+01  0.10966357703E+02  0.47787277582E+02  0.20000029807E+02 0.  0.
         12    1    1    2    0    0 -0.41915450143E+02  0.25410124806E+01 -0.10966357703E+02  0.43400722418E+02  0.00000000000E+00 0. -1.
         11    1    3    3    0    0  0.41112046545E+01  0.19546160623E+01  0.30897619801E+01  0.55017412714E+01  0.51100000000E-03 0. -1.
        -11    1    3    3    0    0  0.36445518026E+02 -0.19274722744E+01  0.30135394593E+01  0.36620654744E+02  0.51100000000E-03 0.  1.
        -12    1    3    3    0    0  0.13587274627E+01 -0.25681562685E+01  0.48630562634E+01  0.56648815661E+01  0.00000000000E+00 0.  1.
</event>
<event>
 7    1  0.2682317E-010  0.4778727E+02  0.7816164E-02  0.1312668E+00
        -11   -1    0    0    0    0  0.00000000000E+00  0.00000000000E+00  0.45593999997E+02  0.45594000000E+02  0.51100000000E-03 0.  1.
         11   -1    0    0    0    0 -0.00000000000E+00 -0.00000000000E+00 -0.45593999997E+02  0.45594000000E+02  0.51100000000E-03 0. -1.
    9900012    2    1    2    0    0 -0.33627193390E+02  0.14207130288E+02  0.23473237429E+02  0.47787267728E+02  0.19999984881E+02 0.  0.
         12    1    1    2    0    0  0.33627193390E+02 -0.14207130288E+02 -0.23473237429E+02  0.43400732272E+02  0.00000000000E+00 0. -1.
         11    1    3    3    0    0 -0.72718926068E+01 -0.17866475138E+01  0.64644082226E+01  0.98924772101E+01  0.51100000000E-03 0. -1.
        -11    1    3    3    0    0 -0.15213152483E+02  0.29309551827E+01  0.31032013475E+01  0.15800644468E+02  0.51100000000E-03 0.  1.
         12    1    3    3    0    0 -0.11142148300E+02  0.13062822619E+02  0.13905627859E+02  0.22094146050E+02  0.00000000000E+00 0. -1.
</event>
<event>
 7    1  0.2682317E-010  0.4778728E+02  0.7816164E-02  0.1312668E+00
        -11   -1    0    0    0    0  0.00000000000E+00  0.00000000000E+00  0.45593999997E+02  0.45594000000E+02  0.51100000000E-03 0.  1.
         11   -1    0    0    0    0 -0.00000000000E+00 -0.00000000000E+00 -0.45593999997E+02  0.45594000000E+02  0.51100000000E-03 0. -1.
    9900012    2    1    2    0    0 -0.30892423277E+02  0.96966006146E+01  0.28900813095E+02  0.47787275617E+02  0.20000020849E+02 0.  0.
         12    1    1    2    0    0  0.30892423277E+02 -0.96966006146E+01 -0.28900813095E+02  0.43400724383E+02  0.00000000000E+00 0. -1.
         11    1    3    3    0    0 -0.79244786714E+01  0.86040792569E+01  0.15422359427E+02  0.19356567687E+02  0.51100000000E-03 0. -1.
        -11    1    3    3    0    0 -0.45090697202E+01  0.32960875388E+01  0.20624000796E+00  0.55891357120E+01  0.51100000000E-03 0.  1.
         12    1    3    3    0    0 -0.18458874886E+02 -0.22035661811E+01  0.13272213660E+02  0.22841572218E+02  0.00000000000E+00 0. -1.
</event>
<event>
 7    1  0.2682317E-010  0.4778727E+02  0.7816164E-02  0.1312668E+00
        -11   -1    0    0    0    0  0.00000000000E+00  0.00000000000E+00  0.45593999997E+02  0.45594000000E+02  0.51100000000E-03 0.  1.
         11   -1    0    0    0    0 -0.00000000000E+00 -0.00000000000E+00 -0.45593999997E+02  0.45594000000E+02  0.51100000000E-03 0. -1.
    9900012    2    1    2    0    0  0.30685999608E+02  0.14245597324E+02  0.27185574788E+02  0.47787273144E+02  0.20000009574E+02 0.  0.
         12    1    1    2    0    0 -0.30685999608E+02 -0.14245597324E+02 -0.27185574788E+02  0.43400726856E+02  0.00000000000E+00 0. -1.
         11    1    3    3    0    0  0.76140766158E+01  0.30941401245E+01  0.83108567357E+00  0.82606639854E+01  0.51100000000E-03 0. -1.
        -11    1    3    3    0    0  0.25127582107E+02  0.10524725267E+02  0.25072198666E+02  0.37024051247E+02  0.51100000000E-03 0.  1.
         12    1    3    3    0    0 -0.20556591147E+01  0.62673193246E+00  0.12822904478E+01  0.25025579121E+01  0.00000000000E+00 0. -1.
</event>
<event>
 7    1  0.2682317E-010  0.4778727E+02  0.7816164E-02  0.1312668E+00
        -11   -1    0    0    0    0  0.00000000000E+00  0.00000000000E+00  0.45593999997E+02  0.45594000000E+02  0.51100000000E-03 0.  1.
         11   -1    0    0    0    0 -0.00000000000E+00 -0.00000000000E+00 -0.45593999997E+02  0.45594000000E+02  0.51100000000E-03 0. -1.
    9900012    2    1    2    0    0 -0.20861451546E+02 -0.29002794162E+02  0.24642663680E+02  0.47787273013E+02  0.20000008974E+02 0.  0.
         12    1    1    2    0    0  0.20861451546E+02  0.29002794162E+02 -0.24642663680E+02  0.43400726987E+02  0.00000000000E+00 0. -1.
         11    1    3    3    0    0 -0.36418572167E+00 -0.14536585526E+02  0.87392200588E+01  0.16965226715E+02  0.51100000000E-03 0. -1.
        -11    1    3    3    0    0 -0.25910921365E+01 -0.58959425704E+01  0.51433575920E+01  0.82419672915E+01  0.51100000000E-03 0.  1.
        -12    1    3    3    0    0 -0.17906173688E+02 -0.85702660653E+01  0.10760086029E+02  0.22580079006E+02  0.00000000000E+00 0.  1.
</event>
<event>
 7    1  0.2682317E-010  0.4778728E+02  0.7816164E-02  0.1312668E+00
        -11   -1    0    0    0    0  0.00000000000E+00  0.00000000000E+00  0.45593999997E+02  0.45594000000E+02  0.51100000000E-03 0. -1.
         11   -1    0    0    0    0 -0.00000000000E+00 -0.00000000000E+00 -0.45593999997E+02  0.45594000000E+02  0.51100000000E-03 0.  1.
    9900012    2    1    2    0    0 -0.23314011715E+02  0.22032674841E+02 -0.29234240985E+02  0.47787277093E+02  0.20000027577E+02 0.  0.
         12    1    1    2    0    0  0.23314011715E+02 -0.22032674841E+02  0.29234240985E+02  0.43400722907E+02  0.00000000000E+00 0. -1.
         11    1    3    3    0    0 -0.73772564976E+01  0.39779573715E+01 -0.14917364016E+02  0.17110692790E+02  0.51100000000E-03 0. -1.
        -11    1    3    3    0    0  0.34683288743E+00 -0.13410820011E+01  0.32607416995E+00  0.14230666221E+01  0.51100000000E-03 0.  1.
        -12    1    3    3    0    0 -0.16283588105E+02  0.19395799471E+02 -0.14642951138E+02  0.29253517681E+02  0.00000000000E+00 0.  1.
</event>
<event>
 7    1  0.2682317E-010  0.4778727E+02  0.7816164E-02  0.1312668E+00
        -11   -1    0    0    0    0  0.00000000000E+00  0.00000000000E+00  0.45593999997E+02  0.45594000000E+02  0.51100000000E-03 0. -1.
         11   -1    0    0    0    0 -0.00000000000E+00 -0.00000000000E+00 -0.45593999997E+02  0.45594000000E+02  0.51100000000E-03 0.  1.
    9900012    2    1    2    0    0  0.33451055666E+02  0.23849528803E+02 -0.13994644479E+02  0.47787271626E+02  0.20000002653E+02 0.  0.
         12    1    1    2    0    0 -0.33451055666E+02 -0.23849528803E+02  0.13994644479E+02  0.43400728374E+02  0.00000000000E+00 0. -1.
         11    1    3    3    0    0  0.16270883230E+02  0.10516211008E+02 -0.13532544564E+02  0.23631802675E+02  0.51100000000E-03 0. -1.
        -11    1    3    3    0    0  0.90074115359E+01  0.38024229601E+01 -0.47741565145E+01  0.10880462014E+02  0.51100000000E-03 0.  1.
        -12    1    3    3    0    0  0.81727609002E+01  0.95308948346E+01  0.43120565993E+01  0.13275006938E+02  0.00000000000E+00 0.  1.
</event>
<event>
 7    1  0.2682317E-010  0.4778727E+02  0.7816164E-02  0.1312668E+00
        -11   -1    0    0    0    0  0.00000000000E+00  0.00000000000E+00  0.45593999997E+02  0.45594000000E+02  0.51100000000E-03 0.  1.
         11   -1    0    0    0    0 -0.00000000000E+00 -0.00000000000E+00 -0.45593999997E+02  0.45594000000E+02  0.51100000000E-03 0. -1.
    9900012    2    1    2    0    0  0.37624496538E+02  0.90346929877E+01  0.19656927242E+02  0.47787271829E+02  0.20000003579E+02 0.  0.
         12    1    1    2    0    0 -0.37624496538E+02 -0.90346929877E+01 -0.19656927242E+02  0.43400728171E+02  0.00000000000E+00 0. -1.
         11    1    3    3    0    0  0.11028832089E+02  0.65594479329E+00  0.10475654358E+02  0.15225134985E+02  0.51100000000E-03 0. -1.
        -11    1    3    3    0    0  0.81668192576E+00 -0.27159731632E+01 -0.48859015910E+00  0.28778811991E+01  0.51100000000E-03 0.  1.
        -12    1    3    3    0    0  0.25778982523E+02  0.11094721358E+02  0.96698630433E+01  0.29684255645E+02  0.00000000000E+00 0.  1.
</event>
<event>
 7    1  0.2682317E-010  0.4778724E+02  0.7816164E-02  0.1312668E+00
        -11   -1    0    0    0    0  0.00000000000E+00  0.00000000000E+00  0.45593999997E+02  0.45594000000E+02  0.51100000000E-03 0.  1.
         11   -1    0    0    0    0 -0.00000000000E+00 -0.00000000000E+00 -0.45593999997E+02  0.45594000000E+02  0.51100000000E-03 0. -1.
    9900012    2    1    2    0    0 -0.92851423320E+01 -0.23177705341E+02  0.35499383738E+02  0.47787238039E+02  0.19999849513E+02 0.  0.
         12    1    1    2    0    0  0.92851423320E+01  0.23177705341E+02 -0.35499383738E+02  0.43400761961E+02  0.00000000000E+00 0. -1.
         11    1    3    3    0    0 -0.11653623624E+02 -0.19377632994E+02  0.32380381332E+02  0.39494160321E+02  0.51100000000E-03 0. -1.
        -11    1    3    3    0    0 -0.11464403766E+01 -0.34438778773E+01  0.76273320805E-01  0.36304873297E+01  0.51100000000E-03 0.  1.
        -12    1    3    3    0    0  0.35149216684E+01 -0.35619447004E+00  0.30427290857E+01  0.46625903878E+01  0.00000000000E+00 0.  1.
</event>
<event>
 7    1  0.2682317E-010  0.4778727E+02  0.7816164E-02  0.1312668E+00
        -11   -1    0    0    0    0  0.00000000000E+00  0.00000000000E+00  0.45593999997E+02  0.45594000000E+02  0.51100000000E-03 0.  1.
         11   -1    0    0    0    0 -0.00000000000E+00 -0.00000000000E+00 -0.45593999997E+02  0.45594000000E+02  0.51100000000E-03 0. -1.
    9900012    2    1    2    0    0 -0.23813372188E+02  0.23814147720E+02  0.27375770732E+02  0.47787272474E+02  0.20000006520E+02 0.  0.
         12    1    1    2    0    0  0.23813372188E+02 -0.23814147720E+02 -0.27375770732E+02  0.43400727526E+02  0.00000000000E+00 0. -1.
         11    1    3    3    0    0 -0.28473489106E+01 -0.48598420099E+00  0.23020829412E+01  0.36936651976E+01  0.51100000000E-03 0. -1.
        -11    1    3    3    0    0 -0.18869289415E+01  0.12903448798E+02  0.44620116754E+01  0.13782925675E+02  0.51100000000E-03 0.  1.
        -12    1    3    3    0    0 -0.19079094336E+02  0.11396683123E+02  0.20611676115E+02  0.30310681602E+02  0.00000000000E+00 0.  1.
</event>
<event>
 7    1  0.2682317E-010  0.4778727E+02  0.7816164E-02  0.1312668E+00
        -11   -1    0    0    0    0  0.00000000000E+00  0.00000000000E+00  0.45593999997E+02  0.45594000000E+02  0.51100000000E-03 0.  1.
         11   -1    0    0    0    0 -0.00000000000E+00 -0.00000000000E+00 -0.45593999997E+02  0.45594000000E+02  0.51100000000E-03 0. -1.
    9900012    2    1    2    0    0 -0.24248596631E+02 -0.15094932685E+01  0.35963177930E+02  0.47787272179E+02  0.20000005174E+02 0.  0.
         12    1    1    2    0    0  0.24248596631E+02  0.15094932685E+01 -0.35963177930E+02  0.43400727821E+02  0.00000000000E+00 0. -1.
         11    1    3    3    0    0 -0.10233238867E+01  0.37328540485E+01  0.32822299335E+01  0.50748817446E+01  0.51100000000E-03 0. -1.
        -11    1    3    3    0    0 -0.11877550351E+02  0.41172412549E+01  0.17770402640E+02  0.21767294001E+02  0.51100000000E-03 0.  1.
         12    1    3    3    0    0 -0.11347722393E+02 -0.93595885720E+01  0.14910545357E+02  0.20945096433E+02  0.00000000000E+00 0. -1.
</event>
<event>
 7    1  0.2682317E-010  0.4778732E+02  0.7816164E-02  0.1312668E+00
        -11   -1    0    0    0    0  0.00000000000E+00  0.00000000000E+00  0.45593999997E+02  0.45594000000E+02  0.51100000000E-03 0. -1.
         11   -1    0    0    0    0 -0.00000000000E+00 -0.00000000000E+00 -0.45593999997E+02  0.45594000000E+02  0.51100000000E-03 0.  1.
    9900012    2    1    2    0    0  0.29432173470E+02  0.18869274843E+02 -0.25716079289E+02  0.47787319104E+02  0.20000219121E+02 0.  0.
         12    1    1    2    0    0 -0.29432173470E+02 -0.18869274843E+02  0.25716079289E+02  0.43400680896E+02  0.00000000000E+00 0. -1.
         11    1    3    3    0    0  0.13902700586E+02  0.11977263829E+02 -0.86969474456E+01  0.20307063489E+02  0.51100000000E-03 0. -1.
        -11    1    3    3    0    0  0.16987738545E+02  0.86205193415E+01 -0.16396906001E+02  0.25134739729E+02  0.51100000000E-03 0.  1.
        -12    1    3    3    0    0 -0.14582656609E+01 -0.17285083266E+01 -0.62222584192E+00  0.23455158860E+01  0.00000000000E+00 0.  1.
</event>
<event>
 7    1  0.2682317E-010  0.4778727E+02  0.7816164E-02  0.1312668E+00
        -11   -1    0    0    0    0  0.00000000000E+00  0.00000000000E+00  0.45593999997E+02  0.45594000000E+02  0.51100000000E-03 0. -1.
         11   -1    0    0    0    0 -0.00000000000E+00 -0.00000000000E+00 -0.45593999997E+02  0.45594000000E+02  0.51100000000E-03 0.  1.
    9900012    2    1    2    0    0 -0.40051853998E+02  0.16345668764E+02 -0.35058904379E+01  0.47787272313E+02  0.20000005783E+02 0.  0.
         12    1    1    2    0    0  0.40051853998E+02 -0.16345668764E+02  0.35058904379E+01  0.43400727687E+02  0.00000000000E+00 0. -1.
         11    1    3    3    0    0 -0.12269783084E+02  0.58522979435E+01  0.72884547292E+01  0.15424608285E+02  0.51100000000E-03 0. -1.
        -11    1    3    3    0    0 -0.33279485478E+01 -0.57481587134E+00 -0.27078436014E+01  0.43287494792E+01  0.51100000000E-03 0.  1.
         12    1    3    3    0    0 -0.24454122367E+02  0.11068186692E+02 -0.80865015657E+01  0.28033914549E+02  0.00000000000E+00 0. -1.
</event>
<event>
 7    1  0.2682317E-010  0.4778729E+02  0.7816164E-02  0.1312668E+00
        -11   -1    0    0    0    0  0.00000000000E+00  0.00000000000E+00  0.45593999997E+02  0.45594000000E+02  0.51100000000E-03 0. -1.
         11   -1    0    0    0    0 -0.00000000000E+00 -0.00000000000E+00 -0.45593999997E+02  0.45594000000E+02  0.51100000000E-03 0.  1.
    9900012    2    1    2    0    0  0.43101809464E+01  0.40606664419E+02 -0.14701792274E+02  0.47787290891E+02  0.20000090489E+02 0.  0.
         12    1    1    2    0    0 -0.43101809464E+01 -0.40606664419E+02  0.14701792274E+02  0.43400709109E+02  0.00000000000E+00 0. -1.
         11    1    3    3    0    0 -0.18774417951E+01 -0.94971582923E+00  0.10897187531E+00  0.21068039730E+01  0.51100000000E-03 0. -1.
        -11    1    3    3    0    0 -0.23520610292E+01  0.17995229107E+02 -0.59328078485E+01  0.19093419572E+02  0.51100000000E-03 0.  1.
        -12    1    3    3    0    0  0.85396837707E+01  0.23561151141E+02 -0.88779563009E+01  0.26587067347E+02  0.00000000000E+00 0.  1.
</event>
<event>
 7    1  0.2682317E-010  0.4778727E+02  0.7816164E-02  0.1312668E+00
        -11   -1    0    0    0    0  0.00000000000E+00  0.00000000000E+00  0.45593999997E+02  0.45594000000E+02  0.51100000000E-03 0.  1.
         11   -1    0    0    0    0 -0.00000000000E+00 -0.00000000000E+00 -0.45593999997E+02  0.45594000000E+02  0.51100000000E-03 0. -1.
    9900012    2    1    2    0    0  0.34959823565E+02 -0.23070076386E+02 -0.11366867945E+02  0.47787269880E+02  0.19999994689E+02 0.  0.
         12    1    1    2    0    0 -0.34959823565E+02  0.23070076386E+02  0.11366867945E+02  0.43400730120E+02  0.00000000000E+00 0. -1.
         11    1    3    3    0    0  0.65100598429E-01 -0.49063922856E+01 -0.36751752982E+01  0.61305658043E+01  0.51100000000E-03 0. -1.
        -11    1    3    3    0    0  0.91835337312E+01 -0.74817817759E+01  0.23181437381E+01  0.12070134257E+02  0.51100000000E-03 0.  1.
        -12    1    3    3    0    0  0.25711189235E+02 -0.10681902324E+02 -0.10009836385E+02  0.29586569818E+02  0.00000000000E+00 0.  1.
</event>
<event>
 7    1  0.2682317E-010  0.4778727E+02  0.7816164E-02  0.1312668E+00
        -11   -1    0    0    0    0  0.00000000000E+00  0.00000000000E+00  0.45593999997E+02  0.45594000000E+02  0.51100000000E-03 0. -1.
         11   -1    0    0    0    0 -0.00000000000E+00 -0.00000000000E+00 -0.45593999997E+02  0.45594000000E+02  0.51100000000E-03 0.  1.
    9900012    2    1    2    0    0 -0.30634964886E+02 -0.76485563101E+01 -0.29776195559E+02  0.47787270638E+02  0.19999998146E+02 0.  0.
         12    1    1    2    0    0  0.30634964886E+02  0.76485563101E+01  0.29776195559E+02  0.43400729362E+02  0.00000000000E+00 0. -1.
         11    1    3    3    0    0 -0.22167633067E+01 -0.37913231544E+01 -0.10219798738E+01  0.45091699837E+01  0.51100000000E-03 0. -1.
        -11    1    3    3    0    0 -0.28777329443E+01 -0.29999436180E+01 -0.12052993437E+02  0.12749731748E+02  0.51100000000E-03 0.  1.
         12    1    3    3    0    0 -0.25540468635E+02 -0.85728953773E+00 -0.16701222249E+02  0.30528368906E+02  0.00000000000E+00 0. -1.
</event>
<event>
 7    1  0.2682317E-010  0.4778726E+02  0.7816164E-02  0.1312668E+00
        -11   -1    0    0    0    0  0.00000000000E+00  0.00000000000E+00  0.45593999997E+02  0.45594000000E+02  0.51100000000E-03 0. -1.
         11   -1    0    0    0    0 -0.00000000000E+00 -0.00000000000E+00 -0.45593999997E+02  0.45594000000E+02  0.51100000000E-03 0.  1.
    9900012    2    1    2    0    0 -0.29410124734E+02 -0.29151627214E+02  0.12994286257E+02  0.47787259437E+02  0.19999947076E+02 0.  0.
         12    1    1    2    0    0  0.29410124734E+02  0.29151627214E+02 -0.12994286257E+02  0.43400740563E+02  0.00000000000E+00 0. -1.
         11    1    3    3    0    0  0.23515002017E+00 -0.44028494664E+00 -0.16837258671E+01  0.17561547264E+01  0.51100000000E-03 0. -1.
        -11    1    3    3    0    0 -0.21465775524E+02 -0.15559719029E+02  0.30968732688E+01  0.26692227322E+02  0.51100000000E-03 0.  1.
         12    1    3    3    0    0 -0.81794992303E+01 -0.13151623237E+02  0.11581138855E+02  0.19338877388E+02  0.00000000000E+00 0. -1.
</event>
<event>
 7    1  0.2682317E-010  0.4778727E+02  0.7816164E-02  0.1312668E+00
        -11   -1    0    0    0    0  0.00000000000E+00  0.00000000000E+00  0.45593999997E+02  0.45594000000E+02  0.51100000000E-03 0.  1.
         11   -1    0    0    0    0 -0.00000000000E+00 -0.00000000000E+00 -0.45593999997E+02  0.45594000000E+02  0.51100000000E-03 0. -1.
    9900012    2    1    2    0    0 -0.62483899279E+01 -0.10130195626E+02  0.41736794687E+02  0.47787271079E+02  0.20000000158E+02 0.  0.
         12    1    1    2    0    0  0.62483899279E+01  0.10130195626E+02 -0.41736794687E+02  0.43400728921E+02  0.00000000000E+00 0. -1.
         11    1    3    3    0    0  0.12399650966E+01  0.21231825435E+01  0.50422127532E+01  0.56097528701E+01  0.51100000000E-03 0. -1.
        -11    1    3    3    0    0  0.26454976898E+01 -0.85233814150E+01  0.10121457785E+02  0.13494094884E+02  0.51100000000E-03 0.  1.
        -12    1    3    3    0    0 -0.10133852714E+02 -0.37299967544E+01  0.26573124149E+02  0.28683423325E+02  0.00000000000E+00 0.  1.
</event>
<event>
 7    1  0.2682317E-010  0.4778727E+02  0.7816164E-02  0.1312668E+00
        -11   -1    0    0    0    0  0.00000000000E+00  0.00000000000E+00  0.45593999997E+02  0.45594000000E+02  0.51100000000E-03 0.  1.
         11   -1    0    0    0    0 -0.00000000000E+00 -0.00000000000E+00 -0.45593999997E+02  0.45594000000E+02  0.51100000000E-03 0. -1.
    9900012    2    1    2    0    0  0.15080887775E+02  0.37866282303E+02  0.14910897288E+02  0.47787269943E+02  0.19999994978E+02 0.  0.
         12    1    1    2    0    0 -0.15080887775E+02 -0.37866282303E+02 -0.14910897288E+02  0.43400730057E+02  0.00000000000E+00 0. -1.
         11    1    3    3    0    0  0.94600638453E+01  0.41749121007E+01  0.42916435778E+01  0.11195575191E+02  0.51100000000E-03 0. -1.
        -11    1    3    3    0    0  0.48180704902E+01  0.83222288881E+01  0.23856677844E+01  0.99078104520E+01  0.51100000000E-03 0.  1.
        -12    1    3    3    0    0  0.80275343905E+00  0.25369141315E+02  0.82335859255E+01  0.26683884300E+02  0.00000000000E+00 0.  1.
</event>
<event>
 7    1  0.2682317E-010  0.4778727E+02  0.7816164E-02  0.1312668E+00
        -11   -1    0    0    0    0  0.00000000000E+00  0.00000000000E+00  0.45593999997E+02  0.45594000000E+02  0.51100000000E-03 0.  1.
         11   -1    0    0    0    0 -0.00000000000E+00 -0.00000000000E+00 -0.45593999997E+02  0.45594000000E+02  0.51100000000E-03 0. -1.
    9900012    2    1    2    0    0 -0.30204323736E+02 -0.10093362119E+02  0.29486372457E+02  0.47787270837E+02  0.19999999054E+02 0.  0.
         12    1    1    2    0    0  0.30204323736E+02  0.10093362119E+02 -0.29486372457E+02  0.43400729163E+02  0.00000000000E+00 0. -1.
         11    1    3    3    0    0 -0.14671190578E+02 -0.76618584359E+01  0.18943470242E+02  0.25155575380E+02  0.51100000000E-03 0. -1.
        -11    1    3    3    0    0 -0.14870616198E+02 -0.25040067005E+01  0.13108501838E+02  0.19980943330E+02  0.51100000000E-03 0.  1.
         12    1    3    3    0    0 -0.66251696058E+00  0.72503017241E-01 -0.25655996229E+01  0.26507521264E+01  0.00000000000E+00 0. -1.
</event>
<event>
 7    1  0.2682317E-010  0.4778727E+02  0.7816164E-02  0.1312668E+00
        -11   -1    0    0    0    0  0.00000000000E+00  0.00000000000E+00  0.45593999997E+02  0.45594000000E+02  0.51100000000E-03 0.  1.
         11   -1    0    0    0    0 -0.00000000000E+00 -0.00000000000E+00 -0.45593999997E+02  0.45594000000E+02  0.51100000000E-03 0. -1.
    9900012    2    1    2    0    0  0.14608958365E+02  0.25879282659E+02  0.31630117173E+02  0.47787271345E+02  0.20000001368E+02 0.  0.
         12    1    1    2    0    0 -0.14608958365E+02 -0.25879282659E+02 -0.31630117173E+02  0.43400728655E+02  0.00000000000E+00 0. -1.
         11    1    3    3    0    0  0.32228063432E+00  0.70052652718E+01  0.12424726807E+01  0.71218919508E+01  0.51100000000E-03 0. -1.
        -11    1    3    3    0    0 -0.66954043649E+00  0.57749382765E+01  0.13048762769E+02  0.14285251364E+02  0.51100000000E-03 0.  1.
        -12    1    3    3    0    0  0.14956218167E+02  0.13099079111E+02  0.17338881723E+02  0.26380128029E+02  0.00000000000E+00 0.  1.
</event>
<event>
 7    1  0.2682317E-010  0.4778727E+02  0.7816164E-02  0.1312668E+00
        -11   -1    0    0    0    0  0.00000000000E+00  0.00000000000E+00  0.45593999997E+02  0.45594000000E+02  0.51100000000E-03 0. -1.
         11   -1    0    0    0    0 -0.00000000000E+00 -0.00000000000E+00 -0.45593999997E+02  0.45594000000E+02  0.51100000000E-03 0.  1.
    9900012    2    1    2    0    0  0.92074900771E+01  0.99875118101E+01 -0.41220080057E+02  0.47787271140E+02  0.20000000435E+02 0.  0.
         12    1    1    2    0    0 -0.92074900771E+01 -0.99875118101E+01  0.41220080057E+02  0.43400728860E+02  0.00000000000E+00 0. -1.
         11    1    3    3    0    0  0.50388611196E+01  0.95174708117E+01 -0.97481335637E+01  0.14525786735E+02  0.51100000000E-03 0. -1.
        -11    1    3    3    0    0  0.10940729036E+01  0.37123121347E+01 -0.45592601464E+01  0.59803938204E+01  0.51100000000E-03 0.  1.
        -12    1    3    3    0    0  0.30745560539E+01 -0.32422711363E+01 -0.26912686347E+02  0.27281090584E+02  0.00000000000E+00 0.  1.
</event>
<event>
 7    1  0.2682317E-010  0.4778727E+02  0.7816164E-02  0.1312668E+00
        -11   -1    0    0    0    0  0.00000000000E+00  0.00000000000E+00  0.45593999997E+02  0.45594000000E+02  0.51100000000E-03 0. -1.
         11   -1    0    0    0    0 -0.00000000000E+00 -0.00000000000E+00 -0.45593999997E+02  0.45594000000E+02  0.51100000000E-03 0.  1.
    9900012    2    1    2    0    0 -0.22321235522E+02 -0.15366111814E+02 -0.33900860006E+02  0.47787271243E+02  0.20000000905E+02 0.  0.
         12    1    1    2    0    0  0.22321235522E+02  0.15366111814E+02  0.33900860006E+02  0.43400728757E+02  0.00000000000E+00 0. -1.
         11    1    3    3    0    0 -0.19901013463E+02 -0.14591053614E+02 -0.19734705061E+02  0.31597591150E+02  0.51100000000E-03 0. -1.
        -11    1    3    3    0    0 -0.47180306565E+01 -0.20908949303E+01 -0.86867639709E+01  0.10104035007E+02  0.51100000000E-03 0.  1.
         12    1    3    3    0    0  0.22978085975E+01  0.13158367305E+01 -0.54793909743E+01  0.60856450850E+01  0.00000000000E+00 0. -1.
</event>
<event>
 7    1  0.2682317E-010  0.4778727E+02  0.7816164E-02  0.1312668E+00
        -11   -1    0    0    0    0  0.00000000000E+00  0.00000000000E+00  0.45593999997E+02  0.45594000000E+02  0.51100000000E-03 0. -1.
         11   -1    0    0    0    0 -0.00000000000E+00 -0.00000000000E+00 -0.45593999997E+02  0.45594000000E+02  0.51100000000E-03 0.  1.
    9900012    2    1    2    0    0  0.17958558941E+02 -0.33935408395E+02  0.20236144241E+02  0.47787270560E+02  0.19999997793E+02 0.  0.
         12    1    1    2    0    0 -0.17958558941E+02  0.33935408395E+02 -0.20236144241E+02  0.43400729440E+02  0.00000000000E+00 0. -1.
         11    1    3    3    0    0 -0.16426119269E+01 -0.26779040763E+01  0.26696699148E+01  0.41226789712E+01  0.51100000000E-03 0. -1.
        -11    1    3    3    0    0  0.88501241837E+01 -0.17259410234E+02  0.94388570518E+00  0.19419136442E+02  0.51100000000E-03 0.  1.
         12    1    3    3    0    0  0.10751046684E+02 -0.13998094085E+02  0.16622588621E+02  0.24245455147E+02  0.00000000000E+00 0. -1.
</event>
<event>
 7    1  0.2682317E-010  0.4778727E+02  0.7816164E-02  0.1312668E+00
        -11   -1    0    0    0    0  0.00000000000E+00  0.00000000000E+00  0.45593999997E+02  0.45594000000E+02  0.51100000000E-03 0.  1.
         11   -1    0    0    0    0 -0.00000000000E+00 -0.00000000000E+00 -0.45593999997E+02  0.45594000000E+02  0.51100000000E-03 0. -1.
    9900012    2    1    2    0    0 -0.90474396236E+00 -0.43365806513E+02 -0.14871956350E+01  0.47787268589E+02  0.19999988803E+02 0.  0.
         12    1    1    2    0    0  0.90474396236E+00  0.43365806513E+02  0.14871956350E+01  0.43400731411E+02  0.00000000000E+00 0. -1.
         11    1    3    3    0    0 -0.21360078708E+01 -0.16479564328E+02  0.89206634467E-01  0.16617657120E+02  0.51100000000E-03 0. -1.
        -11    1    3    3    0    0  0.64624142415E+01 -0.24518147859E+02 -0.18329761941E+01  0.25421687085E+02  0.51100000000E-03 0.  1.
         12    1    3    3    0    0 -0.52311503331E+01 -0.23680943266E+01  0.25657392459E+00  0.57479243841E+01  0.00000000000E+00 0. -1.
</event>
<event>
 7    1  0.2682317E-010  0.4778729E+02  0.7816164E-02  0.1312668E+00
        -11   -1    0    0    0    0  0.00000000000E+00  0.00000000000E+00  0.45593999997E+02  0.45594000000E+02  0.51100000000E-03 0.  1.
         11   -1    0    0    0    0 -0.00000000000E+00 -0.00000000000E+00 -0.45593999997E+02  0.45594000000E+02  0.51100000000E-03 0. -1.
    9900012    2    1    2    0    0  0.86399662775E+00  0.17947238316E+02  0.39506608316E+02  0.47787286250E+02  0.20000069329E+02 0.  0.
         12    1    1    2    0    0 -0.86399662775E+00 -0.17947238316E+02 -0.39506608316E+02  0.43400713750E+02  0.00000000000E+00 0. -1.
         11    1    3    3    0    0 -0.31851243948E+01  0.20011868355E+01  0.12928001336E+02  0.13464136993E+02  0.51100000000E-03 0. -1.
        -11    1    3    3    0    0  0.45927879866E+01  0.75241135240E+00  0.13461438379E+02  0.14243249202E+02  0.51100000000E-03 0.  1.
        -12    1    3    3    0    0 -0.54366696405E+00  0.15193640128E+02  0.13117168601E+02  0.20079900055E+02  0.00000000000E+00 0.  1.
</event>
<event>
 7    1  0.2682317E-010  0.4778727E+02  0.7816164E-02  0.1312668E+00
        -11   -1    0    0    0    0  0.00000000000E+00  0.00000000000E+00  0.45593999997E+02  0.45594000000E+02  0.51100000000E-03 0.  1.
         11   -1    0    0    0    0 -0.00000000000E+00 -0.00000000000E+00 -0.45593999997E+02  0.45594000000E+02  0.51100000000E-03 0. -1.
    9900012    2    1    2    0    0 -0.13611129863E+02 -0.98482641604E+01  0.40017147022E+02  0.47787271678E+02  0.20000002887E+02 0.  0.
         12    1    1    2    0    0  0.13611129863E+02  0.98482641604E+01 -0.40017147022E+02  0.43400728322E+02  0.00000000000E+00 0. -1.
         11    1    3    3    0    0 -0.26712185135E+01 -0.23696473136E+01  0.12898030155E+01  0.37966075407E+01  0.51100000000E-03 0. -1.
        -11    1    3    3    0    0 -0.61304959629E+01 -0.12157828758E+02  0.30295838457E+02  0.33214960619E+02  0.51100000000E-03 0.  1.
         12    1    3    3    0    0 -0.48094153867E+01  0.46792119110E+01  0.84315055501E+01  0.10775703518E+02  0.00000000000E+00 0. -1.
</event>
<event>
 7    1  0.2682317E-010  0.4778726E+02  0.7816164E-02  0.1312668E+00
        -11   -1    0    0    0    0  0.00000000000E+00  0.00000000000E+00  0.45593999997E+02  0.45594000000E+02  0.51100000000E-03 0.  1.
         11   -1    0    0    0    0 -0.00000000000E+00 -0.00000000000E+00 -0.45593999997E+02  0.45594000000E+02  0.51100000000E-03 0. -1.
    9900012    2    1    2    0    0 -0.26186959617E+02  0.91335363366E+01  0.33383318190E+02  0.47787259529E+02  0.19999947498E+02 0.  0.
         12    1    1    2    0    0  0.26186959617E+02 -0.91335363366E+01 -0.33383318190E+02  0.43400740471E+02  0.00000000000E+00 0. -1.
         11    1    3    3    0    0  0.65523436210E-01 -0.17452707359E+01  0.37797395929E+01  0.41637356921E+01  0.51100000000E-03 0. -1.
        -11    1    3    3    0    0 -0.59436679061E+01 -0.18306644540E+01  0.13189303816E+02  0.14582052528E+02  0.51100000000E-03 0.  1.
        -12    1    3    3    0    0 -0.20308815148E+02  0.12709471527E+02  0.16414274781E+02  0.29041471309E+02  0.00000000000E+00 0.  1.
</event>
<event>
 7    1  0.2682317E-010  0.4778727E+02  0.7816164E-02  0.1312668E+00
        -11   -1    0    0    0    0  0.00000000000E+00  0.00000000000E+00  0.45593999997E+02  0.45594000000E+02  0.51100000000E-03 0. -1.
         11   -1    0    0    0    0 -0.00000000000E+00 -0.00000000000E+00 -0.45593999997E+02  0.45594000000E+02  0.51100000000E-03 0.  1.
    9900012    2    1    2    0    0  0.26755246031E+02  0.26868321441E+02  0.21115715280E+02  0.47787270525E+02  0.19999997630E+02 0.  0.
         12    1    1    2    0    0 -0.26755246031E+02 -0.26868321441E+02 -0.21115715280E+02  0.43400729475E+02  0.00000000000E+00 0. -1.
         11    1    3    3    0    0  0.89720503287E-01  0.33892476975E+01  0.13131048271E+01  0.36358347421E+01  0.51100000000E-03 0. -1.
        -11    1    3    3    0    0  0.42308837153E+01  0.14118872734E+02  0.44337312792E+01  0.15391585936E+02  0.51100000000E-03 0.  1.
         12    1    3    3    0    0  0.22434641812E+02  0.93602010091E+01  0.15368879174E+02  0.28759849847E+02  0.00000000000E+00 0. -1.
</event>
<event>
 7    1  0.2682317E-010  0.4778727E+02  0.7816164E-02  0.1312668E+00
        -11   -1    0    0    0    0  0.00000000000E+00  0.00000000000E+00  0.45593999997E+02  0.45594000000E+02  0.51100000000E-03 0. -1.
         11   -1    0    0    0    0 -0.00000000000E+00 -0.00000000000E+00 -0.45593999997E+02  0.45594000000E+02  0.51100000000E-03 0.  1.
    9900012    2    1    2    0    0  0.33033883734E+01 -0.13482244560E+01 -0.43253820418E+02  0.47787273454E+02  0.20000010986E+02 0.  0.
         12    1    1    2    0    0 -0.33033883734E+01  0.13482244560E+01  0.43253820418E+02  0.43400726546E+02  0.00000000000E+00 0. -1.
         11    1    3    3    0    0 -0.24090337851E+01  0.25387853469E+01 -0.97986061182E+01  0.10404881399E+02  0.51100000000E-03 0. -1.
        -11    1    3    3    0    0 -0.46573335067E+01 -0.42396317722E+01 -0.13096253690E+02  0.14531933592E+02  0.51100000000E-03 0.  1.
        -12    1    3    3    0    0  0.10369755665E+02  0.35262196934E+00 -0.20358960610E+02  0.22850458462E+02  0.00000000000E+00 0.  1.
</event>
<event>
 7    1  0.2682317E-010  0.4778728E+02  0.7816164E-02  0.1312668E+00
        -11   -1    0    0    0    0  0.00000000000E+00  0.00000000000E+00  0.45593999997E+02  0.45594000000E+02  0.51100000000E-03 0.  1.
         11   -1    0    0    0    0 -0.00000000000E+00 -0.00000000000E+00 -0.45593999997E+02  0.45594000000E+02  0.51100000000E-03 0. -1.
    9900012    2    1    2    0    0 -0.38223702506E+02 -0.40740762147E+01  0.20148776959E+02  0.47787277158E+02  0.20000027873E+02 0.  0.
         12    1    1    2    0    0  0.38223702506E+02  0.40740762147E+01 -0.20148776959E+02  0.43400722842E+02  0.00000000000E+00 0. -1.
         11    1    3    3    0    0 -0.15686107951E+02  0.42363317008E+00  0.48793961775E+01  0.16432953327E+02  0.51100000000E-03 0. -1.
        -11    1    3    3    0    0 -0.16574212043E+02  0.25252994916E+01  0.14398919699E+02  0.22100012016E+02  0.51100000000E-03 0.  1.
        -12    1    3    3    0    0 -0.59633825124E+01 -0.70230088763E+01  0.87046108218E+00  0.92543118146E+01  0.00000000000E+00 0.  1.
</event>
<event>
 7    1  0.2682317E-010  0.4778727E+02  0.7816164E-02  0.1312668E+00
        -11   -1    0    0    0    0  0.00000000000E+00  0.00000000000E+00  0.45593999997E+02  0.45594000000E+02  0.51100000000E-03 0.  1.
         11   -1    0    0    0    0 -0.00000000000E+00 -0.00000000000E+00 -0.45593999997E+02  0.45594000000E+02  0.51100000000E-03 0. -1.
    9900012    2    1    2    0    0  0.37774335093E+02 -0.21341264025E+02  0.11285139289E+01  0.47787268605E+02  0.19999988878E+02 0.  0.
         12    1    1    2    0    0 -0.37774335093E+02  0.21341264025E+02 -0.11285139289E+01  0.43400731395E+02  0.00000000000E+00 0. -1.
         11    1    3    3    0    0  0.17163306001E+01 -0.36918739254E+01  0.61367979050E+00  0.41173203611E+01  0.51100000000E-03 0. -1.
        -11    1    3    3    0    0  0.21926023097E+02 -0.24629623177E+01 -0.40410022244E+01  0.22430924445E+02  0.51100000000E-03 0.  1.
        -12    1    3    3    0    0  0.14131981396E+02 -0.15186427782E+02  0.45558363628E+01  0.21239023799E+02  0.00000000000E+00 0.  1.
</event>
<event>
 7    1  0.2682317E-010  0.4778727E+02  0.7816164E-02  0.1312668E+00
        -11   -1    0    0    0    0  0.00000000000E+00  0.00000000000E+00  0.45593999997E+02  0.45594000000E+02  0.51100000000E-03 0. -1.
         11   -1    0    0    0    0 -0.00000000000E+00 -0.00000000000E+00 -0.45593999997E+02  0.45594000000E+02  0.51100000000E-03 0.  1.
    9900012    2    1    2    0    0  0.42427689573E+02  0.87208368535E+01 -0.27315437506E+01  0.47787272250E+02  0.20000005497E+02 0.  0.
         12    1    1    2    0    0 -0.42427689573E+02 -0.87208368535E+01  0.27315437506E+01  0.43400727750E+02  0.00000000000E+00 0. -1.
         11    1    3    3    0    0  0.45246321666E+01 -0.24345788189E+01 -0.45770092399E+01  0.68810234785E+01  0.51100000000E-03 0. -1.
        -11    1    3    3    0    0  0.12648777123E+02  0.74370722009E+01 -0.28609132149E+01  0.14949462543E+02  0.51100000000E-03 0.  1.
         12    1    3    3    0    0  0.25254280283E+02  0.37183434715E+01  0.47063787042E+01  0.25956786228E+02  0.00000000000E+00 0. -1.
</event>
<event>
 7    1  0.2682317E-010  0.4778732E+02  0.7816164E-02  0.1312668E+00
        -11   -1    0    0    0    0  0.00000000000E+00  0.00000000000E+00  0.45593999997E+02  0.45594000000E+02  0.51100000000E-03 0. -1.
         11   -1    0    0    0    0 -0.00000000000E+00 -0.00000000000E+00 -0.45593999997E+02  0.45594000000E+02  0.51100000000E-03 0.  1.
    9900012    2    1    2    0    0 -0.18732615144E+02  0.18983358402E+02 -0.34239458607E+02  0.47787316917E+02  0.20000209151E+02 0.  0.
         12    1    1    2    0    0  0.18732615144E+02 -0.18983358402E+02  0.34239458607E+02  0.43400683083E+02  0.00000000000E+00 0. -1.
         11    1    3    3    0    0 -0.42276566296E+00 -0.10289695122E+00  0.29959175917E+00  0.52827461763E+00  0.51100000000E-03 0. -1.
        -11    1    3    3    0    0 -0.38704295159E+00 -0.12691524088E+01 -0.11777515874E+02  0.11852022212E+02  0.51100000000E-03 0.  1.
        -12    1    3    3    0    0 -0.17922806529E+02  0.20355407762E+02 -0.22761534493E+02  0.35407020088E+02  0.00000000000E+00 0.  1.
</event>
<event>
 7    1  0.2682317E-010  0.4778727E+02  0.7816164E-02  0.1312668E+00
        -11   -1    0    0    0    0  0.00000000000E+00  0.00000000000E+00  0.45593999997E+02  0.45594000000E+02  0.51100000000E-03 0.  1.
         11   -1    0    0    0    0 -0.00000000000E+00 -0.00000000000E+00 -0.45593999997E+02  0.45594000000E+02  0.51100000000E-03 0. -1.
    9900012    2    1    2    0    0 -0.39664697887E+02 -0.35174895906E+00  0.17612812218E+02  0.47787272587E+02  0.20000007032E+02 0.  0.
         12    1    1    2    0    0  0.39664697887E+02  0.35174895906E+00 -0.17612812218E+02  0.43400727413E+02  0.00000000000E+00 0. -1.
         11    1    3    3    0    0 -0.98664767441E+01  0.18763120472E+01 -0.85764339008E+00  0.10079854299E+02  0.51100000000E-03 0. -1.
        -11    1    3    3    0    0 -0.25440589075E+02 -0.14685737562E+01  0.86064740425E+01  0.26897057034E+02  0.51100000000E-03 0.  1.
         12    1    3    3    0    0 -0.43576320673E+01 -0.75948725004E+00  0.98639815657E+01  0.10810361254E+02  0.00000000000E+00 0. -1.
</event>
<event>
 7    1  0.2682317E-010  0.4778730E+02  0.7816164E-02  0.1312668E+00
        -11   -1    0    0    0    0  0.00000000000E+00  0.00000000000E+00  0.45593999997E+02  0.45594000000E+02  0.51100000000E-03 0.  1.
         11   -1    0    0    0    0 -0.00000000000E+00 -0.00000000000E+00 -0.45593999997E+02  0.45594000000E+02  0.51100000000E-03 0. -1.
    9900012    2    1    2    0    0  0.33060279041E+02  0.27970772841E+02 -0.28764993487E+01  0.47787303783E+02  0.20000149269E+02 0.  0.
         12    1    1    2    0    0 -0.33060279041E+02 -0.27970772841E+02  0.28764993487E+01  0.43400696217E+02  0.00000000000E+00 0. -1.
         11    1    3    3    0    0  0.97756572387E+01  0.10547560458E+02 -0.47293870688E+00  0.14388821263E+02  0.51100000000E-03 0. -1.
        -11    1    3    3    0    0  0.84091906967E+01  0.13315536225E+02  0.46643071359E+01  0.16424790850E+02  0.51100000000E-03 0.  1.
         12    1    3    3    0    0  0.14875431105E+02  0.41076761580E+01 -0.70678677777E+01  0.16973691670E+02  0.00000000000E+00 0. -1.
</event>
<event>
 7    1  0.2682317E-010  0.4778728E+02  0.7816164E-02  0.1312668E+00
        -11   -1    0    0    0    0  0.00000000000E+00  0.00000000000E+00  0.45593999997E+02  0.45594000000E+02  0.51100000000E-03 0.  1.
         11   -1    0    0    0    0 -0.00000000000E+00 -0.00000000000E+00 -0.45593999997E+02  0.45594000000E+02  0.51100000000E-03 0. -1.
    9900012    2    1    2    0    0  0.51233690128E+01  0.12981246483E+02  0.41095757067E+02  0.47787275130E+02  0.20000018629E+02 0.  0.
         12    1    1    2    0    0 -0.51233690128E+01 -0.12981246483E+02 -0.41095757067E+02  0.43400724870E+02  0.00000000000E+00 0. -1.
         11    1    3    3    0    0 -0.47811881429E+01  0.35958419024E+01  0.11462657232E+02  0.12929901397E+02  0.51100000000E-03 0. -1.
        -11    1    3    3    0    0  0.40930937007E+01  0.15186424663E+01  0.22059373079E+02  0.22487232642E+02  0.51100000000E-03 0.  1.
        -12    1    3    3    0    0  0.58114634551E+01  0.78667621144E+01  0.75737267557E+01  0.12370141092E+02  0.00000000000E+00 0.  1.
</event>
<event>
 7    1  0.2682317E-010  0.4778727E+02  0.7816164E-02  0.1312668E+00
        -11   -1    0    0    0    0  0.00000000000E+00  0.00000000000E+00  0.45593999997E+02  0.45594000000E+02  0.51100000000E-03 0.  1.
         11   -1    0    0    0    0 -0.00000000000E+00 -0.00000000000E+00 -0.45593999997E+02  0.45594000000E+02  0.51100000000E-03 0. -1.
    9900012    2    1    2    0    0  0.98559916943E+00  0.35420452035E+02  0.25060793660E+02  0.47787271816E+02  0.20000003517E+02 0.  0.
         12    1    1    2    0    0 -0.98559916943E+00 -0.35420452035E+02 -0.25060793660E+02  0.43400728184E+02  0.00000000000E+00 0. -1.
         11    1    3    3    0    0  0.76221911882E+00  0.11225487777E+02  0.15745399446E+01  0.11360973995E+02  0.51100000000E-03 0.  1.
        -11    1    3    3    0    0 -0.32557580375E+01  0.23373850108E+02  0.17227246248E+02  0.29218399046E+02  0.51100000000E-03 0. -1.
         12    1    3    3    0    0  0.34791380881E+01  0.82111415041E+00  0.62590074666E+01  0.72078987751E+01  0.00000000000E+00 0. -1.
</event>
<event>
 7    1  0.2682317E-010  0.4778727E+02  0.7816164E-02  0.1312668E+00
        -11   -1    0    0    0    0  0.00000000000E+00  0.00000000000E+00  0.45593999997E+02  0.45594000000E+02  0.51100000000E-03 0.  1.
         11   -1    0    0    0    0 -0.00000000000E+00 -0.00000000000E+00 -0.45593999997E+02  0.45594000000E+02  0.51100000000E-03 0. -1.
    9900012    2    1    2    0    0  0.19035026160E+02  0.73573131254E+01  0.38303536824E+02  0.47787271774E+02  0.20000003326E+02 0.  0.
         12    1    1    2    0    0 -0.19035026160E+02 -0.73573131254E+01 -0.38303536824E+02  0.43400728226E+02  0.00000000000E+00 0. -1.
         11    1    3    3    0    0  0.22870985527E+01  0.20594885882E+01  0.46698693640E+01  0.55928519713E+01  0.51100000000E-03 0. -1.
        -11    1    3    3    0    0  0.10843173144E+02  0.87265616903E+01  0.32390132970E+02  0.35254049368E+02  0.51100000000E-03 0.  1.
         12    1    3    3    0    0  0.59047544641E+01 -0.34287371531E+01  0.12435344900E+01  0.69403704350E+01  0.00000000000E+00 0. -1.
</event>
<event>
 7    1  0.2682317E-010  0.4778727E+02  0.7816164E-02  0.1312668E+00
        -11   -1    0    0    0    0  0.00000000000E+00  0.00000000000E+00  0.45593999997E+02  0.45594000000E+02  0.51100000000E-03 0.  1.
         11   -1    0    0    0    0 -0.00000000000E+00 -0.00000000000E+00 -0.45593999997E+02  0.45594000000E+02  0.51100000000E-03 0. -1.
    9900012    2    1    2    0    0  0.49966528854E+01  0.21336477660E+02  0.37462130115E+02  0.47787274064E+02  0.20000013769E+02 0.  0.
         12    1    1    2    0    0 -0.49966528854E+01 -0.21336477660E+02 -0.37462130115E+02  0.43400725936E+02  0.00000000000E+00 0. -1.
         11    1    3    3    0    0 -0.18432654008E+01  0.61415174441E+01  0.11945943309E+01  0.65224933676E+01  0.51100000000E-03 0. -1.
        -11    1    3    3    0    0  0.46981632562E+01  0.33005373639E+01  0.45602978715E+01  0.73322985353E+01  0.51100000000E-03 0.  1.
        -12    1    3    3    0    0  0.21417550300E+01  0.11894422852E+02  0.31707237912E+02  0.33932482161E+02  0.00000000000E+00 0.  1.
</event>
<event>
 7    1  0.2682317E-010  0.4778729E+02  0.7816164E-02  0.1312668E+00
        -11   -1    0    0    0    0  0.00000000000E+00  0.00000000000E+00  0.45593999997E+02  0.45594000000E+02  0.51100000000E-03 0.  1.
         11   -1    0    0    0    0 -0.00000000000E+00 -0.00000000000E+00 -0.45593999997E+02  0.45594000000E+02  0.51100000000E-03 0. -1.
    9900012    2    1    2    0    0  0.45422518119E+01  0.41366603975E+02  0.12320461325E+02  0.47787288678E+02  0.20000080400E+02 0.  0.
         12    1    1    2    0    0 -0.45422518119E+01 -0.41366603975E+02 -0.12320461325E+02  0.43400711322E+02  0.00000000000E+00 0. -1.
         11    1    3    3    0    0 -0.87842283434E+00  0.21130644772E+01  0.44638486622E+01  0.50162349726E+01  0.51100000000E-03 0. -1.
        -11    1    3    3    0    0 -0.43566575022E+01  0.11481986905E+02 -0.67575046117E-01  0.12280922381E+02  0.51100000000E-03 0.  1.
        -12    1    3    3    0    0  0.97773321484E+01  0.27771552593E+02  0.79241877089E+01  0.30490131325E+02  0.00000000000E+00 0.  1.
</event>
<event>
 7    1  0.2682317E-010  0.4778727E+02  0.7816164E-02  0.1312668E+00
        -11   -1    0    0    0    0  0.00000000000E+00  0.00000000000E+00  0.45593999997E+02  0.45594000000E+02  0.51100000000E-03 0. -1.
         11   -1    0    0    0    0 -0.00000000000E+00 -0.00000000000E+00 -0.45593999997E+02  0.45594000000E+02  0.51100000000E-03 0.  1.
    9900012    2    1    2    0    0  0.42342111392E+02 -0.81406601082E+01 -0.49495749908E+01  0.47787273777E+02  0.20000012459E+02 0.  0.
         12    1    1    2    0    0 -0.42342111392E+02  0.81406601082E+01  0.49495749908E+01  0.43400726223E+02  0.00000000000E+00 0. -1.
         11    1    3    3    0    0  0.20098171847E+01  0.27404843821E+00 -0.39622469729E+01  0.44512772322E+01  0.51100000000E-03 0. -1.
        -11    1    3    3    0    0  0.13279808470E+02 -0.81000481070E+01 -0.41451175218E+01  0.16098015153E+02  0.51100000000E-03 0.  1.
        -12    1    3    3    0    0  0.27052485737E+02 -0.31466043937E+00  0.31577895040E+01  0.27237981392E+02  0.00000000000E+00 0.  1.
</event>
<event>
 7    1  0.2682317E-010  0.4778727E+02  0.7816164E-02  0.1312668E+00
        -11   -1    0    0    0    0  0.00000000000E+00  0.00000000000E+00  0.45593999997E+02  0.45594000000E+02  0.51100000000E-03 0.  1.
         11   -1    0    0    0    0 -0.00000000000E+00 -0.00000000000E+00 -0.45593999997E+02  0.45594000000E+02  0.51100000000E-03 0. -1.
    9900012    2    1    2    0    0  0.49673442515E+01 -0.43103507095E+02 -0.10179400803E+01  0.47787273799E+02  0.20000012558E+02 0.  0.
         12    1    1    2    0    0 -0.49673442515E+01  0.43103507095E+02  0.10179400803E+01  0.43400726201E+02  0.00000000000E+00 0. -1.
         11    1    3    3    0    0  0.30606977254E+01 -0.29733138532E+01 -0.39477586456E+01  0.58131974352E+01  0.51100000000E-03 0. -1.
        -11    1    3    3    0    0  0.65805598132E+01 -0.16324081800E+02  0.76676670994E+00  0.17617245685E+02  0.51100000000E-03 0.  1.
         12    1    3    3    0    0 -0.46739132871E+01 -0.23806111442E+02  0.21630518554E+01  0.24356830679E+02  0.00000000000E+00 0. -1.
</event>
<event>
 7    1  0.2682317E-010  0.4778728E+02  0.7816164E-02  0.1312668E+00
        -11   -1    0    0    0    0  0.00000000000E+00  0.00000000000E+00  0.45593999997E+02  0.45594000000E+02  0.51100000000E-03 0. -1.
         11   -1    0    0    0    0 -0.00000000000E+00 -0.00000000000E+00 -0.45593999997E+02  0.45594000000E+02  0.51100000000E-03 0.  1.
    9900012    2    1    2    0    0 -0.42307901839E+02  0.53359852219E+01 -0.80741007727E+01  0.47787281117E+02  0.20000045925E+02 0.  0.
         12    1    1    2    0    0  0.42307901839E+02 -0.53359852219E+01  0.80741007727E+01  0.43400718883E+02  0.00000000000E+00 0. -1.
         11    1    3    3    0    0 -0.53938181214E+01 -0.59276904475E+01 -0.45476071163E+00  0.80273031296E+01  0.51100000000E-03 0. -1.
        -11    1    3    3    0    0 -0.26553461621E+02  0.54081164169E+01 -0.59298215159E+01  0.27739805888E+02  0.51100000000E-03 0.  1.
         12    1    3    3    0    0 -0.10360622096E+02  0.58555592525E+01 -0.16895185451E+01  0.12020172099E+02  0.00000000000E+00 0. -1.
</event>
<event>
 7    1  0.2682317E-010  0.4778727E+02  0.7816164E-02  0.1312668E+00
        -11   -1    0    0    0    0  0.00000000000E+00  0.00000000000E+00  0.45593999997E+02  0.45594000000E+02  0.51100000000E-03 0. -1.
         11   -1    0    0    0    0 -0.00000000000E+00 -0.00000000000E+00 -0.45593999997E+02  0.45594000000E+02  0.51100000000E-03 0.  1.
    9900012    2    1    2    0    0  0.38802094777E+02 -0.86314151950E+01 -0.17421812109E+02  0.47787269309E+02  0.19999992087E+02 0.  0.
         12    1    1    2    0    0 -0.38802094777E+02  0.86314151950E+01  0.17421812109E+02  0.43400730691E+02  0.00000000000E+00 0. -1.
         11    1    3    3    0    0  0.16647070167E+02 -0.10600592211E+02 -0.36256956877E+01  0.20065970444E+02  0.51100000000E-03 0. -1.
        -11    1    3    3    0    0  0.58755376059E+00  0.67993447042E+00  0.11426952567E+01  0.14537135263E+01  0.51100000000E-03 0.  1.
        -12    1    3    3    0    0  0.21567470850E+02  0.12892425454E+01 -0.14938811678E+02  0.26267585339E+02  0.00000000000E+00 0.  1.
</event>
<event>
 7    1  0.2682317E-010  0.4778727E+02  0.7816164E-02  0.1312668E+00
        -11   -1    0    0    0    0  0.00000000000E+00  0.00000000000E+00  0.45593999997E+02  0.45594000000E+02  0.51100000000E-03 0. -1.
         11   -1    0    0    0    0 -0.00000000000E+00 -0.00000000000E+00 -0.45593999997E+02  0.45594000000E+02  0.51100000000E-03 0.  1.
    9900012    2    1    2    0    0  0.61030182438E+01  0.35337251473E+02 -0.24446986891E+02  0.47787270267E+02  0.19999996455E+02 0.  0.
         12    1    1    2    0    0 -0.61030182438E+01 -0.35337251473E+02  0.24446986891E+02  0.43400729733E+02  0.00000000000E+00 0. -1.
         11    1    3    3    0    0 -0.37106950795E+01  0.53922795503E+01 -0.75585619122E+01  0.99988896965E+01  0.51100000000E-03 0. -1.
        -11    1    3    3    0    0  0.10768530943E+01  0.18576542848E+01 -0.60844372604E+01  0.64521987775E+01  0.51100000000E-03 0.  1.
         12    1    3    3    0    0  0.87368602289E+01  0.28087317637E+02 -0.10803987719E+02  0.31336181793E+02  0.00000000000E+00 0. -1.
</event>
<event>
 7    1  0.2682317E-010  0.4778727E+02  0.7816164E-02  0.1312668E+00
        -11   -1    0    0    0    0  0.00000000000E+00  0.00000000000E+00  0.45593999997E+02  0.45594000000E+02  0.51100000000E-03 0. -1.
         11   -1    0    0    0    0 -0.00000000000E+00 -0.00000000000E+00 -0.45593999997E+02  0.45594000000E+02  0.51100000000E-03 0.  1.
    9900012    2    1    2    0    0  0.43131897003E+02 -0.16177461344E+01  0.45437907053E+01  0.47787266416E+02  0.19999978899E+02 0.  0.
         12    1    1    2    0    0 -0.43131897003E+02  0.16177461344E+01 -0.45437907053E+01  0.43400733584E+02  0.00000000000E+00 0. -1.
         11    1    3    3    0    0  0.26213953966E+02  0.39597860078E+01  0.16552650681E+01  0.26562966522E+02  0.51100000000E-03 0.  1.
        -11    1    3    3    0    0  0.10032520016E+02  0.11279041443E+01  0.51753557034E+01  0.11344951853E+02  0.51100000000E-03 0. -1.
        -12    1    3    3    0    0  0.68854230212E+01 -0.67054362865E+01 -0.22868300662E+01  0.98793480415E+01  0.00000000000E+00 0.  1.
</event>
<event>
 7    1  0.2682317E-010  0.4778727E+02  0.7816164E-02  0.1312668E+00
        -11   -1    0    0    0    0  0.00000000000E+00  0.00000000000E+00  0.45593999997E+02  0.45594000000E+02  0.51100000000E-03 0.  1.
         11   -1    0    0    0    0 -0.00000000000E+00 -0.00000000000E+00 -0.45593999997E+02  0.45594000000E+02  0.51100000000E-03 0. -1.
    9900012    2    1    2    0    0  0.21004899758E+02 -0.35539205775E+02 -0.13393375216E+02  0.47787268892E+02  0.19999990188E+02 0.  0.
         12    1    1    2    0    0 -0.21004899758E+02  0.35539205775E+02  0.13393375216E+02  0.43400731108E+02  0.00000000000E+00 0. -1.
         11    1    3    3    0    0 -0.54786582792E+00 -0.10747530017E+02 -0.47401065735E+01  0.11759173824E+02  0.51100000000E-03 0. -1.
        -11    1    3    3    0    0  0.38678740925E+01 -0.83503273343E+01 -0.74689512347E+01  0.11852158006E+02  0.51100000000E-03 0.  1.
        -12    1    3    3    0    0  0.17684891494E+02 -0.16441348424E+02 -0.11843174078E+01  0.24175937063E+02  0.00000000000E+00 0.  1.
</event>
<event>
 7    1  0.2682317E-010  0.4778727E+02  0.7816164E-02  0.1312668E+00
        -11   -1    0    0    0    0  0.00000000000E+00  0.00000000000E+00  0.45593999997E+02  0.45594000000E+02  0.51100000000E-03 0. -1.
         11   -1    0    0    0    0 -0.00000000000E+00 -0.00000000000E+00 -0.45593999997E+02  0.45594000000E+02  0.51100000000E-03 0.  1.
    9900012    2    1    2    0    0 -0.28847219430E+02  0.32373551183E+02 -0.18477602751E+01  0.47787273012E+02  0.20000008972E+02 0.  0.
         12    1    1    2    0    0  0.28847219430E+02 -0.32373551183E+02  0.18477602751E+01  0.43400726988E+02  0.00000000000E+00 0. -1.
         11    1    3    3    0    0 -0.10704866200E+01 -0.67171842719E+00 -0.53141555947E+00  0.13709668147E+01  0.51100000000E-03 0. -1.
        -11    1    3    3    0    0 -0.18856353956E+02  0.13834911431E+02 -0.71344124638E+01  0.24451312854E+02  0.51100000000E-03 0.  1.
         12    1    3    3    0    0 -0.89203788539E+01  0.19210358179E+02  0.58180677481E+01  0.21964993343E+02  0.00000000000E+00 0. -1.
</event>
<event>
 7    1  0.2682317E-010  0.4778727E+02  0.7816164E-02  0.1312668E+00
        -11   -1    0    0    0    0  0.00000000000E+00  0.00000000000E+00  0.45593999997E+02  0.45594000000E+02  0.51100000000E-03 0.  1.
         11   -1    0    0    0    0 -0.00000000000E+00 -0.00000000000E+00 -0.45593999997E+02  0.45594000000E+02  0.51100000000E-03 0. -1.
    9900012    2    1    2    0    0  0.85466012340E+01  0.24910938474E+02  0.34496726878E+02  0.47787269435E+02  0.19999992660E+02 0.  0.
         12    1    1    2    0    0 -0.85466012340E+01 -0.24910938474E+02 -0.34496726878E+02  0.43400730565E+02  0.00000000000E+00 0. -1.
         11    1    3    3    0    0  0.11545704915E+02  0.12883729001E+02  0.11544393647E+02  0.20798240308E+02  0.51100000000E-03 0. -1.
        -11    1    3    3    0    0  0.21538880545E+01  0.22615062134E+01  0.43207467703E+01  0.53312753651E+01  0.51100000000E-03 0.  1.
        -12    1    3    3    0    0 -0.51529917354E+01  0.97657032596E+01  0.18631586460E+02  0.21657753762E+02  0.00000000000E+00 0.  1.
</event>
<event>
 7    1  0.2682317E-010  0.4778727E+02  0.7816164E-02  0.1312668E+00
        -11   -1    0    0    0    0  0.00000000000E+00  0.00000000000E+00  0.45593999997E+02  0.45594000000E+02  0.51100000000E-03 0. -1.
         11   -1    0    0    0    0 -0.00000000000E+00 -0.00000000000E+00 -0.45593999997E+02  0.45594000000E+02  0.51100000000E-03 0.  1.
    9900012    2    1    2    0    0 -0.10616870460E+02  0.42002116367E+02 -0.25937394577E+01  0.47787271872E+02  0.20000003773E+02 0.  0.
         12    1    1    2    0    0  0.10616870460E+02 -0.42002116367E+02  0.25937394577E+01  0.43400728128E+02  0.00000000000E+00 0. -1.
         11    1    3    3    0    0 -0.28874052540E+01  0.17426400317E+02 -0.49756672155E+01  0.18351397811E+02  0.51100000000E-03 0. -1.
        -11    1    3    3    0    0  0.83328167792E-01  0.49971638217E+00 -0.34284031877E+01  0.34656325144E+01  0.51100000000E-03 0.  1.
         12    1    3    3    0    0 -0.78127933739E+01  0.24075999668E+02  0.58103309456E+01  0.25970241547E+02  0.00000000000E+00 0. -1.
</event>
<event>
 7    1  0.2682317E-010  0.4778727E+02  0.7816164E-02  0.1312668E+00
        -11   -1    0    0    0    0  0.00000000000E+00  0.00000000000E+00  0.45593999997E+02  0.45594000000E+02  0.51100000000E-03 0.  1.
         11   -1    0    0    0    0 -0.00000000000E+00 -0.00000000000E+00 -0.45593999997E+02  0.45594000000E+02  0.51100000000E-03 0. -1.
    9900012    2    1    2    0    0 -0.20776294766E+01 -0.96432850582E+01  0.42264808414E+02  0.47787268195E+02  0.19999987008E+02 0.  0.
         12    1    1    2    0    0  0.20776294766E+01  0.96432850582E+01 -0.42264808414E+02  0.43400731805E+02  0.00000000000E+00 0. -1.
         11    1    3    3    0    0 -0.73856283772E+01 -0.44125378627E+01  0.17837752994E+02  0.19804126566E+02  0.51100000000E-03 0. -1.
        -11    1    3    3    0    0 -0.61591246304E-01 -0.71754104862E+01  0.18042829657E+02  0.19417363657E+02  0.51100000000E-03 0.  1.
        -12    1    3    3    0    0  0.53695901468E+01  0.19446632907E+01  0.63842257636E+01  0.85657779717E+01  0.00000000000E+00 0.  1.
</event>
<event>
 7    1  0.2682317E-010  0.4778726E+02  0.7816164E-02  0.1312668E+00
        -11   -1    0    0    0    0  0.00000000000E+00  0.00000000000E+00  0.45593999997E+02  0.45594000000E+02  0.51100000000E-03 0. -1.
         11   -1    0    0    0    0 -0.00000000000E+00 -0.00000000000E+00 -0.45593999997E+02  0.45594000000E+02  0.51100000000E-03 0.  1.
    9900012    2    1    2    0    0 -0.20443866022E+01 -0.38566320838E+02 -0.19801108618E+02  0.47787256665E+02  0.19999934437E+02 0.  0.
         12    1    1    2    0    0  0.20443866022E+01  0.38566320838E+02  0.19801108618E+02  0.43400743335E+02  0.00000000000E+00 0. -1.
         11    1    3    3    0    0  0.54234287412E+01 -0.57921732760E+01 -0.26610681434E+01  0.83692373903E+01  0.51100000000E-03 0. -1.
        -11    1    3    3    0    0  0.18631980833E+01 -0.17362638424E+02 -0.78093192380E+01  0.19128988142E+02  0.51100000000E-03 0.  1.
         12    1    3    3    0    0 -0.93310134267E+01 -0.15411509138E+02 -0.93307212370E+01  0.20289031132E+02  0.00000000000E+00 0. -1.
</event>
<event>
 7    1  0.2682317E-010  0.4778727E+02  0.7816164E-02  0.1312668E+00
        -11   -1    0    0    0    0  0.00000000000E+00  0.00000000000E+00  0.45593999997E+02  0.45594000000E+02  0.51100000000E-03 0. -1.
         11   -1    0    0    0    0 -0.00000000000E+00 -0.00000000000E+00 -0.45593999997E+02  0.45594000000E+02  0.51100000000E-03 0.  1.
    9900012    2    1    2    0    0 -0.43086545462E+01  0.31892850878E+02 -0.29118806117E+02  0.47787270619E+02  0.19999998060E+02 0.  0.
         12    1    1    2    0    0  0.43086545462E+01 -0.31892850878E+02  0.29118806117E+02  0.43400729381E+02  0.00000000000E+00 0. -1.
         11    1    3    3    0    0  0.10988236815E+01  0.44437421932E+01 -0.87038778642E+01  0.98342131510E+01  0.51100000000E-03 0. -1.
        -11    1    3    3    0    0 -0.60578615127E+00  0.13957933741E+02 -0.18970865503E+02  0.23560234069E+02  0.51100000000E-03 0.  1.
         12    1    3    3    0    0 -0.48016920764E+01  0.13491174944E+02 -0.14440627492E+01  0.14392823399E+02  0.00000000000E+00 0. -1.
</event>
<event>
 7    1  0.2682317E-010  0.4778727E+02  0.7816164E-02  0.1312668E+00
        -11   -1    0    0    0    0  0.00000000000E+00  0.00000000000E+00  0.45593999997E+02  0.45594000000E+02  0.51100000000E-03 0.  1.
         11   -1    0    0    0    0 -0.00000000000E+00 -0.00000000000E+00 -0.45593999997E+02  0.45594000000E+02  0.51100000000E-03 0. -1.
    9900012    2    1    2    0    0 -0.30594928223E+02  0.18812702941E+02  0.24365055341E+02  0.47787270205E+02  0.19999996174E+02 0.  0.
         12    1    1    2    0    0  0.30594928223E+02 -0.18812702941E+02 -0.24365055341E+02  0.43400729795E+02  0.00000000000E+00 0. -1.
         11    1    3    3    0    0  0.19023869067E+00  0.23547286224E+01 -0.75635544693E+00  0.24805264497E+01  0.51100000000E-03 0. -1.
        -11    1    3    3    0    0 -0.40287038231E+00  0.51656772998E+01  0.47112547542E+01  0.70030313530E+01  0.51100000000E-03 0.  1.
        -12    1    3    3    0    0 -0.30382296531E+02  0.11292297019E+02  0.20410156034E+02  0.38303712403E+02  0.00000000000E+00 0.  1.
</event>
<event>
 7    1  0.2682317E-010  0.4778727E+02  0.7816164E-02  0.1312668E+00
        -11   -1    0    0    0    0  0.00000000000E+00  0.00000000000E+00  0.45593999997E+02  0.45594000000E+02  0.51100000000E-03 0.  1.
         11   -1    0    0    0    0 -0.00000000000E+00 -0.00000000000E+00 -0.45593999997E+02  0.45594000000E+02  0.51100000000E-03 0. -1.
    9900012    2    1    2    0    0 -0.23265477387E+02 -0.30643244583E+02  0.20083135119E+02  0.47787271979E+02  0.20000004260E+02 0.  0.
         12    1    1    2    0    0  0.23265477387E+02  0.30643244583E+02 -0.20083135119E+02  0.43400728021E+02  0.00000000000E+00 0. -1.
         11    1    3    3    0    0 -0.41863926953E+01 -0.33692433346E+01  0.62221539780E+01  0.82214892102E+01  0.51100000000E-03 0. -1.
        -11    1    3    3    0    0 -0.17572516205E+02 -0.28768260597E+02  0.10004110530E+02  0.35163736595E+02  0.51100000000E-03 0.  1.
        -12    1    3    3    0    0 -0.15065684858E+01  0.14942593488E+01  0.38568706109E+01  0.44020461734E+01  0.00000000000E+00 0.  1.
</event>
<event>
 7    1  0.2682317E-010  0.4778727E+02  0.7816164E-02  0.1312668E+00
        -11   -1    0    0    0    0  0.00000000000E+00  0.00000000000E+00  0.45593999997E+02  0.45594000000E+02  0.51100000000E-03 0.  1.
         11   -1    0    0    0    0 -0.00000000000E+00 -0.00000000000E+00 -0.45593999997E+02  0.45594000000E+02  0.51100000000E-03 0. -1.
    9900012    2    1    2    0    0  0.75556518864E+01  0.14250922702E+01  0.42714219934E+02  0.47787270190E+02  0.19999996106E+02 0.  0.
         12    1    1    2    0    0 -0.75556518864E+01 -0.14250922702E+01 -0.42714219934E+02  0.43400729810E+02  0.00000000000E+00 0. -1.
         11    1    3    3    0    0  0.43382221984E+01 -0.49732585867E+01  0.40351114570E+01  0.77353472801E+01  0.51100000000E-03 0. -1.
        -11    1    3    3    0    0 -0.14032717346E+00 -0.15186196546E+01  0.31907350193E+01  0.35364795483E+01  0.51100000000E-03 0.  1.
        -12    1    3    3    0    0  0.33577568615E+01  0.79169705115E+01  0.35488373458E+02  0.36515443362E+02  0.00000000000E+00 0.  1.
</event>
<event>
 7    1  0.2682317E-010  0.4778727E+02  0.7816164E-02  0.1312668E+00
        -11   -1    0    0    0    0  0.00000000000E+00  0.00000000000E+00  0.45593999997E+02  0.45594000000E+02  0.51100000000E-03 0.  1.
         11   -1    0    0    0    0 -0.00000000000E+00 -0.00000000000E+00 -0.45593999997E+02  0.45594000000E+02  0.51100000000E-03 0. -1.
    9900012    2    1    2    0    0  0.39428217780E+02 -0.17632012347E+02 -0.42603878092E+01  0.47787272806E+02  0.20000008031E+02 0.  0.
         12    1    1    2    0    0 -0.39428217780E+02  0.17632012347E+02  0.42603878092E+01  0.43400727194E+02  0.00000000000E+00 0. -1.
         11    1    3    3    0    0 -0.44805861701E-01  0.14603941260E+01 -0.31242264244E+01  0.34489925457E+01  0.51100000000E-03 0. -1.
        -11    1    3    3    0    0  0.94183699288E+01 -0.77546554433E+01 -0.14216604600E+00  0.12200843602E+02  0.51100000000E-03 0.  1.
        -12    1    3    3    0    0  0.30054653713E+02 -0.11337751030E+02 -0.99399533879E+00  0.32137436658E+02  0.00000000000E+00 0.  1.
</event>
<event>
 7    1  0.2682317E-010  0.4778727E+02  0.7816164E-02  0.1312668E+00
        -11   -1    0    0    0    0  0.00000000000E+00  0.00000000000E+00  0.45593999997E+02  0.45594000000E+02  0.51100000000E-03 0.  1.
         11   -1    0    0    0    0 -0.00000000000E+00 -0.00000000000E+00 -0.45593999997E+02  0.45594000000E+02  0.51100000000E-03 0. -1.
    9900012    2    1    2    0    0  0.40830497344E+01  0.42852655329E+02  0.55319108735E+01  0.47787269571E+02  0.19999993283E+02 0.  0.
         12    1    1    2    0    0 -0.40830497344E+01 -0.42852655329E+02 -0.55319108735E+01  0.43400730429E+02  0.00000000000E+00 0. -1.
         11    1    3    3    0    0  0.24268782107E+01  0.10741404431E+02  0.98996726514E+01  0.14807802871E+02  0.51100000000E-03 0. -1.
        -11    1    3    3    0    0  0.28527194393E+01  0.11112115053E+02 -0.32163260684E+01  0.11914774979E+02  0.51100000000E-03 0.  1.
        -12    1    3    3    0    0 -0.11965479156E+01  0.20999135845E+02 -0.11514357095E+01  0.21064691722E+02  0.00000000000E+00 0.  1.
</event>
<event>
 7    1  0.2682317E-010  0.4778727E+02  0.7816164E-02  0.1312668E+00
        -11   -1    0    0    0    0  0.00000000000E+00  0.00000000000E+00  0.45593999997E+02  0.45594000000E+02  0.51100000000E-03 0.  1.
         11   -1    0    0    0    0 -0.00000000000E+00 -0.00000000000E+00 -0.45593999997E+02  0.45594000000E+02  0.51100000000E-03 0. -1.
    9900012    2    1    2    0    0 -0.39922722595E+02  0.44226045886E+01  0.16438969842E+02  0.47787274889E+02  0.20000017528E+02 0.  0.
         12    1    1    2    0    0  0.39922722595E+02 -0.44226045886E+01 -0.16438969842E+02  0.43400725111E+02  0.00000000000E+00 0. -1.
         11    1    3    3    0    0  0.78461095710E+00  0.60445448474E+00  0.67358035054E+00  0.11977855934E+01  0.51100000000E-03 0. -1.
        -11    1    3    3    0    0 -0.27103149446E+02  0.97828347829E+01  0.84287929291E+01  0.30022143774E+02  0.51100000000E-03 0.  1.
        -12    1    3    3    0    0 -0.13604184105E+02 -0.59646846790E+01  0.73365965625E+01  0.16567345521E+02  0.00000000000E+00 0.  1.
</event>
<event>
 7    1  0.2682317E-010  0.4778727E+02  0.7816164E-02  0.1312668E+00
        -11   -1    0    0    0    0  0.00000000000E+00  0.00000000000E+00  0.45593999997E+02  0.45594000000E+02  0.51100000000E-03 0. -1.
         11   -1    0    0    0    0 -0.00000000000E+00 -0.00000000000E+00 -0.45593999997E+02  0.45594000000E+02  0.51100000000E-03 0.  1.
    9900012    2    1    2    0    0 -0.19415076855E+02  0.38237793282E+02 -0.66745247142E+01  0.47787270461E+02  0.19999997340E+02 0.  0.
         12    1    1    2    0    0  0.19415076855E+02 -0.38237793282E+02  0.66745247142E+01  0.43400729539E+02  0.00000000000E+00 0. -1.
         11    1    3    3    0    0 -0.78687603346E+01  0.30782254985E+02 -0.86459129712E+01  0.32927441785E+02  0.51100000000E-03 0. -1.
        -11    1    3    3    0    0 -0.56396870053E+01  0.67062646588E+01  0.14690033275E+01  0.88847074363E+01  0.51100000000E-03 0.  1.
         12    1    3    3    0    0 -0.59066295148E+01  0.74927363862E+00  0.50238492947E+00  0.59751212396E+01  0.00000000000E+00 0. -1.
</event>
<event>
 7    1  0.2682317E-010  0.4778727E+02  0.7816164E-02  0.1312668E+00
        -11   -1    0    0    0    0  0.00000000000E+00  0.00000000000E+00  0.45593999997E+02  0.45594000000E+02  0.51100000000E-03 0.  1.
         11   -1    0    0    0    0 -0.00000000000E+00 -0.00000000000E+00 -0.45593999997E+02  0.45594000000E+02  0.51100000000E-03 0. -1.
    9900012    2    1    2    0    0  0.32761312231E+02  0.88024902211E+01  0.27070940397E+02  0.47787271583E+02  0.20000002453E+02 0.  0.
         12    1    1    2    0    0 -0.32761312231E+02 -0.88024902211E+01 -0.27070940397E+02  0.43400728417E+02  0.00000000000E+00 0. -1.
         11    1    3    3    0    0  0.99028876669E+01 -0.41198787668E+01  0.35790918469E+01  0.11307098828E+02  0.51100000000E-03 0. -1.
        -11    1    3    3    0    0  0.20718787767E+01  0.10292292511E+01 -0.72229496877E+00  0.24235727345E+01  0.51100000000E-03 0.  1.
        -12    1    3    3    0    0  0.20786545787E+02  0.11893139737E+02  0.24214143519E+02  0.34056600020E+02  0.00000000000E+00 0.  1.
</event>
<event>
 7    1  0.2682317E-010  0.4778727E+02  0.7816164E-02  0.1312668E+00
        -11   -1    0    0    0    0  0.00000000000E+00  0.00000000000E+00  0.45593999997E+02  0.45594000000E+02  0.51100000000E-03 0. -1.
         11   -1    0    0    0    0 -0.00000000000E+00 -0.00000000000E+00 -0.45593999997E+02  0.45594000000E+02  0.51100000000E-03 0.  1.
    9900012    2    1    2    0    0 -0.31582658099E+02  0.27312627165E+02  0.11839726157E+02  0.47787274076E+02  0.20000013823E+02 0.  0.
         12    1    1    2    0    0  0.31582658099E+02 -0.27312627165E+02 -0.11839726157E+02  0.43400725924E+02  0.00000000000E+00 0. -1.
         11    1    3    3    0    0 -0.36030815037E+01  0.34611685704E+01 -0.29287773071E+01  0.57913401706E+01  0.51100000000E-03 0. -1.
        -11    1    3    3    0    0 -0.99728577474E+01  0.12759351317E+02 -0.11267505342E-01  0.16194414620E+02  0.51100000000E-03 0.  1.
         12    1    3    3    0    0 -0.18006718848E+02  0.11092107278E+02  0.14779770970E+02  0.25801519286E+02  0.00000000000E+00 0. -1.
</event>
<event>
 7    1  0.2682317E-010  0.4778727E+02  0.7816164E-02  0.1312668E+00
        -11   -1    0    0    0    0  0.00000000000E+00  0.00000000000E+00  0.45593999997E+02  0.45594000000E+02  0.51100000000E-03 0.  1.
         11   -1    0    0    0    0 -0.00000000000E+00 -0.00000000000E+00 -0.45593999997E+02  0.45594000000E+02  0.51100000000E-03 0. -1.
    9900012    2    1    2    0    0  0.35944018320E+02 -0.12796051512E+02  0.20686030161E+02  0.47787271537E+02  0.20000002246E+02 0.  0.
         12    1    1    2    0    0 -0.35944018320E+02  0.12796051512E+02 -0.20686030161E+02  0.43400728463E+02  0.00000000000E+00 0. -1.
         11    1    3    3    0    0  0.80404279230E+01 -0.89134524817E+01 -0.94943605589E+00  0.12041575703E+02  0.51100000000E-03 0. -1.
        -11    1    3    3    0    0  0.10031245938E+02  0.52911417111E+00  0.75311003430E+01  0.12554813002E+02  0.51100000000E-03 0.  1.
         12    1    3    3    0    0  0.17872344459E+02 -0.44117132017E+01  0.14104365874E+02  0.23190882832E+02  0.00000000000E+00 0. -1.
</event>
<event>
 7    1  0.2682317E-010  0.4778727E+02  0.7816164E-02  0.1312668E+00
        -11   -1    0    0    0    0  0.00000000000E+00  0.00000000000E+00  0.45593999997E+02  0.45594000000E+02  0.51100000000E-03 0.  1.
         11   -1    0    0    0    0 -0.00000000000E+00 -0.00000000000E+00 -0.45593999997E+02  0.45594000000E+02  0.51100000000E-03 0. -1.
    9900012    2    1    2    0    0  0.73915760486E+01  0.40558824736E+02  0.13563528590E+02  0.47787274565E+02  0.20000016053E+02 0.  0.
         12    1    1    2    0    0 -0.73915760486E+01 -0.40558824736E+02 -0.13563528590E+02  0.43400725435E+02  0.00000000000E+00 0. -1.
         11    1    3    3    0    0 -0.18841221173E+01  0.37501161841E+01  0.35509146257E+01  0.54974796487E+01  0.51100000000E-03 0.  1.
        -11    1    3    3    0    0 -0.37135908283E+01  0.62662860713E+01 -0.92887066444E+00  0.73430170189E+01  0.51100000000E-03 0. -1.
         12    1    3    3    0    0  0.12989288994E+02  0.30542422481E+02  0.10941484628E+02  0.34946777898E+02  0.00000000000E+00 0. -1.
</event>
<event>
 7    1  0.2682317E-010  0.4778726E+02  0.7816164E-02  0.1312668E+00
        -11   -1    0    0    0    0  0.00000000000E+00  0.00000000000E+00  0.45593999997E+02  0.45594000000E+02  0.51100000000E-03 0. -1.
         11   -1    0    0    0    0 -0.00000000000E+00 -0.00000000000E+00 -0.45593999997E+02  0.45594000000E+02  0.51100000000E-03 0.  1.
    9900012    2    1    2    0    0  0.86516718594E+01 -0.29768781298E+02 -0.30374210245E+02  0.47787257910E+02  0.19999940115E+02 0.  0.
         12    1    1    2    0    0 -0.86516718594E+01  0.29768781298E+02  0.30374210245E+02  0.43400742090E+02  0.00000000000E+00 0. -1.
         11    1    3    3    0    0 -0.57375252471E+00 -0.14804157942E+02 -0.37688234484E+01  0.15287129056E+02  0.51100000000E-03 0. -1.
        -11    1    3    3    0    0  0.38489984588E+01 -0.50013524730E+01 -0.47931547976E+01  0.79248122293E+01  0.51100000000E-03 0.  1.
         12    1    3    3    0    0  0.53764259254E+01 -0.99632708836E+01 -0.21812231999E+02  0.24575316625E+02  0.00000000000E+00 0. -1.
</event>
<event>
 7    1  0.2682317E-010  0.4778727E+02  0.7816164E-02  0.1312668E+00
        -11   -1    0    0    0    0  0.00000000000E+00  0.00000000000E+00  0.45593999997E+02  0.45594000000E+02  0.51100000000E-03 0. -1.
         11   -1    0    0    0    0 -0.00000000000E+00 -0.00000000000E+00 -0.45593999997E+02  0.45594000000E+02  0.51100000000E-03 0.  1.
    9900012    2    1    2    0    0  0.53854721242E+01  0.37861926390E+02 -0.20520592780E+02  0.47787268347E+02  0.19999987701E+02 0.  0.
         12    1    1    2    0    0 -0.53854721242E+01 -0.37861926390E+02  0.20520592780E+02  0.43400731653E+02  0.00000000000E+00 0. -1.
         11    1    3    3    0    0  0.88903229953E+00  0.25273344451E+02 -0.19981732459E+02  0.32230450672E+02  0.51100000000E-03 0. -1.
        -11    1    3    3    0    0 -0.45642496090E+00  0.93483336655E+01 -0.17339864128E+01  0.95187381101E+01  0.51100000000E-03 0.  1.
         12    1    3    3    0    0  0.49528647856E+01  0.32402482737E+01  0.11951260918E+01  0.60380795651E+01  0.00000000000E+00 0. -1.
</event>
<event>
 7    1  0.2682317E-010  0.4778727E+02  0.7816164E-02  0.1312668E+00
        -11   -1    0    0    0    0  0.00000000000E+00  0.00000000000E+00  0.45593999997E+02  0.45594000000E+02  0.51100000000E-03 0. -1.
         11   -1    0    0    0    0 -0.00000000000E+00 -0.00000000000E+00 -0.45593999997E+02  0.45594000000E+02  0.51100000000E-03 0.  1.
    9900012    2    1    2    0    0  0.30117549963E+01 -0.42824530499E+02 -0.63727570516E+01  0.47787272897E+02  0.20000008446E+02 0.  0.
         12    1    1    2    0    0 -0.30117549963E+01  0.42824530499E+02  0.63727570516E+01  0.43400727103E+02  0.00000000000E+00 0. -1.
         11    1    3    3    0    0 -0.91776814089E+00 -0.66120422425E+01  0.30786621683E+00  0.66825281777E+01  0.51100000000E-03 0. -1.
        -11    1    3    3    0    0  0.45393562717E+01 -0.26566391639E+02 -0.12620623399E+02  0.29760024451E+02  0.51100000000E-03 0.  1.
        -12    1    3    3    0    0 -0.60983313452E+00 -0.96460966176E+01  0.59400001308E+01  0.11344720268E+02  0.00000000000E+00 0.  1.
</event>
<event>
 7    1  0.2682317E-010  0.4778727E+02  0.7816164E-02  0.1312668E+00
        -11   -1    0    0    0    0  0.00000000000E+00  0.00000000000E+00  0.45593999997E+02  0.45594000000E+02  0.51100000000E-03 0.  1.
         11   -1    0    0    0    0 -0.00000000000E+00 -0.00000000000E+00 -0.45593999997E+02  0.45594000000E+02  0.51100000000E-03 0. -1.
    9900012    2    1    2    0    0 -0.44329086984E+00 -0.37471900803E+02  0.21892541353E+02  0.47787271625E+02  0.20000002647E+02 0.  0.
         12    1    1    2    0    0  0.44329086984E+00  0.37471900803E+02 -0.21892541353E+02  0.43400728375E+02  0.00000000000E+00 0. -1.
         11    1    3    3    0    0  0.62494591864E+00 -0.15900479640E+02  0.82053166886E+01  0.17903715603E+02  0.51100000000E-03 0. -1.
        -11    1    3    3    0    0  0.56996264339E+01 -0.17193986611E+02  0.11758498768E+02  0.21595860960E+02  0.51100000000E-03 0.  1.
         12    1    3    3    0    0 -0.67678632224E+01 -0.43774345526E+01  0.19287258959E+01  0.82876950620E+01  0.00000000000E+00 0. -1.
</event>
<event>
 7    1  0.2682317E-010  0.4778728E+02  0.7816164E-02  0.1312668E+00
        -11   -1    0    0    0    0  0.00000000000E+00  0.00000000000E+00  0.45593999997E+02  0.45594000000E+02  0.51100000000E-03 0.  1.
         11   -1    0    0    0    0 -0.00000000000E+00 -0.00000000000E+00 -0.45593999997E+02  0.45594000000E+02  0.51100000000E-03 0. -1.
    9900012    2    1    2    0    0 -0.40661731081E+02 -0.13189071382E+02 -0.75029748639E+01  0.47787278690E+02  0.20000034858E+02 0.  0.
         12    1    1    2    0    0  0.40661731081E+02  0.13189071382E+02  0.75029748639E+01  0.43400721310E+02  0.00000000000E+00 0. -1.
         11    1    3    3    0    0 -0.60749096254E+01 -0.15933173693E+01  0.17724057690E+01  0.65256884439E+01  0.51100000000E-03 0. -1.
        -11    1    3    3    0    0 -0.26903653446E+02 -0.12157563217E+02 -0.13513724927E+02  0.32468964778E+02  0.51100000000E-03 0.  1.
        -12    1    3    3    0    0 -0.76831680103E+01  0.56180920389E+00  0.42383442945E+01  0.87926254677E+01  0.00000000000E+00 0.  1.
</event>
<event>
 7    1  0.2682317E-010  0.4778728E+02  0.7816164E-02  0.1312668E+00
        -11   -1    0    0    0    0  0.00000000000E+00  0.00000000000E+00  0.45593999997E+02  0.45594000000E+02  0.51100000000E-03 0.  1.
         11   -1    0    0    0    0 -0.00000000000E+00 -0.00000000000E+00 -0.45593999997E+02  0.45594000000E+02  0.51100000000E-03 0. -1.
    9900012    2    1    2    0    0  0.92070848366E+01 -0.41029251431E+02 -0.10744902806E+02  0.47787276268E+02  0.20000023816E+02 0.  0.
         12    1    1    2    0    0 -0.92070848366E+01  0.41029251431E+02  0.10744902806E+02  0.43400723732E+02  0.00000000000E+00 0. -1.
         11    1    3    3    0    0 -0.30629062164E+01 -0.38657716730E+01 -0.89315107186E+00  0.50123152551E+01  0.51100000000E-03 0. -1.
        -11    1    3    3    0    0 -0.25190155664E+01 -0.49719540830E+01  0.11273935256E+01  0.56865440515E+01  0.51100000000E-03 0.  1.
         12    1    3    3    0    0  0.14789006619E+02 -0.32191525675E+02 -0.10979145260E+02  0.37088416961E+02  0.00000000000E+00 0. -1.
</event>
<event>
 7    1  0.2682317E-010  0.4778727E+02  0.7816164E-02  0.1312668E+00
        -11   -1    0    0    0    0  0.00000000000E+00  0.00000000000E+00  0.45593999997E+02  0.45594000000E+02  0.51100000000E-03 0.  1.
         11   -1    0    0    0    0 -0.00000000000E+00 -0.00000000000E+00 -0.45593999997E+02  0.45594000000E+02  0.51100000000E-03 0. -1.
    9900012    2    1    2    0    0 -0.13055928215E+02  0.32007718338E+01  0.41266463078E+02  0.47787272162E+02  0.20000005095E+02 0.  0.
         12    1    1    2    0    0  0.13055928215E+02 -0.32007718338E+01 -0.41266463078E+02  0.43400727838E+02  0.00000000000E+00 0. -1.
         11    1    3    3    0    0  0.34906736657E+01  0.58275666332E+00  0.43326244386E+01  0.55942866172E+01  0.51100000000E-03 0. -1.
        -11    1    3    3    0    0 -0.75216820308E+01 -0.21836571977E+01  0.67997712731E+01  0.10372123647E+02  0.51100000000E-03 0.  1.
         12    1    3    3    0    0 -0.90249198498E+01  0.48016723681E+01  0.30134067367E+02  0.31820861897E+02  0.00000000000E+00 0. -1.
</event>
<event>
 7    1  0.2682317E-010  0.4778727E+02  0.7816164E-02  0.1312668E+00
        -11   -1    0    0    0    0  0.00000000000E+00  0.00000000000E+00  0.45593999997E+02  0.45594000000E+02  0.51100000000E-03 0. -1.
         11   -1    0    0    0    0 -0.00000000000E+00 -0.00000000000E+00 -0.45593999997E+02  0.45594000000E+02  0.51100000000E-03 0.  1.
    9900012    2    1    2    0    0  0.30894543150E+02 -0.25527059643E+02  0.16658929191E+02  0.47787268529E+02  0.19999988532E+02 0.  0.
         12    1    1    2    0    0 -0.30894543150E+02  0.25527059643E+02 -0.16658929191E+02  0.43400731471E+02  0.00000000000E+00 0. -1.
         11    1    3    3    0    0  0.26356396144E+01 -0.70475453859E+00  0.20864704133E+01  0.34346228590E+01  0.51100000000E-03 0. -1.
        -11    1    3    3    0    0  0.21024226434E+02 -0.12467319405E+02  0.75393476875E+00  0.24454459065E+02  0.51100000000E-03 0.  1.
        -12    1    3    3    0    0  0.72346771018E+01 -0.12354985699E+02  0.13818524009E+02  0.19898186605E+02  0.00000000000E+00 0.  1.
</event>
<event>
 7    1  0.2682317E-010  0.4778728E+02  0.7816164E-02  0.1312668E+00
        -11   -1    0    0    0    0  0.00000000000E+00  0.00000000000E+00  0.45593999997E+02  0.45594000000E+02  0.51100000000E-03 0.  1.
         11   -1    0    0    0    0 -0.00000000000E+00 -0.00000000000E+00 -0.45593999997E+02  0.45594000000E+02  0.51100000000E-03 0. -1.
    9900012    2    1    2    0    0  0.50090676502E+01 -0.10470379915E+01  0.43097977260E+02  0.47787277757E+02  0.20000030606E+02 0.  0.
         12    1    1    2    0    0 -0.50090676502E+01  0.10470379915E+01 -0.43097977260E+02  0.43400722243E+02  0.00000000000E+00 0. -1.
         11    1    3    3    0    0  0.85557802295E-01  0.43649110231E+01  0.83367817477E+01  0.94107225306E+01  0.51100000000E-03 0. -1.
        -11    1    3    3    0    0  0.46664270530E+01  0.42421375810E+01  0.10291882962E+02  0.12070382259E+02  0.51100000000E-03 0.  1.
         12    1    3    3    0    0  0.25708279485E+00 -0.96540865955E+01  0.24469312550E+02  0.26306172968E+02  0.00000000000E+00 0. -1.
</event>
<event>
 7    1  0.2682317E-010  0.4778727E+02  0.7816164E-02  0.1312668E+00
        -11   -1    0    0    0    0  0.00000000000E+00  0.00000000000E+00  0.45593999997E+02  0.45594000000E+02  0.51100000000E-03 0.  1.
         11   -1    0    0    0    0 -0.00000000000E+00 -0.00000000000E+00 -0.45593999997E+02  0.45594000000E+02  0.51100000000E-03 0. -1.
    9900012    2    1    2    0    0  0.23449849104E+02  0.36415747456E+02 -0.27606147526E+01  0.47787273283E+02  0.20000010206E+02 0.  0.
         12    1    1    2    0    0 -0.23449849104E+02 -0.36415747456E+02  0.27606147526E+01  0.43400726717E+02  0.00000000000E+00 0. -1.
         11    1    3    3    0    0  0.20885365717E+01  0.25884597624E+01 -0.59128773278E+01  0.67841158236E+01  0.51100000000E-03 0. -1.
        -11    1    3    3    0    0  0.21031388872E+01  0.92110709628E+00 -0.12639400297E+01  0.26209113150E+01  0.51100000000E-03 0.  1.
        -12    1    3    3    0    0  0.19258173645E+02  0.32906180597E+02  0.44162026049E+01  0.38382246144E+02  0.00000000000E+00 0.  1.
</event>
<event>
 7    1  0.2682317E-010  0.4778727E+02  0.7816164E-02  0.1312668E+00
        -11   -1    0    0    0    0  0.00000000000E+00  0.00000000000E+00  0.45593999997E+02  0.45594000000E+02  0.51100000000E-03 0.  1.
         11   -1    0    0    0    0 -0.00000000000E+00 -0.00000000000E+00 -0.45593999997E+02  0.45594000000E+02  0.51100000000E-03 0. -1.
    9900012    2    1    2    0    0  0.87427933285E+01  0.40059488511E+02  0.14227577587E+02  0.47787273982E+02  0.20000013391E+02 0.  0.
         12    1    1    2    0    0 -0.87427933285E+01 -0.40059488511E+02 -0.14227577587E+02  0.43400726018E+02  0.00000000000E+00 0. -1.
         11    1    3    3    0    0  0.61734232617E+01  0.12149055097E+02 -0.34148037692E+00  0.13631848871E+02  0.51100000000E-03 0. -1.
        -11    1    3    3    0    0  0.19282964144E+01  0.13253997926E+02 -0.12145345679E+00  0.13394085982E+02  0.51100000000E-03 0.  1.
         12    1    3    3    0    0  0.64107365236E+00  0.14656435487E+02  0.14690511421E+02  0.20761339129E+02  0.00000000000E+00 0. -1.
</event>
<event>
 7    1  0.2682317E-010  0.4778727E+02  0.7816164E-02  0.1312668E+00
        -11   -1    0    0    0    0  0.00000000000E+00  0.00000000000E+00  0.45593999997E+02  0.45594000000E+02  0.51100000000E-03 0.  1.
         11   -1    0    0    0    0 -0.00000000000E+00 -0.00000000000E+00 -0.45593999997E+02  0.45594000000E+02  0.51100000000E-03 0. -1.
    9900012    2    1    2    0    0  0.11119178132E+02 -0.18288750708E+01  0.41912317569E+02  0.47787271085E+02  0.20000000184E+02 0.  0.
         12    1    1    2    0    0 -0.11119178132E+02  0.18288750708E+01 -0.41912317569E+02  0.43400728915E+02  0.00000000000E+00 0. -1.
         11    1    3    3    0    0 -0.34248128181E+01  0.18117022294E+01  0.88066005511E+01  0.96212172481E+01  0.51100000000E-03 0. -1.
        -11    1    3    3    0    0  0.36344095676E+00  0.30882937075E+01  0.36976293455E+01  0.48313673417E+01  0.51100000000E-03 0.  1.
        -12    1    3    3    0    0  0.14180549993E+02 -0.67288710077E+01  0.29408087673E+02  0.33334686495E+02  0.00000000000E+00 0.  1.
</event>
<event>
 7    1  0.2682317E-010  0.4778727E+02  0.7816164E-02  0.1312668E+00
        -11   -1    0    0    0    0  0.00000000000E+00  0.00000000000E+00  0.45593999997E+02  0.45594000000E+02  0.51100000000E-03 0. -1.
         11   -1    0    0    0    0 -0.00000000000E+00 -0.00000000000E+00 -0.45593999997E+02  0.45594000000E+02  0.51100000000E-03 0.  1.
    9900012    2    1    2    0    0 -0.30854542939E+02 -0.23735555226E+01 -0.30430031958E+02  0.47787269237E+02  0.19999991759E+02 0.  0.
         12    1    1    2    0    0  0.30854542939E+02  0.23735555226E+01  0.30430031958E+02  0.43400730763E+02  0.00000000000E+00 0. -1.
         11    1    3    3    0    0 -0.14203558597E+01 -0.60521234328E+01 -0.95164700412E+01  0.11367005372E+02  0.51100000000E-03 0. -1.
        -11    1    3    3    0    0 -0.79502295936E+01  0.10923550934E+01 -0.73465338907E+01  0.10879841484E+02  0.51100000000E-03 0.  1.
         12    1    3    3    0    0 -0.21483957485E+02  0.25862128168E+01 -0.13567028027E+02  0.25540422382E+02  0.00000000000E+00 0. -1.
</event>
<event>
 7    1  0.2682317E-010  0.4778729E+02  0.7816164E-02  0.1312668E+00
        -11   -1    0    0    0    0  0.00000000000E+00  0.00000000000E+00  0.45593999997E+02  0.45594000000E+02  0.51100000000E-03 0. -1.
         11   -1    0    0    0    0 -0.00000000000E+00 -0.00000000000E+00 -0.45593999997E+02  0.45594000000E+02  0.51100000000E-03 0.  1.
    9900012    2    1    2    0    0 -0.18854751817E+02 -0.35040892500E+02 -0.17327895381E+02  0.47787288352E+02  0.20000078911E+02 0.  0.
         12    1    1    2    0    0  0.18854751817E+02  0.35040892500E+02  0.17327895381E+02  0.43400711648E+02  0.00000000000E+00 0. -1.
         11    1    3    3    0    0 -0.13131691217E+01 -0.56229907452E+01 -0.49281111165E+01  0.75913580801E+01  0.51100000000E-03 0.  1.
        -11    1    3    3    0    0 -0.17658023591E+02 -0.25268206199E+02 -0.43411901138E+01  0.31130916683E+02  0.51100000000E-03 0. -1.
         12    1    3    3    0    0  0.11644089581E+00 -0.41496955550E+01 -0.80585941502E+01  0.90650135884E+01  0.00000000000E+00 0. -1.
</event>
<event>
 7    1  0.2682317E-010  0.4778726E+02  0.7816164E-02  0.1312668E+00
        -11   -1    0    0    0    0  0.00000000000E+00  0.00000000000E+00  0.45593999997E+02  0.45594000000E+02  0.51100000000E-03 0.  1.
         11   -1    0    0    0    0 -0.00000000000E+00 -0.00000000000E+00 -0.45593999997E+02  0.45594000000E+02  0.51100000000E-03 0. -1.
    9900012    2    1    2    0    0  0.38489047182E+02 -0.11357847275E+02  0.16529265306E+02  0.47787261996E+02  0.19999958744E+02 0.  0.
         12    1    1    2    0    0 -0.38489047182E+02  0.11357847275E+02 -0.16529265306E+02  0.43400738004E+02  0.00000000000E+00 0. -1.
         11    1    3    3    0    0  0.54640769074E+01 -0.18215537308E+01  0.77911033687E+01  0.96889362887E+01  0.51100000000E-03 0. -1.
        -11    1    3    3    0    0  0.94591579832E+01  0.31140551675E+01 -0.63910101743E-02  0.99585666862E+01  0.51100000000E-03 0.  1.
        -12    1    3    3    0    0  0.23565812292E+02 -0.12650348712E+02  0.87445529474E+01  0.28139759021E+02  0.00000000000E+00 0.  1.
</event>
<event>
 7    1  0.2682317E-010  0.4778727E+02  0.7816164E-02  0.1312668E+00
        -11   -1    0    0    0    0  0.00000000000E+00  0.00000000000E+00  0.45593999997E+02  0.45594000000E+02  0.51100000000E-03 0.  1.
         11   -1    0    0    0    0 -0.00000000000E+00 -0.00000000000E+00 -0.45593999997E+02  0.45594000000E+02  0.51100000000E-03 0. -1.
    9900012    2    1    2    0    0 -0.39865292769E+02  0.13546468306E+02  0.10529726518E+02  0.47787268305E+02  0.19999987508E+02 0.  0.
         12    1    1    2    0    0  0.39865292769E+02 -0.13546468306E+02 -0.10529726518E+02  0.43400731695E+02  0.00000000000E+00 0. -1.
         11    1    3    3    0    0 -0.89164162755E+01  0.55154635605E+01  0.70819085962E+01  0.12652124213E+02  0.51100000000E-03 0. -1.
        -11    1    3    3    0    0 -0.31621732581E+02  0.55692654499E+01  0.44056802057E+01  0.32409268851E+02  0.51100000000E-03 0.  1.
         12    1    3    3    0    0  0.67285608752E+00  0.24617392954E+01 -0.95786228369E+00  0.27258752407E+01  0.00000000000E+00 0. -1.
</event>
<event>
 7    1  0.2682317E-010  0.4778727E+02  0.7816164E-02  0.1312668E+00
        -11   -1    0    0    0    0  0.00000000000E+00  0.00000000000E+00  0.45593999997E+02  0.45594000000E+02  0.51100000000E-03 0.  1.
         11   -1    0    0    0    0 -0.00000000000E+00 -0.00000000000E+00 -0.45593999997E+02  0.45594000000E+02  0.51100000000E-03 0. -1.
    9900012    2    1    2    0    0  0.20544577866E+02 -0.48263533089E+01  0.37924264799E+02  0.47787271590E+02  0.20000002488E+02 0.  0.
         12    1    1    2    0    0 -0.20544577866E+02  0.48263533089E+01 -0.37924264799E+02  0.43400728410E+02  0.00000000000E+00 0. -1.
         11    1    3    3    0    0  0.58158625915E+01 -0.83331365916E+01  0.64819280692E+01  0.12053249143E+02  0.51100000000E-03 0. -1.
        -11    1    3    3    0    0  0.75345790913E+01 -0.20770722629E+01  0.15986809799E+02  0.17795004892E+02  0.51100000000E-03 0.  1.
         12    1    3    3    0    0  0.71941361828E+01  0.55838555456E+01  0.15455526931E+02  0.17939017556E+02  0.00000000000E+00 0. -1.
</event>
<event>
 7    1  0.2682317E-010  0.4778727E+02  0.7816164E-02  0.1312668E+00
        -11   -1    0    0    0    0  0.00000000000E+00  0.00000000000E+00  0.45593999997E+02  0.45594000000E+02  0.51100000000E-03 0. -1.
         11   -1    0    0    0    0 -0.00000000000E+00 -0.00000000000E+00 -0.45593999997E+02  0.45594000000E+02  0.51100000000E-03 0.  1.
    9900012    2    1    2    0    0  0.38455789888E+02  0.20118604282E+02  0.13190682899E+00  0.47787269435E+02  0.19999992662E+02 0.  0.
         12    1    1    2    0    0 -0.38455789888E+02 -0.20118604282E+02 -0.13190682899E+00  0.43400730565E+02  0.00000000000E+00 0. -1.
         11    1    3    3    0    0  0.10738693356E+02  0.17093397121E+01 -0.40903452129E+01  0.11617758022E+02  0.51100000000E-03 0. -1.
        -11    1    3    3    0    0  0.18008152850E+02  0.13748377103E+02 -0.34893738595E+01  0.22923506979E+02  0.51100000000E-03 0.  1.
         12    1    3    3    0    0  0.97089436824E+01  0.46608874665E+01  0.77116259014E+01  0.13246004433E+02  0.00000000000E+00 0. -1.
</event>
<event>
 7    1  0.2682317E-010  0.4778725E+02  0.7816164E-02  0.1312668E+00
        -11   -1    0    0    0    0  0.00000000000E+00  0.00000000000E+00  0.45593999997E+02  0.45594000000E+02  0.51100000000E-03 0.  1.
         11   -1    0    0    0    0 -0.00000000000E+00 -0.00000000000E+00 -0.45593999997E+02  0.45594000000E+02  0.51100000000E-03 0. -1.
    9900012    2    1    2    0    0  0.30847190173E+02  0.76543904289E+01  0.29554798596E+02  0.47787251683E+02  0.19999911722E+02 0.  0.
         12    1    1    2    0    0 -0.30847190173E+02 -0.76543904289E+01 -0.29554798596E+02  0.43400748317E+02  0.00000000000E+00 0. -1.
         11    1    3    3    0    0  0.44913501719E+01  0.36167781778E+01  0.91605002581E+01  0.10824420354E+02  0.51100000000E-03 0. -1.
        -11    1    3    3    0    0  0.10288185439E+02  0.40260714251E+01  0.17411318662E+02  0.20620621440E+02  0.51100000000E-03 0.  1.
         12    1    3    3    0    0  0.16067654562E+02  0.11540826013E-01  0.29829796763E+01  0.16342209889E+02  0.00000000000E+00 0. -1.
</event>
<event>
 7    1  0.2682317E-010  0.4778727E+02  0.7816164E-02  0.1312668E+00
        -11   -1    0    0    0    0  0.00000000000E+00  0.00000000000E+00  0.45593999997E+02  0.45594000000E+02  0.51100000000E-03 0.  1.
         11   -1    0    0    0    0 -0.00000000000E+00 -0.00000000000E+00 -0.45593999997E+02  0.45594000000E+02  0.51100000000E-03 0. -1.
    9900012    2    1    2    0    0 -0.38224915048E+02  0.18815525069E+02  0.82737683731E+01  0.47787270085E+02  0.19999995624E+02 0.  0.
         12    1    1    2    0    0  0.38224915048E+02 -0.18815525069E+02 -0.82737683731E+01  0.43400729915E+02  0.00000000000E+00 0. -1.
         11    1    3    3    0    0 -0.93586146480E+00  0.28217937763E+01 -0.19362722042E+01  0.35478876965E+01  0.51100000000E-03 0. -1.
        -11    1    3    3    0    0 -0.11645432934E+02  0.80544981835E+01  0.10103655764E+02  0.17394680487E+02  0.51100000000E-03 0.  1.
         12    1    3    3    0    0 -0.25643620650E+02  0.79392331096E+01  0.10638481304E+00  0.26844701901E+02  0.00000000000E+00 0. -1.
</event>
<event>
 7    1  0.2682317E-010  0.4778727E+02  0.7816164E-02  0.1312668E+00
        -11   -1    0    0    0    0  0.00000000000E+00  0.00000000000E+00  0.45593999997E+02  0.45594000000E+02  0.51100000000E-03 0. -1.
         11   -1    0    0    0    0 -0.00000000000E+00 -0.00000000000E+00 -0.45593999997E+02  0.45594000000E+02  0.51100000000E-03 0.  1.
    9900012    2    1    2    0    0  0.35249530889E+02 -0.21212968805E+02 -0.13824033478E+02  0.47787269879E+02  0.19999994687E+02 0.  0.
         12    1    1    2    0    0 -0.35249530889E+02  0.21212968805E+02  0.13824033478E+02  0.43400730121E+02  0.00000000000E+00 0. -1.
         11    1    3    3    0    0  0.97094190841E+01 -0.14357849173E+02 -0.56285816447E+01  0.18223654502E+02  0.51100000000E-03 0. -1.
        -11    1    3    3    0    0  0.14014326799E+02 -0.75653875261E+01 -0.99935208170E+00  0.15957291402E+02  0.51100000000E-03 0.  1.
         12    1    3    3    0    0  0.11525785006E+02  0.71026789363E+00 -0.71960997513E+01  0.13606323975E+02  0.00000000000E+00 0. -1.
</event>
<event>
 7    1  0.2682317E-010  0.4778726E+02  0.7816164E-02  0.1312668E+00
        -11   -1    0    0    0    0  0.00000000000E+00  0.00000000000E+00  0.45593999997E+02  0.45594000000E+02  0.51100000000E-03 0.  1.
         11   -1    0    0    0    0 -0.00000000000E+00 -0.00000000000E+00 -0.45593999997E+02  0.45594000000E+02  0.51100000000E-03 0. -1.
    9900012    2    1    2    0    0  0.25195808923E+00  0.31269986287E+02  0.30095653364E+02  0.47787264100E+02  0.19999968337E+02 0.  0.
         12    1    1    2    0    0 -0.25195808923E+00 -0.31269986287E+02 -0.30095653364E+02  0.43400735900E+02  0.00000000000E+00 0. -1.
         11    1    3    3    0    0  0.75321803236E+00 -0.18292630863E+00 -0.59504033103E+00  0.97717587738E+00  0.51100000000E-03 0. -1.
        -11    1    3    3    0    0 -0.66050936611E+01  0.22003085492E+02  0.14754037382E+02  0.27302832321E+02  0.51100000000E-03 0.  1.
         12    1    3    3    0    0  0.61038337180E+01  0.94498271038E+01  0.15936656314E+02  0.19507255901E+02  0.00000000000E+00 0. -1.
</event>
<event>
 7    1  0.2682317E-010  0.4778727E+02  0.7816164E-02  0.1312668E+00
        -11   -1    0    0    0    0  0.00000000000E+00  0.00000000000E+00  0.45593999997E+02  0.45594000000E+02  0.51100000000E-03 0.  1.
         11   -1    0    0    0    0 -0.00000000000E+00 -0.00000000000E+00 -0.45593999997E+02  0.45594000000E+02  0.51100000000E-03 0. -1.
    9900012    2    1    2    0    0 -0.20575829127E+02  0.25954243108E+02  0.28047028023E+02  0.47787271199E+02  0.20000000703E+02 0.  0.
         12    1    1    2    0    0  0.20575829127E+02 -0.25954243108E+02 -0.28047028023E+02  0.43400728801E+02  0.00000000000E+00 0. -1.
         11    1    3    3    0    0 -0.74458782098E+01  0.54444256788E+01  0.93964932923E+01  0.13167268500E+02  0.51100000000E-03 0. -1.
        -11    1    3    3    0    0 -0.52283056121E+01  0.16811650317E+01  0.11912570136E+02  0.13117576870E+02  0.51100000000E-03 0.  1.
         12    1    3    3    0    0 -0.79016453046E+01  0.18828652398E+02  0.67379645943E+01  0.21502425829E+02  0.00000000000E+00 0. -1.
</event>
<event>
 7    1  0.2682317E-010  0.4778727E+02  0.7816164E-02  0.1312668E+00
        -11   -1    0    0    0    0  0.00000000000E+00  0.00000000000E+00  0.45593999997E+02  0.45594000000E+02  0.51100000000E-03 0. -1.
         11   -1    0    0    0    0 -0.00000000000E+00 -0.00000000000E+00 -0.45593999997E+02  0.45594000000E+02  0.51100000000E-03 0.  1.
    9900012    2    1    2    0    0 -0.41841287797E+02 -0.10419499282E+02 -0.49360094702E+01  0.47787268218E+02  0.19999987111E+02 0.  0.
         12    1    1    2    0    0  0.41841287797E+02  0.10419499282E+02  0.49360094702E+01  0.43400731782E+02  0.00000000000E+00 0. -1.
         11    1    3    3    0    0  0.22322160656E+00 -0.28350775997E+01 -0.16921353124E+00  0.28488815985E+01  0.51100000000E-03 0. -1.
        -11    1    3    3    0    0 -0.51387128657E+01 -0.22534899492E+00 -0.51580215145E+01  0.72843900425E+01  0.51100000000E-03 0.  1.
         12    1    3    3    0    0 -0.36925796537E+02 -0.73590726871E+01  0.39122557562E+00  0.37653996577E+02  0.00000000000E+00 0. -1.
</event>
<event>
 7    1  0.2682317E-010  0.4778728E+02  0.7816164E-02  0.1312668E+00
        -11   -1    0    0    0    0  0.00000000000E+00  0.00000000000E+00  0.45593999997E+02  0.45594000000E+02  0.51100000000E-03 0.  1.
         11   -1    0    0    0    0 -0.00000000000E+00 -0.00000000000E+00 -0.45593999997E+02  0.45594000000E+02  0.51100000000E-03 0. -1.
    9900012    2    1    2    0    0 -0.43311552096E+02 -0.15478305901E+01 -0.23100971945E+01  0.47787275656E+02  0.20000021028E+02 0.  0.
         12    1    1    2    0    0  0.43311552096E+02  0.15478305901E+01  0.23100971945E+01  0.43400724344E+02  0.00000000000E+00 0. -1.
         11    1    3    3    0    0  0.11370412661E+01 -0.26828334817E+00  0.10741824615E+01  0.15870434832E+01  0.51100000000E-03 0. -1.
        -11    1    3    3    0    0 -0.24324346007E+02  0.51661423207E+01 -0.49082481619E+00  0.24871745906E+02  0.51100000000E-03 0.  1.
         12    1    3    3    0    0 -0.20124247355E+02 -0.64456895626E+01 -0.28934548398E+01  0.21328486267E+02  0.00000000000E+00 0. -1.
</event>
<event>
 7    1  0.2682317E-010  0.4778727E+02  0.7816164E-02  0.1312668E+00
        -11   -1    0    0    0    0  0.00000000000E+00  0.00000000000E+00  0.45593999997E+02  0.45594000000E+02  0.51100000000E-03 0. -1.
         11   -1    0    0    0    0 -0.00000000000E+00 -0.00000000000E+00 -0.45593999997E+02  0.45594000000E+02  0.51100000000E-03 0.  1.
    9900012    2    1    2    0    0 -0.40082878063E+02 -0.16524667270E+02  0.19803204900E+01  0.47787269460E+02  0.19999992774E+02 0.  0.
         12    1    1    2    0    0  0.40082878063E+02  0.16524667270E+02 -0.19803204900E+01  0.43400730540E+02  0.00000000000E+00 0. -1.
         11    1    3    3    0    0 -0.38977887863E+01 -0.14531535163E+01  0.32421088080E+01  0.52740574844E+01  0.51100000000E-03 0. -1.
        -11    1    3    3    0    0 -0.26396984999E+02 -0.10694804671E+02  0.65776785880E+01  0.29230900086E+02  0.51100000000E-03 0.  1.
         12    1    3    3    0    0 -0.97881042778E+01 -0.43767090822E+01 -0.78394669060E+01  0.13282311889E+02  0.00000000000E+00 0. -1.
</event>
<event>
 7    1  0.2682317E-010  0.4778727E+02  0.7816164E-02  0.1312668E+00
        -11   -1    0    0    0    0  0.00000000000E+00  0.00000000000E+00  0.45593999997E+02  0.45594000000E+02  0.51100000000E-03 0. -1.
         11   -1    0    0    0    0 -0.00000000000E+00 -0.00000000000E+00 -0.45593999997E+02  0.45594000000E+02  0.51100000000E-03 0.  1.
    9900012    2    1    2    0    0  0.19088302233E+02 -0.33829220554E+02 -0.19360883561E+02  0.47787271231E+02  0.20000000851E+02 0.  0.
         12    1    1    2    0    0 -0.19088302233E+02  0.33829220554E+02  0.19360883561E+02  0.43400728769E+02  0.00000000000E+00 0. -1.
         11    1    3    3    0    0  0.29874545201E+01 -0.39387975819E+01 -0.26689664696E+00  0.49507822596E+01  0.51100000000E-03 0.  1.
        -11    1    3    3    0    0  0.15966008617E+01  0.24261309044E+01 -0.10973566227E+01  0.31047443205E+01  0.51100000000E-03 0. -1.
         12    1    3    3    0    0  0.14504246851E+02 -0.32316553876E+02 -0.17996630292E+02  0.39731744651E+02  0.00000000000E+00 0. -1.
</event>
<event>
 7    1  0.2682317E-010  0.4778728E+02  0.7816164E-02  0.1312668E+00
        -11   -1    0    0    0    0  0.00000000000E+00  0.00000000000E+00  0.45593999997E+02  0.45594000000E+02  0.51100000000E-03 0.  1.
         11   -1    0    0    0    0 -0.00000000000E+00 -0.00000000000E+00 -0.45593999997E+02  0.45594000000E+02  0.51100000000E-03 0. -1.
    9900012    2    1    2    0    0  0.27230833485E+02  0.33077421569E+02  0.69273884950E+01  0.47787276259E+02  0.20000023773E+02 0.  0.
         12    1    1    2    0    0 -0.27230833485E+02 -0.33077421569E+02 -0.69273884950E+01  0.43400723741E+02  0.00000000000E+00 0. -1.
         11    1    3    3    0    0  0.10423620742E+02  0.47487743241E+01 -0.44788491734E+00  0.11463129071E+02  0.51100000000E-03 0. -1.
        -11    1    3    3    0    0  0.17566332025E+02  0.23588405021E+02  0.25555565415E+01  0.29521513202E+02  0.51100000000E-03 0.  1.
        -12    1    3    3    0    0 -0.75911928156E+00  0.47402422240E+01  0.48197168709E+01  0.68026339855E+01  0.00000000000E+00 0.  1.
</event>
<event>
 7    1  0.2682317E-010  0.4778727E+02  0.7816164E-02  0.1312668E+00
        -11   -1    0    0    0    0  0.00000000000E+00  0.00000000000E+00  0.45593999997E+02  0.45594000000E+02  0.51100000000E-03 0.  1.
         11   -1    0    0    0    0 -0.00000000000E+00 -0.00000000000E+00 -0.45593999997E+02  0.45594000000E+02  0.51100000000E-03 0. -1.
    9900012    2    1    2    0    0 -0.91402339320E+00 -0.14177868604E+02  0.41009458227E+02  0.47787273497E+02  0.20000011184E+02 0.  0.
         12    1    1    2    0    0  0.91402339320E+00  0.14177868604E+02 -0.41009458227E+02  0.43400726503E+02  0.00000000000E+00 0. -1.
         11    1    3    3    0    0 -0.28934860143E+01 -0.56672602991E+01  0.15179336225E+02  0.16459111431E+02  0.51100000000E-03 0. -1.
        -11    1    3    3    0    0 -0.55761684550E+01 -0.54101848483E+01  0.19513802029E+02  0.21003624083E+02  0.51100000000E-03 0.  1.
         12    1    3    3    0    0  0.75556310760E+01 -0.31004234566E+01  0.63163199727E+01  0.10324537983E+02  0.00000000000E+00 0. -1.
</event>
<event>
 7    1  0.2682317E-010  0.4778726E+02  0.7816164E-02  0.1312668E+00
        -11   -1    0    0    0    0  0.00000000000E+00  0.00000000000E+00  0.45593999997E+02  0.45594000000E+02  0.51100000000E-03 0.  1.
         11   -1    0    0    0    0 -0.00000000000E+00 -0.00000000000E+00 -0.45593999997E+02  0.45594000000E+02  0.51100000000E-03 0. -1.
    9900012    2    1    2    0    0  0.19630934466E+02 -0.22415594800E+02  0.31556161448E+02  0.47787264942E+02  0.19999972178E+02 0.  0.
         12    1    1    2    0    0 -0.19630934466E+02  0.22415594800E+02 -0.31556161448E+02  0.43400735058E+02  0.00000000000E+00 0. -1.
         11    1    3    3    0    0  0.39729384318E+01 -0.14624358557E+02  0.18416561823E+02  0.23850070285E+02  0.51100000000E-03 0. -1.
        -11    1    3    3    0    0  0.92292256243E+01 -0.60861836475E+01  0.13286640836E+02  0.17284532449E+02  0.51100000000E-03 0.  1.
        -12    1    3    3    0    0  0.64287704094E+01 -0.17050525954E+01 -0.14704121127E+00  0.66526622075E+01  0.00000000000E+00 0.  1.
</event>
<event>
 7    1  0.2682317E-010  0.4778728E+02  0.7816164E-02  0.1312668E+00
        -11   -1    0    0    0    0  0.00000000000E+00  0.00000000000E+00  0.45593999997E+02  0.45594000000E+02  0.51100000000E-03 0. -1.
         11   -1    0    0    0    0 -0.00000000000E+00 -0.00000000000E+00 -0.45593999997E+02  0.45594000000E+02  0.51100000000E-03 0.  1.
    9900012    2    1    2    0    0  0.28415693281E+02  0.27173987575E+02 -0.18377859073E+02  0.47787275012E+02  0.20000018090E+02 0.  0.
         12    1    1    2    0    0 -0.28415693281E+02 -0.27173987575E+02  0.18377859073E+02  0.43400724988E+02  0.00000000000E+00 0. -1.
         11    1    3    3    0    0  0.12022293637E+02  0.41841827517E+01 -0.56637697647E+01  0.13932739063E+02  0.51100000000E-03 0. -1.
        -11    1    3    3    0    0  0.18845420538E+02  0.20809807817E+02 -0.11001184612E+02  0.30153342099E+02  0.51100000000E-03 0.  1.
        -12    1    3    3    0    0 -0.24520208940E+01  0.21799970066E+01 -0.17129046969E+01  0.37011938499E+01  0.00000000000E+00 0.  1.
</event>
<event>
 7    1  0.2682317E-010  0.4778727E+02  0.7816164E-02  0.1312668E+00
        -11   -1    0    0    0    0  0.00000000000E+00  0.00000000000E+00  0.45593999997E+02  0.45594000000E+02  0.51100000000E-03 0.  1.
         11   -1    0    0    0    0 -0.00000000000E+00 -0.00000000000E+00 -0.45593999997E+02  0.45594000000E+02  0.51100000000E-03 0. -1.
    9900012    2    1    2    0    0 -0.30850515758E+02 -0.73440179397E+01  0.29629963960E+02  0.47787266293E+02  0.19999978336E+02 0.  0.
         12    1    1    2    0    0  0.30850515758E+02  0.73440179397E+01 -0.29629963960E+02  0.43400733707E+02  0.00000000000E+00 0. -1.
         11    1    3    3    0    0 -0.38697884100E+01 -0.46905930583E+01  0.44734137244E+01  0.75490632656E+01  0.51100000000E-03 0. -1.
        -11    1    3    3    0    0 -0.15230620274E+02 -0.62672073483E+01  0.22115544599E+02  0.27574390203E+02  0.51100000000E-03 0.  1.
        -12    1    3    3    0    0 -0.11750107074E+02  0.36137824670E+01  0.30410056361E+01  0.12663812824E+02  0.00000000000E+00 0.  1.
</event>
<event>
 7    1  0.2682317E-010  0.4778727E+02  0.7816164E-02  0.1312668E+00
        -11   -1    0    0    0    0  0.00000000000E+00  0.00000000000E+00  0.45593999997E+02  0.45594000000E+02  0.51100000000E-03 0.  1.
         11   -1    0    0    0    0 -0.00000000000E+00 -0.00000000000E+00 -0.45593999997E+02  0.45594000000E+02  0.51100000000E-03 0. -1.
    9900012    2    1    2    0    0  0.93533327702E+01 -0.40584636807E+02 -0.12207609968E+02  0.47787270516E+02  0.19999997590E+02 0.  0.
         12    1    1    2    0    0 -0.93533327702E+01  0.40584636807E+02  0.12207609968E+02  0.43400729484E+02  0.00000000000E+00 0. -1.
         11    1    3    3    0    0 -0.46482917248E+01 -0.15094806491E+02 -0.45655313495E+01  0.16440920769E+02  0.51100000000E-03 0. -1.
        -11    1    3    3    0    0  0.39207799642E+00 -0.47315255872E+00  0.13485063779E+01  0.14819136990E+01  0.51100000000E-03 0.  1.
        -12    1    3    3    0    0  0.13609546499E+02 -0.25016677756E+02 -0.89905849965E+01  0.29864436048E+02  0.00000000000E+00 0.  1.
</event>
<event>
 7    1  0.2682317E-010  0.4778727E+02  0.7816164E-02  0.1312668E+00
        -11   -1    0    0    0    0  0.00000000000E+00  0.00000000000E+00  0.45593999997E+02  0.45594000000E+02  0.51100000000E-03 0.  1.
         11   -1    0    0    0    0 -0.00000000000E+00 -0.00000000000E+00 -0.45593999997E+02  0.45594000000E+02  0.51100000000E-03 0. -1.
    9900012    2    1    2    0    0  0.42720958149E+02  0.37485221717E+01  0.66702033414E+01  0.47787270786E+02  0.19999998823E+02 0.  0.
         12    1    1    2    0    0 -0.42720958149E+02 -0.37485221717E+01 -0.66702033414E+01  0.43400729214E+02  0.00000000000E+00 0. -1.
         11    1    3    3    0    0  0.85048815376E+01  0.41761750056E+00 -0.53266449237E+01  0.10043931538E+02  0.51100000000E-03 0. -1.
        -11    1    3    3    0    0  0.20746243020E+02  0.25238170896E+01  0.20905528683E+01  0.21003491702E+02  0.51100000000E-03 0.  1.
         12    1    3    3    0    0  0.13469833592E+02  0.80708758159E+00  0.99062953967E+01  0.16739847545E+02  0.00000000000E+00 0. -1.
</event>
<event>
 7    1  0.2682317E-010  0.4778728E+02  0.7816164E-02  0.1312668E+00
        -11   -1    0    0    0    0  0.00000000000E+00  0.00000000000E+00  0.45593999997E+02  0.45594000000E+02  0.51100000000E-03 0.  1.
         11   -1    0    0    0    0 -0.00000000000E+00 -0.00000000000E+00 -0.45593999997E+02  0.45594000000E+02  0.51100000000E-03 0. -1.
    9900012    2    1    2    0    0 -0.29034770503E+02  0.27421109542E+02  0.16990812807E+02  0.47787275737E+02  0.20000021395E+02 0.  0.
         12    1    1    2    0    0  0.29034770503E+02 -0.27421109542E+02 -0.16990812807E+02  0.43400724263E+02  0.00000000000E+00 0. -1.
         11    1    3    3    0    0 -0.24193375131E+02  0.17447975421E+02  0.67799805846E+01  0.30589530619E+02  0.51100000000E-03 0. -1.
        -11    1    3    3    0    0 -0.54316033800E+01  0.39972502726E+01  0.20169900824E+01  0.70390748166E+01  0.51100000000E-03 0.  1.
        -12    1    3    3    0    0  0.59020800760E+00  0.59758838488E+01  0.81938421403E+01  0.10158670301E+02  0.00000000000E+00 0.  1.
</event>
<event>
 7    1  0.2938714E-010  0.4778727E+02  0.7816164E-02  0.1312668E+00
        -11   -1    0    0    0    0  0.00000000000E+00  0.00000000000E+00  0.45593999997E+02  0.45594000000E+02  0.51100000000E-03 0. -1.
         11   -1    0    0    0    0 -0.00000000000E+00 -0.00000000000E+00 -0.45593999997E+02  0.45594000000E+02  0.51100000000E-03 0.  1.
    9900012    2    1    2    0    0  0.14881329777E+02 -0.20539283645E+02 -0.35217994380E+02  0.47787271011E+02  0.19999999847E+02 0.  0.
         12    1    1    2    0    0 -0.14881329777E+02  0.20539283645E+02  0.35217994380E+02  0.43400728989E+02  0.00000000000E+00 0. -1.
         11    1    3    3    0    0  0.50190221274E+01 -0.11519307328E+02 -0.66482649789E+01  0.14215641102E+02  0.51100000000E-03 0. -1.
        -11    1    3    3    0    0  0.93948579821E+01 -0.10182503096E+02 -0.16982880518E+02  0.21917229678E+02  0.51100000000E-03 0.  1.
         12    1    3    3    0    0  0.46744966799E+00  0.11625267791E+01 -0.11586848884E+02  0.11654400232E+02  0.00000000000E+00 0. -1.
</event>
<event>
 7    1  0.2682317E-010  0.4778728E+02  0.7816164E-02  0.1312668E+00
        -11   -1    0    0    0    0  0.00000000000E+00  0.00000000000E+00  0.45593999997E+02  0.45594000000E+02  0.51100000000E-03 0. -1.
         11   -1    0    0    0    0 -0.00000000000E+00 -0.00000000000E+00 -0.45593999997E+02  0.45594000000E+02  0.51100000000E-03 0.  1.
    9900012    2    1    2    0    0  0.41206468184E+02 -0.12224700785E+02  0.60171584396E+01  0.47787279670E+02  0.20000039325E+02 0.  0.
         12    1    1    2    0    0 -0.41206468184E+02  0.12224700785E+02 -0.60171584396E+01  0.43400720330E+02  0.00000000000E+00 0. -1.
         11    1    3    3    0    0  0.10366894948E+02 -0.18247253032E+01  0.38976548301E+01  0.11224698068E+02  0.51100000000E-03 0. -1.
        -11    1    3    3    0    0  0.31730549072E+02 -0.12083734905E+02  0.33926298970E+00  0.33955257226E+02  0.51100000000E-03 0.  1.
        -12    1    3    3    0    0 -0.89097583505E+00  0.16837594230E+01  0.17802406198E+01  0.26073243752E+01  0.00000000000E+00 0.  1.
</event>
<event>
 7    1  0.2682317E-010  0.4778727E+02  0.7816164E-02  0.1312668E+00
        -11   -1    0    0    0    0  0.00000000000E+00  0.00000000000E+00  0.45593999997E+02  0.45594000000E+02  0.51100000000E-03 0.  1.
         11   -1    0    0    0    0 -0.00000000000E+00 -0.00000000000E+00 -0.45593999997E+02  0.45594000000E+02  0.51100000000E-03 0. -1.
    9900012    2    1    2    0    0 -0.71250033490E+01  0.42642400512E+02  0.38056856437E+01  0.47787271465E+02  0.20000001916E+02 0.  0.
         12    1    1    2    0    0  0.71250033490E+01 -0.42642400512E+02 -0.38056856437E+01  0.43400728535E+02  0.00000000000E+00 0. -1.
         11    1    3    3    0    0  0.17564623700E+01  0.22202102947E+02 -0.39727997389E+01  0.22623034132E+02  0.51100000000E-03 0. -1.
        -11    1    3    3    0    0  0.14788682202E+01  0.47705549572E+01  0.28206739761E+01  0.57359783606E+01  0.51100000000E-03 0.  1.
        -12    1    3    3    0    0 -0.10360333939E+02  0.15669742609E+02  0.49578114064E+01  0.19428258972E+02  0.00000000000E+00 0.  1.
</event>
<event>
 7    1  0.2682317E-010  0.4778727E+02  0.7816164E-02  0.1312668E+00
        -11   -1    0    0    0    0  0.00000000000E+00  0.00000000000E+00  0.45593999997E+02  0.45594000000E+02  0.51100000000E-03 0.  1.
         11   -1    0    0    0    0 -0.00000000000E+00 -0.00000000000E+00 -0.45593999997E+02  0.45594000000E+02  0.51100000000E-03 0. -1.
    9900012    2    1    2    0    0  0.32677262037E+01  0.42873653564E+02 -0.58987426356E+01  0.47787269947E+02  0.19999994996E+02 0.  0.
         12    1    1    2    0    0 -0.32677262037E+01 -0.42873653564E+02  0.58987426356E+01  0.43400730053E+02  0.00000000000E+00 0. -1.
         11    1    3    3    0    0 -0.22227952077E-01  0.41396934290E+02 -0.51381760739E+01  0.41714595962E+02  0.51100000000E-03 0. -1.
        -11    1    3    3    0    0  0.28534577905E+01  0.30873281870E+01  0.78781422120E-01  0.42047619992E+01  0.51100000000E-03 0.  1.
         12    1    3    3    0    0  0.43649636529E+00 -0.16106089128E+01 -0.83934798383E+00  0.18679119853E+01  0.00000000000E+00 0. -1.
</event>
<event>
 7    1  0.2682317E-010  0.4778727E+02  0.7816164E-02  0.1312668E+00
        -11   -1    0    0    0    0  0.00000000000E+00  0.00000000000E+00  0.45593999997E+02  0.45594000000E+02  0.51100000000E-03 0. -1.
         11   -1    0    0    0    0 -0.00000000000E+00 -0.00000000000E+00 -0.45593999997E+02  0.45594000000E+02  0.51100000000E-03 0.  1.
    9900012    2    1    2    0    0 -0.53355428549E+00 -0.42586717663E+02 -0.83492372966E+01  0.47787274604E+02  0.20000016230E+02 0.  0.
         12    1    1    2    0    0  0.53355428549E+00  0.42586717663E+02  0.83492372966E+01  0.43400725396E+02  0.00000000000E+00 0. -1.
         11    1    3    3    0    0  0.37575419559E+01 -0.10050415641E+02 -0.34110554691E+00  0.10735284317E+02  0.51100000000E-03 0. -1.
        -11    1    3    3    0    0  0.30775250435E+01 -0.15542392179E+02  0.20473554772E+01  0.15975881188E+02  0.51100000000E-03 0.  1.
        -12    1    3    3    0    0 -0.73686212849E+01 -0.16993909843E+02 -0.10055487227E+02  0.21076109099E+02  0.00000000000E+00 0.  1.
</event>
<event>
 7    1  0.2682317E-010  0.4778727E+02  0.7816164E-02  0.1312668E+00
        -11   -1    0    0    0    0  0.00000000000E+00  0.00000000000E+00  0.45593999997E+02  0.45594000000E+02  0.51100000000E-03 0.  1.
         11   -1    0    0    0    0 -0.00000000000E+00 -0.00000000000E+00 -0.45593999997E+02  0.45594000000E+02  0.51100000000E-03 0. -1.
    9900012    2    1    2    0    0 -0.40506491437E+02  0.22326634301E+01  0.15422792414E+02  0.47787272352E+02  0.20000005961E+02 0.  0.
         12    1    1    2    0    0  0.40506491437E+02 -0.22326634301E+01 -0.15422792414E+02  0.43400727648E+02  0.00000000000E+00 0. -1.
         11    1    3    3    0    0 -0.81902001168E+01  0.91598008160E+00 -0.39825935056E+01  0.91531114249E+01  0.51100000000E-03 0. -1.
        -11    1    3    3    0    0 -0.82897332761E+01  0.33085431244E+01  0.27797965861E+01  0.93484439730E+01  0.51100000000E-03 0.  1.
        -12    1    3    3    0    0 -0.24026558044E+02 -0.19918597759E+01  0.16625589333E+02  0.29285716954E+02  0.00000000000E+00 0.  1.
</event>
<event>
 7    1  0.2682317E-010  0.4778727E+02  0.7816164E-02  0.1312668E+00
        -11   -1    0    0    0    0  0.00000000000E+00  0.00000000000E+00  0.45593999997E+02  0.45594000000E+02  0.51100000000E-03 0.  1.
         11   -1    0    0    0    0 -0.00000000000E+00 -0.00000000000E+00 -0.45593999997E+02  0.45594000000E+02  0.51100000000E-03 0. -1.
    9900012    2    1    2    0    0  0.18065841634E+02  0.13525692133E+00  0.39461760092E+02  0.47787269155E+02  0.19999991384E+02 0.  0.
         12    1    1    2    0    0 -0.18065841634E+02 -0.13525692133E+00 -0.39461760092E+02  0.43400730845E+02  0.00000000000E+00 0. -1.
         11    1    3    3    0    0 -0.33048546852E+00 -0.22564795075E+01  0.22101705170E+01  0.31758108237E+01  0.51100000000E-03 0. -1.
        -11    1    3    3    0    0  0.18653783208E+02  0.17054547688E+01  0.20215956007E+02  0.27560063162E+02  0.51100000000E-03 0.  1.
        -12    1    3    3    0    0 -0.25745610546E+00  0.68628166010E+00  0.17035633568E+02  0.17051395169E+02  0.00000000000E+00 0.  1.
</event>
<event>
 7    1  0.2682317E-010  0.4778726E+02  0.7816164E-02  0.1312668E+00
        -11   -1    0    0    0    0  0.00000000000E+00  0.00000000000E+00  0.45593999997E+02  0.45594000000E+02  0.51100000000E-03 0.  1.
         11   -1    0    0    0    0 -0.00000000000E+00 -0.00000000000E+00 -0.45593999997E+02  0.45594000000E+02  0.51100000000E-03 0. -1.
    9900012    2    1    2    0    0 -0.31030277178E+02  0.23996847562E+02  0.18571404888E+02  0.47787264129E+02  0.19999968469E+02 0.  0.
         12    1    1    2    0    0  0.31030277178E+02 -0.23996847562E+02 -0.18571404888E+02  0.43400735871E+02  0.00000000000E+00 0. -1.
         11    1    3    3    0    0 -0.40958548965E+01  0.71291797039E+00  0.25301732186E+01  0.48668322494E+01  0.51100000000E-03 0. -1.
        -11    1    3    3    0    0 -0.21648285668E+02  0.25347143099E+02  0.16563426325E+02  0.37221942823E+02  0.51100000000E-03 0.  1.
         12    1    3    3    0    0 -0.52861366133E+01 -0.20632135073E+01 -0.52219465497E+00  0.56984890567E+01  0.00000000000E+00 0. -1.
</event>
<event>
 7    1  0.2682317E-010  0.4778729E+02  0.7816164E-02  0.1312668E+00
        -11   -1    0    0    0    0  0.00000000000E+00  0.00000000000E+00  0.45593999997E+02  0.45594000000E+02  0.51100000000E-03 0.  1.
         11   -1    0    0    0    0 -0.00000000000E+00 -0.00000000000E+00 -0.45593999997E+02  0.45594000000E+02  0.51100000000E-03 0. -1.
    9900012    2    1    2    0    0  0.79466848456E+01 -0.17192149437E+02  0.39049992534E+02  0.47787288955E+02  0.20000081660E+02 0.  0.
         12    1    1    2    0    0 -0.79466848456E+01  0.17192149437E+02 -0.39049992534E+02  0.43400711045E+02  0.00000000000E+00 0. -1.
         11    1    3    3    0    0 -0.16341106356E+01 -0.13079507952E+01  0.28314627507E+01  0.35211126682E+01  0.51100000000E-03 0. -1.
        -11    1    3    3    0    0 -0.35950918951E+01 -0.17872084184E+01  0.15253387429E+02  0.15772908039E+02  0.51100000000E-03 0.  1.
         12    1    3    3    0    0  0.13175887376E+02 -0.14096990223E+02  0.20965142354E+02  0.28493268248E+02  0.00000000000E+00 0. -1.
</event>
<event>
 7    1  0.2682317E-010  0.4778731E+02  0.7816164E-02  0.1312668E+00
        -11   -1    0    0    0    0  0.00000000000E+00  0.00000000000E+00  0.45593999997E+02  0.45594000000E+02  0.51100000000E-03 0.  1.
         11   -1    0    0    0    0 -0.00000000000E+00 -0.00000000000E+00 -0.45593999997E+02  0.45594000000E+02  0.51100000000E-03 0. -1.
    9900012    2    1    2    0    0 -0.55528369561E+01  0.15244309260E+02  0.40254151878E+02  0.47787312143E+02  0.20000187382E+02 0.  0.
         12    1    1    2    0    0  0.55528369561E+01 -0.15244309260E+02 -0.40254151878E+02  0.43400687857E+02  0.00000000000E+00 0. -1.
         11    1    3    3    0    0 -0.92649234735E+01  0.42818101295E+01  0.65828393414E+01  0.12145224535E+02  0.51100000000E-03 0. -1.
        -11    1    3    3    0    0  0.13619796307E+01  0.33404862841E+01  0.12799891526E+02  0.13298536027E+02  0.51100000000E-03 0.  1.
         12    1    3    3    0    0  0.23501068867E+01  0.76220128466E+01  0.20871421011E+02  0.22343551580E+02  0.00000000000E+00 0. -1.
</event>
<event>
 7    1  0.2682317E-010  0.4778726E+02  0.7816164E-02  0.1312668E+00
        -11   -1    0    0    0    0  0.00000000000E+00  0.00000000000E+00  0.45593999997E+02  0.45594000000E+02  0.51100000000E-03 0.  1.
         11   -1    0    0    0    0 -0.00000000000E+00 -0.00000000000E+00 -0.45593999997E+02  0.45594000000E+02  0.51100000000E-03 0. -1.
    9900012    2    1    2    0    0  0.21614367441E+02 -0.25184791423E+02  0.27967292328E+02  0.47787262229E+02  0.19999959807E+02 0.  0.
         12    1    1    2    0    0 -0.21614367441E+02  0.25184791423E+02 -0.27967292328E+02  0.43400737771E+02  0.00000000000E+00 0. -1.
         11    1    3    3    0    0  0.45287653838E+01 -0.19734986999E+01  0.52532642065E+01  0.72111856240E+01  0.51100000000E-03 0. -1.
        -11    1    3    3    0    0  0.20569048051E+02 -0.19439999319E+02  0.17590906237E+02  0.33323254549E+02  0.51100000000E-03 0.  1.
         12    1    3    3    0    0 -0.34834459935E+01 -0.37712934033E+01  0.51231218847E+01  0.72528220555E+01  0.00000000000E+00 0. -1.
</event>
<event>
 7    1  0.2682317E-010  0.4778727E+02  0.7816164E-02  0.1312668E+00
        -11   -1    0    0    0    0  0.00000000000E+00  0.00000000000E+00  0.45593999997E+02  0.45594000000E+02  0.51100000000E-03 0.  1.
         11   -1    0    0    0    0 -0.00000000000E+00 -0.00000000000E+00 -0.45593999997E+02  0.45594000000E+02  0.51100000000E-03 0. -1.
    9900012    2    1    2    0    0 -0.12887455201E+02  0.25207853021E+02  0.32895301297E+02  0.47787271862E+02  0.20000003727E+02 0.  0.
         12    1    1    2    0    0  0.12887455201E+02 -0.25207853021E+02 -0.32895301297E+02  0.43400728138E+02  0.00000000000E+00 0. -1.
         11    1    3    3    0    0 -0.11308863966E+02  0.15972834914E+02  0.19026774218E+02  0.27295420802E+02  0.51100000000E-03 0. -1.
        -11    1    3    3    0    0  0.31531604499E-01  0.10513111133E+02  0.54811115601E+01  0.11856183371E+02  0.51100000000E-03 0.  1.
         12    1    3    3    0    0 -0.16101228396E+01 -0.12780930251E+01  0.83874155189E+01  0.86356676885E+01  0.00000000000E+00 0. -1.
</event>
<event>
 7    1  0.2682317E-010  0.4778727E+02  0.7816164E-02  0.1312668E+00
        -11   -1    0    0    0    0  0.00000000000E+00  0.00000000000E+00  0.45593999997E+02  0.45594000000E+02  0.51100000000E-03 0.  1.
         11   -1    0    0    0    0 -0.00000000000E+00 -0.00000000000E+00 -0.45593999997E+02  0.45594000000E+02  0.51100000000E-03 0. -1.
    9900012    2    1    2    0    0  0.43330305266E+01 -0.19060389698E+02  0.38749835338E+02  0.47787270193E+02  0.19999996119E+02 0.  0.
         12    1    1    2    0    0 -0.43330305266E+01  0.19060389698E+02 -0.38749835338E+02  0.43400729807E+02  0.00000000000E+00 0. -1.
         11    1    3    3    0    0  0.50366290591E+00 -0.85109373320E+01  0.71346948970E+01  0.11117265947E+02  0.51100000000E-03 0. -1.
        -11    1    3    3    0    0 -0.50726821612E+01 -0.43069187433E+00  0.92299517415E+01  0.10540854292E+02  0.51100000000E-03 0.  1.
         12    1    3    3    0    0  0.89020497819E+01 -0.10118760492E+02  0.22385188700E+02  0.26129149954E+02  0.00000000000E+00 0. -1.
</event>
<event>
 7    1  0.2682317E-010  0.4778727E+02  0.7816164E-02  0.1312668E+00
        -11   -1    0    0    0    0  0.00000000000E+00  0.00000000000E+00  0.45593999997E+02  0.45594000000E+02  0.51100000000E-03 0.  1.
         11   -1    0    0    0    0 -0.00000000000E+00 -0.00000000000E+00 -0.45593999997E+02  0.45594000000E+02  0.51100000000E-03 0. -1.
    9900012    2    1    2    0    0  0.13581713751E+02 -0.40833162484E+02 -0.56403008100E+01  0.47787273046E+02  0.20000009127E+02 0.  0.
         12    1    1    2    0    0 -0.13581713751E+02  0.40833162484E+02  0.56403008100E+01  0.43400726954E+02  0.00000000000E+00 0. -1.
         11    1    3    3    0    0 -0.12659772348E+01 -0.44620067844E+01  0.36392843821E+01  0.58954723287E+01  0.51100000000E-03 0. -1.
        -11    1    3    3    0    0 -0.78114435213E+00 -0.64242644551E+00 -0.19710604257E+01  0.22153956079E+01  0.51100000000E-03 0.  1.
        -12    1    3    3    0    0  0.15628835338E+02 -0.35728729254E+02 -0.73085247665E+01  0.39676405110E+02  0.00000000000E+00 0.  1.
</event>
<event>
 7    1  0.2682317E-010  0.4778728E+02  0.7816164E-02  0.1312668E+00
        -11   -1    0    0    0    0  0.00000000000E+00  0.00000000000E+00  0.45593999997E+02  0.45594000000E+02  0.51100000000E-03 0. -1.
         11   -1    0    0    0    0 -0.00000000000E+00 -0.00000000000E+00 -0.45593999997E+02  0.45594000000E+02  0.51100000000E-03 0.  1.
    9900012    2    1    2    0    0  0.20762816552E+02 -0.28277717005E+02 -0.25551883613E+02  0.47787278965E+02  0.20000036111E+02 0.  0.
         12    1    1    2    0    0 -0.20762816552E+02  0.28277717005E+02  0.25551883613E+02  0.43400721035E+02  0.00000000000E+00 0. -1.
         11    1    3    3    0    0  0.73182410568E+01 -0.59891596502E+01  0.11009585803E-01  0.94565748003E+01  0.51100000000E-03 0. -1.
        -11    1    3    3    0    0  0.12401560788E+02 -0.10435455703E+02 -0.11310598147E+02  0.19764287905E+02  0.51100000000E-03 0.  1.
         12    1    3    3    0    0  0.10430147080E+01 -0.11853101652E+02 -0.14252295052E+02  0.18566416259E+02  0.00000000000E+00 0. -1.
</event>
<event>
 7    1  0.2682317E-010  0.4778727E+02  0.7816164E-02  0.1312668E+00
        -11   -1    0    0    0    0  0.00000000000E+00  0.00000000000E+00  0.45593999997E+02  0.45594000000E+02  0.51100000000E-03 0.  1.
         11   -1    0    0    0    0 -0.00000000000E+00 -0.00000000000E+00 -0.45593999997E+02  0.45594000000E+02  0.51100000000E-03 0. -1.
    9900012    2    1    2    0    0 -0.36052887178E+02 -0.75849291487E+01  0.22940825062E+02  0.47787270990E+02  0.19999999752E+02 0.  0.
         12    1    1    2    0    0  0.36052887178E+02  0.75849291487E+01 -0.22940825062E+02  0.43400729010E+02  0.00000000000E+00 0. -1.
         11    1    3    3    0    0 -0.60505574944E+01 -0.70309615449E+01  0.24138516638E+01  0.95849020003E+01  0.51100000000E-03 0. -1.
        -11    1    3    3    0    0 -0.47650612154E+01 -0.25845852160E+01 -0.28398281568E+00  0.54283087261E+01  0.51100000000E-03 0.  1.
        -12    1    3    3    0    0 -0.25237268468E+02  0.20306176121E+01  0.20810956214E+02  0.32774060264E+02  0.00000000000E+00 0.  1.
</event>
<event>
 7    1  0.2682317E-010  0.4778727E+02  0.7816164E-02  0.1312668E+00
        -11   -1    0    0    0    0  0.00000000000E+00  0.00000000000E+00  0.45593999997E+02  0.45594000000E+02  0.51100000000E-03 0.  1.
         11   -1    0    0    0    0 -0.00000000000E+00 -0.00000000000E+00 -0.45593999997E+02  0.45594000000E+02  0.51100000000E-03 0. -1.
    9900012    2    1    2    0    0  0.11558707647E+02  0.36047192702E+02  0.21227799192E+02  0.47787270943E+02  0.19999999537E+02 0.  0.
         12    1    1    2    0    0 -0.11558707647E+02 -0.36047192702E+02 -0.21227799192E+02  0.43400729057E+02  0.00000000000E+00 0. -1.
         11    1    3    3    0    0  0.36148365054E+01  0.46031601116E+00 -0.13941758690E+01  0.39016227913E+01  0.51100000000E-03 0. -1.
        -11    1    3    3    0    0  0.30139995146E+01  0.31462864263E+01  0.67363017179E+00  0.44087514355E+01  0.51100000000E-03 0.  1.
        -12    1    3    3    0    0  0.49298716269E+01  0.32440590264E+02  0.21948344889E+02  0.39476896716E+02  0.00000000000E+00 0.  1.
</event>
<event>
 7    1  0.2682317E-010  0.4778727E+02  0.7816164E-02  0.1312668E+00
        -11   -1    0    0    0    0  0.00000000000E+00  0.00000000000E+00  0.45593999997E+02  0.45594000000E+02  0.51100000000E-03 0. -1.
         11   -1    0    0    0    0 -0.00000000000E+00 -0.00000000000E+00 -0.45593999997E+02  0.45594000000E+02  0.51100000000E-03 0.  1.
    9900012    2    1    2    0    0 -0.37480999426E+02 -0.21547847229E+02 -0.38063132051E+01  0.47787273527E+02  0.20000011319E+02 0.  0.
         12    1    1    2    0    0  0.37480999426E+02  0.21547847229E+02  0.38063132051E+01  0.43400726473E+02  0.00000000000E+00 0. -1.
         11    1    3    3    0    0 -0.55028323768E+01 -0.59202628956E+01  0.44253055375E+01  0.92148796130E+01  0.51100000000E-03 0. -1.
        -11    1    3    3    0    0 -0.14989619026E+02 -0.10124090947E+02  0.16492428694E+01  0.18163311877E+02  0.51100000000E-03 0.  1.
        -12    1    3    3    0    0 -0.16988548023E+02 -0.55034933866E+01 -0.98808616119E+01  0.20409082037E+02  0.00000000000E+00 0.  1.
</event>
<event>
 7    1  0.2682317E-010  0.4778727E+02  0.7816164E-02  0.1312668E+00
        -11   -1    0    0    0    0  0.00000000000E+00  0.00000000000E+00  0.45593999997E+02  0.45594000000E+02  0.51100000000E-03 0.  1.
         11   -1    0    0    0    0 -0.00000000000E+00 -0.00000000000E+00 -0.45593999997E+02  0.45594000000E+02  0.51100000000E-03 0. -1.
    9900012    2    1    2    0    0 -0.42459939742E+02  0.27006734352E+01  0.85722531586E+01  0.47787266779E+02  0.19999980552E+02 0.  0.
         12    1    1    2    0    0  0.42459939742E+02 -0.27006734352E+01 -0.85722531586E+01  0.43400733221E+02  0.00000000000E+00 0. -1.
         11    1    3    3    0    0 -0.42066317709E+01  0.54426102161E+01 -0.20384654216E+00  0.68818101175E+01  0.51100000000E-03 0. -1.
        -11    1    3    3    0    0 -0.54370715045E+01 -0.40284150037E+01  0.35800737569E+01  0.76555079749E+01  0.51100000000E-03 0.  1.
        -12    1    3    3    0    0 -0.32816236467E+02  0.12864782229E+01  0.51960259439E+01  0.33249948687E+02  0.00000000000E+00 0.  1.
</event>
<event>
 7    1  0.2682317E-010  0.4778727E+02  0.7816164E-02  0.1312668E+00
        -11   -1    0    0    0    0  0.00000000000E+00  0.00000000000E+00  0.45593999997E+02  0.45594000000E+02  0.51100000000E-03 0.  1.
         11   -1    0    0    0    0 -0.00000000000E+00 -0.00000000000E+00 -0.45593999997E+02  0.45594000000E+02  0.51100000000E-03 0. -1.
    9900012    2    1    2    0    0  0.31969167959E+02  0.83867653818E+01  0.28129305404E+02  0.47787270097E+02  0.19999995682E+02 0.  0.
         12    1    1    2    0    0 -0.31969167959E+02 -0.83867653818E+01 -0.28129305404E+02  0.43400729903E+02  0.00000000000E+00 0. -1.
         11    1    3    3    0    0  0.21652380277E+02  0.15565960232E+00  0.12865669741E+02  0.25186807255E+02  0.51100000000E-03 0. -1.
        -11    1    3    3    0    0  0.12304481227E+02  0.67028060830E+01  0.11764010787E+02  0.18295349620E+02  0.51100000000E-03 0.  1.
         12    1    3    3    0    0 -0.19876935443E+01  0.15282996965E+01  0.34996248758E+01  0.43051132226E+01  0.00000000000E+00 0. -1.
</event>
<event>
 7    1  0.2682317E-010  0.4778728E+02  0.7816164E-02  0.1312668E+00
        -11   -1    0    0    0    0  0.00000000000E+00  0.00000000000E+00  0.45593999997E+02  0.45594000000E+02  0.51100000000E-03 0.  1.
         11   -1    0    0    0    0 -0.00000000000E+00 -0.00000000000E+00 -0.45593999997E+02  0.45594000000E+02  0.51100000000E-03 0. -1.
    9900012    2    1    2    0    0 -0.70938398759E+00 -0.28265567823E+02  0.32926846200E+02  0.47787277073E+02  0.20000027485E+02 0.  0.
         12    1    1    2    0    0  0.70938398759E+00  0.28265567823E+02 -0.32926846200E+02  0.43400722927E+02  0.00000000000E+00 0. -1.
         11    1    3    3    0    0  0.46898752800E+01 -0.46342219638E+01  0.80901809032E+01  0.10436568912E+02  0.51100000000E-03 0. -1.
        -11    1    3    3    0    0 -0.30896794126E+01 -0.10686376875E+02  0.20813350108E+02  0.23599582890E+02  0.51100000000E-03 0.  1.
         12    1    3    3    0    0 -0.23095798550E+01 -0.12944968984E+02  0.40233151883E+01  0.13751125271E+02  0.00000000000E+00 0. -1.
</event>
<event>
 7    1  0.2682317E-010  0.4778727E+02  0.7816164E-02  0.1312668E+00
        -11   -1    0    0    0    0  0.00000000000E+00  0.00000000000E+00  0.45593999997E+02  0.45594000000E+02  0.51100000000E-03 0.  1.
         11   -1    0    0    0    0 -0.00000000000E+00 -0.00000000000E+00 -0.45593999997E+02  0.45594000000E+02  0.51100000000E-03 0. -1.
    9900012    2    1    2    0    0  0.28030734197E+02 -0.19035216276E+02  0.27121240056E+02  0.47787272121E+02  0.20000004907E+02 0.  0.
         12    1    1    2    0    0 -0.28030734197E+02  0.19035216276E+02 -0.27121240056E+02  0.43400727879E+02  0.00000000000E+00 0. -1.
         11    1    3    3    0    0  0.21513543520E+02 -0.14942852534E+02  0.20849052954E+02  0.33478417017E+02  0.51100000000E-03 0. -1.
        -11    1    3    3    0    0  0.61260425263E+01  0.48894162117E+00  0.73555601431E+01  0.95849739813E+01  0.51100000000E-03 0.  1.
         12    1    3    3    0    0  0.39114815071E+00 -0.45813053641E+01 -0.10833730413E+01  0.47238811228E+01  0.00000000000E+00 0. -1.
</event>
<event>
 7    1  0.2682317E-010  0.4778727E+02  0.7816164E-02  0.1312668E+00
        -11   -1    0    0    0    0  0.00000000000E+00  0.00000000000E+00  0.45593999997E+02  0.45594000000E+02  0.51100000000E-03 0.  1.
         11   -1    0    0    0    0 -0.00000000000E+00 -0.00000000000E+00 -0.45593999997E+02  0.45594000000E+02  0.51100000000E-03 0. -1.
    9900012    2    1    2    0    0 -0.32335667701E+01  0.32615662084E+02  0.28449704253E+02  0.47787273747E+02  0.20000012323E+02 0.  0.
         12    1    1    2    0    0  0.32335667701E+01 -0.32615662084E+02 -0.28449704253E+02  0.43400726253E+02  0.00000000000E+00 0. -1.
         11    1    3    3    0    0  0.60158743773E+00  0.29493292360E+01  0.12832396993E+02  0.13180700407E+02  0.51100000000E-03 0. -1.
        -11    1    3    3    0    0 -0.90082563305E+00  0.20453334332E+01 -0.76104826765E+00  0.23609469289E+01  0.51100000000E-03 0.  1.
        -12    1    3    3    0    0 -0.29343285747E+01  0.27620999414E+02  0.16378355528E+02  0.32245626411E+02  0.00000000000E+00 0.  1.
</event>
<event>
 7    1  0.2682317E-010  0.4778727E+02  0.7816164E-02  0.1312668E+00
        -11   -1    0    0    0    0  0.00000000000E+00  0.00000000000E+00  0.45593999997E+02  0.45594000000E+02  0.51100000000E-03 0.  1.
         11   -1    0    0    0    0 -0.00000000000E+00 -0.00000000000E+00 -0.45593999997E+02  0.45594000000E+02  0.51100000000E-03 0. -1.
    9900012    2    1    2    0    0  0.38852339014E+02  0.18157457214E+02 -0.66652545020E+01  0.47787272852E+02  0.20000008243E+02 0.  0.
         12    1    1    2    0    0 -0.38852339014E+02 -0.18157457214E+02  0.66652545020E+01  0.43400727148E+02  0.00000000000E+00 0. -1.
         11    1    3    3    0    0  0.18021450071E+01 -0.53279632773E-01  0.18163543491E+01  0.25592398732E+01  0.51100000000E-03 0. -1.
        -11    1    3    3    0    0  0.12185298342E+02 -0.58994162881E+00  0.19540483665E+01  0.12355073132E+02  0.51100000000E-03 0.  1.
        -12    1    3    3    0    0  0.24864895665E+02  0.18800678475E+02 -0.10435657218E+02  0.32872959848E+02  0.00000000000E+00 0.  1.
</event>
<event>
 7    1  0.2682317E-010  0.4778727E+02  0.7816164E-02  0.1312668E+00
        -11   -1    0    0    0    0  0.00000000000E+00  0.00000000000E+00  0.45593999997E+02  0.45594000000E+02  0.51100000000E-03 0.  1.
         11   -1    0    0    0    0 -0.00000000000E+00 -0.00000000000E+00 -0.45593999997E+02  0.45594000000E+02  0.51100000000E-03 0. -1.
    9900012    2    1    2    0    0  0.37940239083E+02  0.18635978714E+02 -0.98418533776E+01  0.47787268183E+02  0.19999986955E+02 0.  0.
         12    1    1    2    0    0 -0.37940239083E+02 -0.18635978714E+02  0.98418533776E+01  0.43400731817E+02  0.00000000000E+00 0. -1.
         11    1    3    3    0    0  0.15349012462E+02  0.12290014668E+02 -0.11983614454E+02  0.23027020209E+02  0.51100000000E-03 0. -1.
        -11    1    3    3    0    0  0.18581682188E+01  0.93345307813E+00 -0.20568812213E+01  0.29248733986E+01  0.51100000000E-03 0.  1.
        -12    1    3    3    0    0  0.20733058403E+02  0.54125109676E+01  0.41986422973E+01  0.21835374575E+02  0.00000000000E+00 0.  1.
</event>
<event>
 7    1  0.2682317E-010  0.4778727E+02  0.7816164E-02  0.1312668E+00
        -11   -1    0    0    0    0  0.00000000000E+00  0.00000000000E+00  0.45593999997E+02  0.45594000000E+02  0.51100000000E-03 0. -1.
         11   -1    0    0    0    0 -0.00000000000E+00 -0.00000000000E+00 -0.45593999997E+02  0.45594000000E+02  0.51100000000E-03 0.  1.
    9900012    2    1    2    0    0 -0.25160249964E+02 -0.32125034478E+02  0.14784012630E+02  0.47787273648E+02  0.20000011872E+02 0.  0.
         12    1    1    2    0    0  0.25160249964E+02  0.32125034478E+02 -0.14784012630E+02  0.43400726352E+02  0.00000000000E+00 0. -1.
         11    1    3    3    0    0 -0.13274310558E+02 -0.40413608156E+01  0.31273105088E+01  0.14223923133E+02  0.51100000000E-03 0. -1.
        -11    1    3    3    0    0 -0.98755042315E+00 -0.52543208881E+01  0.51932376074E+01  0.74533791626E+01  0.51100000000E-03 0.  1.
        -12    1    3    3    0    0 -0.10898388983E+02 -0.22829352774E+02  0.64634645135E+01  0.26109971352E+02  0.00000000000E+00 0.  1.
</event>
<event>
 7    1  0.2682317E-010  0.4778727E+02  0.7816164E-02  0.1312668E+00
        -11   -1    0    0    0    0  0.00000000000E+00  0.00000000000E+00  0.45593999997E+02  0.45594000000E+02  0.51100000000E-03 0. -1.
         11   -1    0    0    0    0 -0.00000000000E+00 -0.00000000000E+00 -0.45593999997E+02  0.45594000000E+02  0.51100000000E-03 0.  1.
    9900012    2    1    2    0    0  0.53992848795E+00  0.51808963027E+01 -0.43087007011E+02  0.47787269794E+02  0.19999994299E+02 0.  0.
         12    1    1    2    0    0 -0.53992848795E+00 -0.51808963027E+01  0.43087007011E+02  0.43400730206E+02  0.00000000000E+00 0. -1.
         11    1    3    3    0    0  0.10209462558E+00  0.66472439388E+01 -0.19896870959E+02  0.20978125500E+02  0.51100000000E-03 0. -1.
        -11    1    3    3    0    0 -0.28186829241E+01 -0.24514113954E+01 -0.23105838940E+02  0.23405857912E+02  0.51100000000E-03 0.  1.
        -12    1    3    3    0    0  0.32565167865E+01  0.98506375932E+00 -0.84297112163E-01  0.34032863814E+01  0.00000000000E+00 0.  1.
</event>
<event>
 7    1  0.2682317E-010  0.4778727E+02  0.7816164E-02  0.1312668E+00
        -11   -1    0    0    0    0  0.00000000000E+00  0.00000000000E+00  0.45593999997E+02  0.45594000000E+02  0.51100000000E-03 0. -1.
         11   -1    0    0    0    0 -0.00000000000E+00 -0.00000000000E+00 -0.45593999997E+02  0.45594000000E+02  0.51100000000E-03 0.  1.
    9900012    2    1    2    0    0  0.12040668280E+02 -0.18122267422E+02 -0.37553013848E+02  0.47787272838E+02  0.20000008177E+02 0.  0.
         12    1    1    2    0    0 -0.12040668280E+02  0.18122267422E+02  0.37553013848E+02  0.43400727162E+02  0.00000000000E+00 0. -1.
         11    1    3    3    0    0 -0.34167693121E+01 -0.50837441829E+01 -0.42981384566E+01  0.74828311422E+01  0.51100000000E-03 0. -1.
        -11    1    3    3    0    0  0.31194148214E+01  0.71594740127E+00 -0.14320739324E+01  0.35063036831E+01  0.51100000000E-03 0.  1.
        -12    1    3    3    0    0  0.12338022770E+02 -0.13754470641E+02 -0.31822801459E+02  0.36798138012E+02  0.00000000000E+00 0.  1.
</event>
<event>
 7    1  0.2682317E-010  0.4778727E+02  0.7816164E-02  0.1312668E+00
        -11   -1    0    0    0    0  0.00000000000E+00  0.00000000000E+00  0.45593999997E+02  0.45594000000E+02  0.51100000000E-03 0. -1.
         11   -1    0    0    0    0 -0.00000000000E+00 -0.00000000000E+00 -0.45593999997E+02  0.45594000000E+02  0.51100000000E-03 0.  1.
    9900012    2    1    2    0    0 -0.34218298894E+02  0.39094222261E+01 -0.26409233610E+02  0.47787272112E+02  0.20000004865E+02 0.  0.
         12    1    1    2    0    0  0.34218298894E+02 -0.39094222261E+01  0.26409233610E+02  0.43400727888E+02  0.00000000000E+00 0. -1.
         11    1    3    3    0    0 -0.95824224623E+01 -0.12147977622E+01 -0.10200916420E+02  0.14048389585E+02  0.51100000000E-03 0. -1.
        -11    1    3    3    0    0 -0.25485407894E+02  0.78105373882E+01 -0.13716148095E+02  0.29977378616E+02  0.51100000000E-03 0.  1.
        -12    1    3    3    0    0  0.84953146209E+00 -0.26863174000E+01 -0.24921690948E+01  0.37615039114E+01  0.00000000000E+00 0.  1.
</event>
<event>
 7    1  0.2682317E-010  0.4778727E+02  0.7816164E-02  0.1312668E+00
        -11   -1    0    0    0    0  0.00000000000E+00  0.00000000000E+00  0.45593999997E+02  0.45594000000E+02  0.51100000000E-03 0.  1.
         11   -1    0    0    0    0 -0.00000000000E+00 -0.00000000000E+00 -0.45593999997E+02  0.45594000000E+02  0.51100000000E-03 0. -1.
    9900012    2    1    2    0    0  0.34276290973E+02 -0.25866036529E+02 -0.63013739741E+01  0.47787270945E+02  0.19999999545E+02 0.  0.
         12    1    1    2    0    0 -0.34276290973E+02  0.25866036529E+02  0.63013739741E+01  0.43400729055E+02  0.00000000000E+00 0. -1.
         11    1    3    3    0    0  0.13652533926E+02 -0.36360777124E+01 -0.50880606918E+01  0.15016694230E+02  0.51100000000E-03 0. -1.
        -11    1    3    3    0    0  0.54857546310E+01 -0.24226320829E+01 -0.46721583001E+01  0.76020861297E+01  0.51100000000E-03 0.  1.
        -12    1    3    3    0    0  0.15138002416E+02 -0.19807326734E+02  0.34588450178E+01  0.25168490585E+02  0.00000000000E+00 0.  1.
</event>
<event>
 7    1  0.2682317E-010  0.4778728E+02  0.7816164E-02  0.1312668E+00
        -11   -1    0    0    0    0  0.00000000000E+00  0.00000000000E+00  0.45593999997E+02  0.45594000000E+02  0.51100000000E-03 0. -1.
         11   -1    0    0    0    0 -0.00000000000E+00 -0.00000000000E+00 -0.45593999997E+02  0.45594000000E+02  0.51100000000E-03 0.  1.
    9900012    2    1    2    0    0 -0.33973191476E+02  0.14029506126E+02 -0.23078514539E+02  0.47787278641E+02  0.20000034635E+02 0.  0.
         12    1    1    2    0    0  0.33973191476E+02 -0.14029506126E+02  0.23078514539E+02  0.43400721359E+02  0.00000000000E+00 0. -1.
         11    1    3    3    0    0 -0.26560638287E+01  0.25788004890E+01 -0.69274871140E+01  0.78546142490E+01  0.51100000000E-03 0. -1.
        -11    1    3    3    0    0  0.14715516880E+01 -0.85731543287E-01 -0.18027554580E+01  0.23286781166E+01  0.51100000000E-03 0.  1.
         12    1    3    3    0    0 -0.32788679335E+02  0.11536437180E+02 -0.14348271967E+02  0.37603986275E+02  0.00000000000E+00 0. -1.
</event>
<event>
 7    1  0.2682317E-010  0.4778727E+02  0.7816164E-02  0.1312668E+00
        -11   -1    0    0    0    0  0.00000000000E+00  0.00000000000E+00  0.45593999997E+02  0.45594000000E+02  0.51100000000E-03 0.  1.
         11   -1    0    0    0    0 -0.00000000000E+00 -0.00000000000E+00 -0.45593999997E+02  0.45594000000E+02  0.51100000000E-03 0. -1.
    9900012    2    1    2    0    0  0.19717510895E+02  0.38266053454E+02  0.55274056590E+01  0.47787270788E+02  0.19999998829E+02 0.  0.
         12    1    1    2    0    0 -0.19717510895E+02 -0.38266053454E+02 -0.55274056590E+01  0.43400729212E+02  0.00000000000E+00 0. -1.
         11    1    3    3    0    0 -0.14831885560E+01  0.41675499644E+01  0.28006897049E+01  0.52356646266E+01  0.51100000000E-03 0. -1.
        -11    1    3    3    0    0  0.27843973260E+01 -0.78492668302E+00 -0.63662200509E+00  0.29621387890E+01  0.51100000000E-03 0.  1.
        -12    1    3    3    0    0  0.18416302125E+02  0.34883430173E+02  0.33633379592E+01  0.39589467372E+02  0.00000000000E+00 0.  1.
</event>
<event>
 7    1  0.2682317E-010  0.4778727E+02  0.7816164E-02  0.1312668E+00
        -11   -1    0    0    0    0  0.00000000000E+00  0.00000000000E+00  0.45593999997E+02  0.45594000000E+02  0.51100000000E-03 0.  1.
         11   -1    0    0    0    0 -0.00000000000E+00 -0.00000000000E+00 -0.45593999997E+02  0.45594000000E+02  0.51100000000E-03 0. -1.
    9900012    2    1    2    0    0  0.29108522460E+02  0.29466319435E+02  0.12963543971E+02  0.47787268058E+02  0.19999986383E+02 0.  0.
         12    1    1    2    0    0 -0.29108522460E+02 -0.29466319435E+02 -0.12963543971E+02  0.43400731942E+02  0.00000000000E+00 0. -1.
         11    1    3    3    0    0  0.10706909287E+02  0.10498176118E+02  0.14050600308E+02  0.20549184353E+02  0.51100000000E-03 0. -1.
        -11    1    3    3    0    0 -0.54040962173E+00  0.36092313246E+00  0.10827996294E+00  0.65881171688E+00  0.51100000000E-03 0.  1.
        -12    1    3    3    0    0  0.18942022795E+02  0.18607220184E+02 -0.11953363004E+01  0.26579271988E+02  0.00000000000E+00 0.  1.
</event>
<event>
 7    1  0.2682317E-010  0.4778725E+02  0.7816164E-02  0.1312668E+00
        -11   -1    0    0    0    0  0.00000000000E+00  0.00000000000E+00  0.45593999997E+02  0.45594000000E+02  0.51100000000E-03 0.  1.
         11   -1    0    0    0    0 -0.00000000000E+00 -0.00000000000E+00 -0.45593999997E+02  0.45594000000E+02  0.51100000000E-03 0. -1.
    9900012    2    1    2    0    0 -0.31052407273E+02  0.29087261508E+02 -0.85617887997E+01  0.47787251079E+02  0.19999908968E+02 0.  0.
         12    1    1    2    0    0  0.31052407273E+02 -0.29087261508E+02  0.85617887997E+01  0.43400748921E+02  0.00000000000E+00 0. -1.
         11    1    3    3    0    0 -0.76279210227E+01  0.19599124575E+02 -0.74456286480E+01  0.22310272285E+02  0.51100000000E-03 0. -1.
        -11    1    3    3    0    0 -0.46919511810E+01  0.31780828247E+01  0.15822727436E+00  0.56691844614E+01  0.51100000000E-03 0.  1.
         12    1    3    3    0    0 -0.18732535070E+02  0.63100541086E+01 -0.12743874260E+01  0.19807794332E+02  0.00000000000E+00 0. -1.
</event>
<event>
 7    1  0.2682317E-010  0.4778727E+02  0.7816164E-02  0.1312668E+00
        -11   -1    0    0    0    0  0.00000000000E+00  0.00000000000E+00  0.45593999997E+02  0.45594000000E+02  0.51100000000E-03 0.  1.
         11   -1    0    0    0    0 -0.00000000000E+00 -0.00000000000E+00 -0.45593999997E+02  0.45594000000E+02  0.51100000000E-03 0. -1.
    9900012    2    1    2    0    0 -0.27584314093E+02  0.33431944395E+02  0.22435945907E+01  0.47787274123E+02  0.20000014034E+02 0.  0.
         12    1    1    2    0    0  0.27584314093E+02 -0.33431944395E+02 -0.22435945907E+01  0.43400725877E+02  0.00000000000E+00 0. -1.
         11    1    3    3    0    0 -0.90482968548E+01  0.20139982004E+02 -0.20130460757E+01  0.22170766921E+02  0.51100000000E-03 0.  1.
        -11    1    3    3    0    0 -0.85157831915E+01  0.12046634707E+02  0.25408499035E+00  0.14754813810E+02  0.51100000000E-03 0. -1.
        -12    1    3    3    0    0 -0.10020234047E+02  0.12453276838E+01  0.40025556760E+01  0.10861693392E+02  0.00000000000E+00 0.  1.
</event>
<event>
 7    1  0.2682317E-010  0.4778728E+02  0.7816164E-02  0.1312668E+00
        -11   -1    0    0    0    0  0.00000000000E+00  0.00000000000E+00  0.45593999997E+02  0.45594000000E+02  0.51100000000E-03 0. -1.
         11   -1    0    0    0    0 -0.00000000000E+00 -0.00000000000E+00 -0.45593999997E+02  0.45594000000E+02  0.51100000000E-03 0.  1.
    9900012    2    1    2    0    0  0.42289092232E+02 -0.32567012212E+01 -0.92005163312E+01  0.47787275059E+02  0.20000018303E+02 0.  0.
         12    1    1    2    0    0 -0.42289092232E+02  0.32567012212E+01  0.92005163312E+01  0.43400724941E+02  0.00000000000E+00 0. -1.
         11    1    3    3    0    0  0.16746182691E+02  0.15977316637E+01  0.35785159297E+01  0.17198638252E+02  0.51100000000E-03 0. -1.
        -11    1    3    3    0    0 -0.70488288878E+00  0.34462182915E+00  0.25523435802E+00  0.82508722608E+00  0.51100000000E-03 0.  1.
        -12    1    3    3    0    0  0.26247792430E+02 -0.51990547140E+01 -0.13034266619E+02  0.29763549581E+02  0.00000000000E+00 0.  1.
</event>
<event>
 7    1  0.2682317E-010  0.4778727E+02  0.7816164E-02  0.1312668E+00
        -11   -1    0    0    0    0  0.00000000000E+00  0.00000000000E+00  0.45593999997E+02  0.45594000000E+02  0.51100000000E-03 0. -1.
         11   -1    0    0    0    0 -0.00000000000E+00 -0.00000000000E+00 -0.45593999997E+02  0.45594000000E+02  0.51100000000E-03 0.  1.
    9900012    2    1    2    0    0 -0.35841030376E+02  0.20857462053E+02  0.12806638824E+02  0.47787272130E+02  0.20000004949E+02 0.  0.
         12    1    1    2    0    0  0.35841030376E+02 -0.20857462053E+02 -0.12806638824E+02  0.43400727870E+02  0.00000000000E+00 0. -1.
         11    1    3    3    0    0 -0.53120067762E+01  0.62313517658E+01  0.47066103564E+00  0.82017487703E+01  0.51100000000E-03 0. -1.
        -11    1    3    3    0    0 -0.24614309258E+02  0.17398801767E+02  0.13364665414E+02  0.32972667545E+02  0.51100000000E-03 0.  1.
         12    1    3    3    0    0 -0.59147143416E+01 -0.27726914800E+01 -0.10286876253E+01  0.66128558140E+01  0.00000000000E+00 0. -1.
</event>
<event>
 7    1  0.2682317E-010  0.4778727E+02  0.7816164E-02  0.1312668E+00
        -11   -1    0    0    0    0  0.00000000000E+00  0.00000000000E+00  0.45593999997E+02  0.45594000000E+02  0.51100000000E-03 0. -1.
         11   -1    0    0    0    0 -0.00000000000E+00 -0.00000000000E+00 -0.45593999997E+02  0.45594000000E+02  0.51100000000E-03 0.  1.
    9900012    2    1    2    0    0  0.37413542996E+02  0.14451997846E+02  0.16582817901E+02  0.47787270849E+02  0.19999999109E+02 0.  0.
         12    1    1    2    0    0 -0.37413542996E+02 -0.14451997846E+02 -0.16582817901E+02  0.43400729151E+02  0.00000000000E+00 0. -1.
         11    1    3    3    0    0  0.12647153052E+02  0.19911922833E+01  0.47141232170E+01  0.13643250529E+02  0.51100000000E-03 0. -1.
        -11    1    3    3    0    0  0.23351242861E+02  0.15871809061E+02  0.11279942530E+02  0.30404472858E+02  0.51100000000E-03 0.  1.
         12    1    3    3    0    0  0.14151470831E+01 -0.34110034973E+01  0.58875215440E+00  0.37395474626E+01  0.00000000000E+00 0. -1.
</event>
<event>
 7    1  0.2682317E-010  0.4778727E+02  0.7816164E-02  0.1312668E+00
        -11   -1    0    0    0    0  0.00000000000E+00  0.00000000000E+00  0.45593999997E+02  0.45594000000E+02  0.51100000000E-03 0. -1.
         11   -1    0    0    0    0 -0.00000000000E+00 -0.00000000000E+00 -0.45593999997E+02  0.45594000000E+02  0.51100000000E-03 0.  1.
    9900012    2    1    2    0    0 -0.16303403246E+02  0.40195028043E+02 -0.14771685211E+01  0.47787271163E+02  0.20000000541E+02 0.  0.
         12    1    1    2    0    0  0.16303403246E+02 -0.40195028043E+02  0.14771685211E+01  0.43400728837E+02  0.00000000000E+00 0. -1.
         11    1    3    3    0    0 -0.67993206689E+01  0.58593250911E+01  0.16396403248E+01  0.91241916211E+01  0.51100000000E-03 0. -1.
        -11    1    3    3    0    0 -0.41085658325E+01  0.23718779318E+02  0.45515689875E+01  0.24498522120E+02  0.51100000000E-03 0.  1.
         12    1    3    3    0    0 -0.53955167443E+01  0.10616923633E+02 -0.76683778335E+01  0.14164557422E+02  0.00000000000E+00 0. -1.
</event>
<event>
 7    1  0.2682317E-010  0.4778728E+02  0.7816164E-02  0.1312668E+00
        -11   -1    0    0    0    0  0.00000000000E+00  0.00000000000E+00  0.45593999997E+02  0.45594000000E+02  0.51100000000E-03 0.  1.
         11   -1    0    0    0    0 -0.00000000000E+00 -0.00000000000E+00 -0.45593999997E+02  0.45594000000E+02  0.51100000000E-03 0. -1.
    9900012    2    1    2    0    0  0.32399403479E+02 -0.26272083821E+02  0.11986606081E+02  0.47787280427E+02  0.20000042780E+02 0.  0.
         12    1    1    2    0    0 -0.32399403479E+02  0.26272083821E+02 -0.11986606081E+02  0.43400719573E+02  0.00000000000E+00 0. -1.
         11    1    3    3    0    0  0.24251260054E+01  0.25921960506E+01  0.22853231537E+00  0.35570976634E+01  0.51100000000E-03 0. -1.
        -11    1    3    3    0    0  0.12875459512E+02 -0.70072829646E+01  0.62633000549E+01  0.15940777899E+02  0.51100000000E-03 0.  1.
        -12    1    3    3    0    0  0.17098817962E+02 -0.21856996907E+02  0.54947737105E+01  0.28289404865E+02  0.00000000000E+00 0.  1.
</event>
<event>
 7    1  0.2682317E-010  0.4778727E+02  0.7816164E-02  0.1312668E+00
        -11   -1    0    0    0    0  0.00000000000E+00  0.00000000000E+00  0.45593999997E+02  0.45594000000E+02  0.51100000000E-03 0.  1.
         11   -1    0    0    0    0 -0.00000000000E+00 -0.00000000000E+00 -0.45593999997E+02  0.45594000000E+02  0.51100000000E-03 0. -1.
    9900012    2    1    2    0    0 -0.38853082228E+02 -0.18056555531E+02  0.69297866349E+01  0.47787272597E+02  0.20000007079E+02 0.  0.
         12    1    1    2    0    0  0.38853082228E+02  0.18056555531E+02 -0.69297866349E+01  0.43400727403E+02  0.00000000000E+00 0. -1.
         11    1    3    3    0    0 -0.10758813828E+01  0.19302495915E+01  0.17457486732E+01  0.28162071881E+01  0.51100000000E-03 0. -1.
        -11    1    3    3    0    0 -0.18002834448E+01  0.18535977918E+01  0.30146806685E+00  0.26014858277E+01  0.51100000000E-03 0.  1.
        -12    1    3    3    0    0 -0.35976917401E+02 -0.21840402914E+02  0.48825698949E+01  0.42369579581E+02  0.00000000000E+00 0.  1.
</event>
<event>
 7    1  0.2682317E-010  0.4778727E+02  0.7816164E-02  0.1312668E+00
        -11   -1    0    0    0    0  0.00000000000E+00  0.00000000000E+00  0.45593999997E+02  0.45594000000E+02  0.51100000000E-03 0. -1.
         11   -1    0    0    0    0 -0.00000000000E+00 -0.00000000000E+00 -0.45593999997E+02  0.45594000000E+02  0.51100000000E-03 0.  1.
    9900012    2    1    2    0    0  0.16571549449E+02 -0.30140123134E+02 -0.26468472761E+02  0.47787270468E+02  0.19999997370E+02 0.  0.
         12    1    1    2    0    0 -0.16571549449E+02  0.30140123134E+02  0.26468472761E+02  0.43400729532E+02  0.00000000000E+00 0. -1.
         11    1    3    3    0    0 -0.15399129169E+01 -0.69469607089E+01 -0.33880069851E+01  0.78810016162E+01  0.51100000000E-03 0. -1.
        -11    1    3    3    0    0  0.24454524052E+01 -0.13748986922E+02 -0.12686725631E+02  0.18867111235E+02  0.51100000000E-03 0.  1.
        -12    1    3    3    0    0  0.15666009961E+02 -0.94441755027E+01 -0.10393740145E+02  0.21039157616E+02  0.00000000000E+00 0.  1.
</event>
<event>
 7    1  0.2682317E-010  0.4778726E+02  0.7816164E-02  0.1312668E+00
        -11   -1    0    0    0    0  0.00000000000E+00  0.00000000000E+00  0.45593999997E+02  0.45594000000E+02  0.51100000000E-03 0.  1.
         11   -1    0    0    0    0 -0.00000000000E+00 -0.00000000000E+00 -0.45593999997E+02  0.45594000000E+02  0.51100000000E-03 0. -1.
    9900012    2    1    2    0    0 -0.20161739926E+02  0.33884400116E+02  0.18137681339E+02  0.47787264840E+02  0.19999971713E+02 0.  0.
         12    1    1    2    0    0  0.20161739926E+02 -0.33884400116E+02 -0.18137681339E+02  0.43400735160E+02  0.00000000000E+00 0. -1.
         11    1    3    3    0    0 -0.13180418305E+00  0.64047581609E+01  0.52051321968E+01  0.82541929278E+01  0.51100000000E-03 0. -1.
        -11    1    3    3    0    0 -0.13956167566E+02  0.22417460116E+02  0.16197632855E+02  0.30978709488E+02  0.51100000000E-03 0.  1.
         12    1    3    3    0    0 -0.60737681769E+01  0.50621818395E+01 -0.32650837128E+01  0.85543624248E+01  0.00000000000E+00 0. -1.
</event>
<event>
 7    1  0.2682317E-010  0.4778727E+02  0.7816164E-02  0.1312668E+00
        -11   -1    0    0    0    0  0.00000000000E+00  0.00000000000E+00  0.45593999997E+02  0.45594000000E+02  0.51100000000E-03 0.  1.
         11   -1    0    0    0    0 -0.00000000000E+00 -0.00000000000E+00 -0.45593999997E+02  0.45594000000E+02  0.51100000000E-03 0. -1.
    9900012    2    1    2    0    0  0.27154684075E+02 -0.32082258855E+02  0.10815496754E+02  0.47787272236E+02  0.20000005432E+02 0.  0.
         12    1    1    2    0    0 -0.27154684075E+02  0.32082258855E+02 -0.10815496754E+02  0.43400727764E+02  0.00000000000E+00 0. -1.
         11    1    3    3    0    0  0.32457692744E+01 -0.25202170203E+01  0.52840489835E+01  0.66938543406E+01  0.51100000000E-03 0. -1.
        -11    1    3    3    0    0  0.33387501162E+01  0.13236537398E+01  0.84795499248E+00  0.36903034417E+01  0.51100000000E-03 0.  1.
        -12    1    3    3    0    0  0.20570164684E+02 -0.30885695574E+02  0.46834927781E+01  0.37403114454E+02  0.00000000000E+00 0.  1.
</event>
<event>
 7    1  0.2682317E-010  0.4778727E+02  0.7816164E-02  0.1312668E+00
        -11   -1    0    0    0    0  0.00000000000E+00  0.00000000000E+00  0.45593999997E+02  0.45594000000E+02  0.51100000000E-03 0.  1.
         11   -1    0    0    0    0 -0.00000000000E+00 -0.00000000000E+00 -0.45593999997E+02  0.45594000000E+02  0.51100000000E-03 0. -1.
    9900012    2    1    2    0    0  0.82368274885E+01 -0.35842409638E+02  0.23045597994E+02  0.47787271405E+02  0.20000001643E+02 0.  0.
         12    1    1    2    0    0 -0.82368274885E+01  0.35842409638E+02 -0.23045597994E+02  0.43400728595E+02  0.00000000000E+00 0. -1.
         11    1    3    3    0    0  0.72720768732E+01 -0.16853939750E+02  0.68657688757E+01  0.19597886867E+02  0.51100000000E-03 0. -1.
        -11    1    3    3    0    0  0.62257246262E+01 -0.72846925772E+01  0.10319814144E+02  0.14082789400E+02  0.51100000000E-03 0.  1.
         12    1    3    3    0    0 -0.52609740108E+01 -0.11703777310E+02  0.58600149737E+01  0.14106595137E+02  0.00000000000E+00 0. -1.
</event>
<event>
 7    1  0.2682317E-010  0.4778727E+02  0.7816164E-02  0.1312668E+00
        -11   -1    0    0    0    0  0.00000000000E+00  0.00000000000E+00  0.45593999997E+02  0.45594000000E+02  0.51100000000E-03 0. -1.
         11   -1    0    0    0    0 -0.00000000000E+00 -0.00000000000E+00 -0.45593999997E+02  0.45594000000E+02  0.51100000000E-03 0.  1.
    9900012    2    1    2    0    0 -0.37614692493E+02 -0.76037475457E+01 -0.20271686003E+02  0.47787270496E+02  0.19999997499E+02 0.  0.
         12    1    1    2    0    0  0.37614692493E+02  0.76037475457E+01  0.20271686003E+02  0.43400729504E+02  0.00000000000E+00 0. -1.
         11    1    3    3    0    0 -0.32080485347E+01  0.19911921944E+00  0.13808311478E+01  0.34982736863E+01  0.51100000000E-03 0. -1.
        -11    1    3    3    0    0 -0.17168673944E+02 -0.11737066489E+02 -0.97087786700E+01  0.22951742380E+02  0.51100000000E-03 0.  1.
        -12    1    3    3    0    0 -0.17237970014E+02  0.39341997240E+01 -0.11943738481E+02  0.21337254429E+02  0.00000000000E+00 0.  1.
</event>
<event>
 7    1  0.2682317E-010  0.4778727E+02  0.7816164E-02  0.1312668E+00
        -11   -1    0    0    0    0  0.00000000000E+00  0.00000000000E+00  0.45593999997E+02  0.45594000000E+02  0.51100000000E-03 0.  1.
         11   -1    0    0    0    0 -0.00000000000E+00 -0.00000000000E+00 -0.45593999997E+02  0.45594000000E+02  0.51100000000E-03 0. -1.
    9900012    2    1    2    0    0 -0.29208383652E+02  0.28219271098E+02  0.15302492483E+02  0.47787271745E+02  0.20000003195E+02 0.  0.
         12    1    1    2    0    0  0.29208383652E+02 -0.28219271098E+02 -0.15302492483E+02  0.43400728255E+02  0.00000000000E+00 0. -1.
         11    1    3    3    0    0  0.15024381911E+01  0.47023773222E+00 -0.91420345906E+00  0.18204978079E+01  0.51100000000E-03 0. -1.
        -11    1    3    3    0    0 -0.10882573568E+01 -0.71458236394E+00  0.22069198810E+01  0.25623090469E+01  0.51100000000E-03 0.  1.
        -12    1    3    3    0    0 -0.29622564486E+02  0.28463615730E+02  0.14009776061E+02  0.43404464890E+02  0.00000000000E+00 0.  1.
</event>
<event>
 7    1  0.2682317E-010  0.4778727E+02  0.7816164E-02  0.1312668E+00
        -11   -1    0    0    0    0  0.00000000000E+00  0.00000000000E+00  0.45593999997E+02  0.45594000000E+02  0.51100000000E-03 0.  1.
         11   -1    0    0    0    0 -0.00000000000E+00 -0.00000000000E+00 -0.45593999997E+02  0.45594000000E+02  0.51100000000E-03 0. -1.
    9900012    2    1    2    0    0 -0.17230684349E+02  0.24000256189E+02  0.31791736821E+02  0.47787270624E+02  0.19999998085E+02 0.  0.
         12    1    1    2    0    0  0.17230684349E+02 -0.24000256189E+02 -0.31791736821E+02  0.43400729376E+02  0.00000000000E+00 0. -1.
         11    1    3    3    0    0 -0.41861722755E+01  0.32463792515E+00  0.57867527869E+01  0.71495409769E+01  0.51100000000E-03 0. -1.
        -11    1    3    3    0    0 -0.15782487351E+02  0.23566716135E+02  0.24663809967E+02  0.37586972992E+02  0.51100000000E-03 0.  1.
         12    1    3    3    0    0  0.27379752776E+01  0.10890212890E+00  0.13411740673E+01  0.30507566558E+01  0.00000000000E+00 0. -1.
</event>
<event>
 7    1  0.2682317E-010  0.4778727E+02  0.7816164E-02  0.1312668E+00
        -11   -1    0    0    0    0  0.00000000000E+00  0.00000000000E+00  0.45593999997E+02  0.45594000000E+02  0.51100000000E-03 0. -1.
         11   -1    0    0    0    0 -0.00000000000E+00 -0.00000000000E+00 -0.45593999997E+02  0.45594000000E+02  0.51100000000E-03 0.  1.
    9900012    2    1    2    0    0  0.24724001693E+02 -0.73091501975E+01 -0.34913080628E+02  0.47787272641E+02  0.20000007280E+02 0.  0.
         12    1    1    2    0    0 -0.24724001693E+02  0.73091501975E+01  0.34913080628E+02  0.43400727359E+02  0.00000000000E+00 0. -1.
         11    1    3    3    0    0  0.79695468438E+01 -0.75897248668E+01 -0.13509172780E+02  0.17424561685E+02  0.51100000000E-03 0. -1.
        -11    1    3    3    0    0  0.15324001194E+02 -0.43018891088E+01 -0.19566401313E+02  0.25222516193E+02  0.51100000000E-03 0.  1.
         12    1    3    3    0    0  0.14304536554E+01  0.45824637781E+01 -0.18375065352E+01  0.51401947633E+01  0.00000000000E+00 0. -1.
</event>
<event>
 7    1  0.2682317E-010  0.4778727E+02  0.7816164E-02  0.1312668E+00
        -11   -1    0    0    0    0  0.00000000000E+00  0.00000000000E+00  0.45593999997E+02  0.45594000000E+02  0.51100000000E-03 0.  1.
         11   -1    0    0    0    0 -0.00000000000E+00 -0.00000000000E+00 -0.45593999997E+02  0.45594000000E+02  0.51100000000E-03 0. -1.
    9900012    2    1    2    0    0 -0.35189585393E+02 -0.25402914763E+02  0.90273448506E-01  0.47787272496E+02  0.20000006618E+02 0.  0.
         12    1    1    2    0    0  0.35189585393E+02  0.25402914763E+02 -0.90273448506E-01  0.43400727504E+02  0.00000000000E+00 0. -1.
         11    1    3    3    0    0 -0.10503569282E+02 -0.37750434253E+01  0.29166416768E+01  0.11536148380E+02  0.51100000000E-03 0. -1.
        -11    1    3    3    0    0 -0.23615513903E+02 -0.12153451890E+02 -0.12652808389E+01  0.26589468321E+02  0.51100000000E-03 0.  1.
         12    1    3    3    0    0 -0.10705022082E+01 -0.94744194483E+01 -0.15610873894E+01  0.96616557948E+01  0.00000000000E+00 0. -1.
</event>
<event>
 7    1  0.2682317E-010  0.4778725E+02  0.7816164E-02  0.1312668E+00
        -11   -1    0    0    0    0  0.00000000000E+00  0.00000000000E+00  0.45593999997E+02  0.45594000000E+02  0.51100000000E-03 0.  1.
         11   -1    0    0    0    0 -0.00000000000E+00 -0.00000000000E+00 -0.45593999997E+02  0.45594000000E+02  0.51100000000E-03 0. -1.
    9900012    2    1    2    0    0  0.25639853704E+01 -0.41826307744E+02  0.11296487805E+02  0.47787254878E+02  0.19999926288E+02 0.  0.
         12    1    1    2    0    0 -0.25639853704E+01  0.41826307744E+02 -0.11296487805E+02  0.43400745122E+02  0.00000000000E+00 0. -1.
         11    1    3    3    0    0  0.46039019716E+01 -0.27273289132E+01  0.13782798946E+01  0.55257481026E+01  0.51100000000E-03 0. -1.
        -11    1    3    3    0    0  0.31498648171E-01 -0.13273520726E+02  0.95472509513E+01  0.16350453988E+02  0.51100000000E-03 0.  1.
         12    1    3    3    0    0 -0.20714152493E+01 -0.25825458105E+02  0.37095695876E+00  0.25911052787E+02  0.00000000000E+00 0. -1.
</event>
<event>
 7    1  0.2682317E-010  0.4778727E+02  0.7816164E-02  0.1312668E+00
        -11   -1    0    0    0    0  0.00000000000E+00  0.00000000000E+00  0.45593999997E+02  0.45594000000E+02  0.51100000000E-03 0.  1.
         11   -1    0    0    0    0 -0.00000000000E+00 -0.00000000000E+00 -0.45593999997E+02  0.45594000000E+02  0.51100000000E-03 0. -1.
    9900012    2    1    2    0    0 -0.24678204086E+02  0.68841080033E+01  0.35031684315E+02  0.47787267220E+02  0.19999982563E+02 0.  0.
         12    1    1    2    0    0  0.24678204086E+02 -0.68841080033E+01 -0.35031684315E+02  0.43400732780E+02  0.00000000000E+00 0. -1.
         11    1    3    3    0    0 -0.19263488280E+01  0.48441970262E+01  0.50487001710E+00  0.52375527330E+01  0.51100000000E-03 0. -1.
        -11    1    3    3    0    0 -0.30689872475E-01  0.21200465955E+01  0.35171212572E+01  0.41067848293E+01  0.51100000000E-03 0.  1.
         12    1    3    3    0    0 -0.22721165385E+02 -0.80135618430E-01  0.31009693041E+02  0.38442929658E+02  0.00000000000E+00 0. -1.
</event>
<event>
 7    1  0.2682317E-010  0.4778728E+02  0.7816164E-02  0.1312668E+00
        -11   -1    0    0    0    0  0.00000000000E+00  0.00000000000E+00  0.45593999997E+02  0.45594000000E+02  0.51100000000E-03 0. -1.
         11   -1    0    0    0    0 -0.00000000000E+00 -0.00000000000E+00 -0.45593999997E+02  0.45594000000E+02  0.51100000000E-03 0.  1.
    9900012    2    1    2    0    0  0.16676481786E-01 -0.28936220240E+02 -0.32346826004E+02  0.47787282582E+02  0.20000052602E+02 0.  0.
         12    1    1    2    0    0 -0.16676481786E-01  0.28936220240E+02  0.32346826004E+02  0.43400717418E+02  0.00000000000E+00 0. -1.
         11    1    3    3    0    0 -0.24150029046E+01 -0.39215211011E+01 -0.35359015925E+01  0.58063040833E+01  0.51100000000E-03 0. -1.
        -11    1    3    3    0    0 -0.22476387149E+01 -0.17631508534E+02 -0.81630685160E+01  0.19559081288E+02  0.51100000000E-03 0.  1.
         12    1    3    3    0    0  0.46793181013E+01 -0.73831906051E+01 -0.20647855896E+02  0.22421897210E+02  0.00000000000E+00 0. -1.
</event>
<event>
 7    1  0.2682317E-010  0.4778727E+02  0.7816164E-02  0.1312668E+00
        -11   -1    0    0    0    0  0.00000000000E+00  0.00000000000E+00  0.45593999997E+02  0.45594000000E+02  0.51100000000E-03 0.  1.
         11   -1    0    0    0    0 -0.00000000000E+00 -0.00000000000E+00 -0.45593999997E+02  0.45594000000E+02  0.51100000000E-03 0. -1.
    9900012    2    1    2    0    0 -0.15861323129E+02 -0.12141239755E+01  0.40380287967E+02  0.47787270459E+02  0.19999997330E+02 0.  0.
         12    1    1    2    0    0  0.15861323129E+02  0.12141239755E+01 -0.40380287967E+02  0.43400729541E+02  0.00000000000E+00 0. -1.
         11    1    3    3    0    0 -0.65890450805E+01 -0.45047987232E+01  0.12231931916E+02  0.14605782596E+02  0.51100000000E-03 0. -1.
        -11    1    3    3    0    0 -0.90764495973E+01  0.12412921184E+01  0.29385016656E+02  0.30779895184E+02  0.51100000000E-03 0.  1.
         12    1    3    3    0    0 -0.19582845160E+00  0.20493826292E+01 -0.12366606044E+01  0.24015926786E+01  0.00000000000E+00 0. -1.
</event>
<event>
 7    1  0.2682317E-010  0.4778728E+02  0.7816164E-02  0.1312668E+00
        -11   -1    0    0    0    0  0.00000000000E+00  0.00000000000E+00  0.45593999997E+02  0.45594000000E+02  0.51100000000E-03 0. -1.
         11   -1    0    0    0    0 -0.00000000000E+00 -0.00000000000E+00 -0.45593999997E+02  0.45594000000E+02  0.51100000000E-03 0.  1.
    9900012    2    1    2    0    0 -0.29350610086E+00  0.15303136715E+02 -0.40612194037E+02  0.47787280609E+02  0.20000043609E+02 0.  0.
         12    1    1    2    0    0  0.29350610086E+00 -0.15303136715E+02  0.40612194037E+02  0.43400719391E+02  0.00000000000E+00 0. -1.
         11    1    3    3    0    0 -0.41552629296E+01  0.81588489717E+01 -0.56762013129E+01  0.10772756758E+02  0.51100000000E-03 0. -1.
        -11    1    3    3    0    0 -0.52569825387E+00 -0.19899709102E+01 -0.70573263378E+01  0.73513398899E+01  0.51100000000E-03 0.  1.
        -12    1    3    3    0    0  0.43874550826E+01  0.91342586538E+01 -0.27878666386E+02  0.29663183961E+02  0.00000000000E+00 0.  1.
</event>
<event>
 7    1  0.2682317E-010  0.4778727E+02  0.7816164E-02  0.1312668E+00
        -11   -1    0    0    0    0  0.00000000000E+00  0.00000000000E+00  0.45593999997E+02  0.45594000000E+02  0.51100000000E-03 0. -1.
         11   -1    0    0    0    0 -0.00000000000E+00 -0.00000000000E+00 -0.45593999997E+02  0.45594000000E+02  0.51100000000E-03 0.  1.
    9900012    2    1    2    0    0 -0.14137728465E+02  0.18901881707E+02 -0.36420695404E+02  0.47787267840E+02  0.19999985392E+02 0.  0.
         12    1    1    2    0    0  0.14137728465E+02 -0.18901881707E+02  0.36420695404E+02  0.43400732160E+02  0.00000000000E+00 0. -1.
         11    1    3    3    0    0  0.30559919613E+01 -0.69823963154E+00 -0.56248060357E+01  0.64393375942E+01  0.51100000000E-03 0. -1.
        -11    1    3    3    0    0 -0.34542494869E+01  0.55521484866E+00 -0.15130929892E+01  0.38117651687E+01  0.51100000000E-03 0.  1.
        -12    1    3    3    0    0 -0.13739470940E+02  0.19044906490E+02 -0.29282796380E+02  0.37536165078E+02  0.00000000000E+00 0.  1.
</event>
<event>
 7    1  0.2682317E-010  0.4778728E+02  0.7816164E-02  0.1312668E+00
        -11   -1    0    0    0    0  0.00000000000E+00  0.00000000000E+00  0.45593999997E+02  0.45594000000E+02  0.51100000000E-03 0.  1.
         11   -1    0    0    0    0 -0.00000000000E+00 -0.00000000000E+00 -0.45593999997E+02  0.45594000000E+02  0.51100000000E-03 0. -1.
    9900012    2    1    2    0    0 -0.17202641457E+02 -0.34896355413E+02  0.19233725979E+02  0.47787277550E+02  0.20000029659E+02 0.  0.
         12    1    1    2    0    0  0.17202641457E+02  0.34896355413E+02 -0.19233725979E+02  0.43400722450E+02  0.00000000000E+00 0. -1.
         11    1    3    3    0    0 -0.93776301468E+01 -0.11327390531E+02  0.57899299337E+01  0.15804208690E+02  0.51100000000E-03 0. -1.
        -11    1    3    3    0    0 -0.18471872605E+01 -0.83348413075E+01 -0.27412270367E+01  0.89663820086E+01  0.51100000000E-03 0.  1.
        -12    1    3    3    0    0 -0.59778240500E+01 -0.15234123574E+02  0.16185023082E+02  0.23016686851E+02  0.00000000000E+00 0.  1.
</event>
<event>
 7    1  0.2682317E-010  0.4778727E+02  0.7816164E-02  0.1312668E+00
        -11   -1    0    0    0    0  0.00000000000E+00  0.00000000000E+00  0.45593999997E+02  0.45594000000E+02  0.51100000000E-03 0.  1.
         11   -1    0    0    0    0 -0.00000000000E+00 -0.00000000000E+00 -0.45593999997E+02  0.45594000000E+02  0.51100000000E-03 0. -1.
    9900012    2    1    2    0    0  0.16496308673E+02 -0.39390473983E+02  0.77385706219E+01  0.47787272867E+02  0.20000008308E+02 0.  0.
         12    1    1    2    0    0 -0.16496308673E+02  0.39390473983E+02 -0.77385706219E+01  0.43400727133E+02  0.00000000000E+00 0. -1.
         11    1    3    3    0    0 -0.71572914223E+00 -0.75089501832E+01 -0.19995396190E+01  0.78035094674E+01  0.51100000000E-03 0. -1.
        -11    1    3    3    0    0 -0.69264357975E+00  0.10228906975E+01 -0.13903384775E+00  0.12431376350E+01  0.51100000000E-03 0.  1.
        -12    1    3    3    0    0  0.17904681395E+02 -0.32904414497E+02  0.98771440886E+01  0.38740625764E+02  0.00000000000E+00 0.  1.
</event>
<event>
 7    1  0.2682317E-010  0.4778726E+02  0.7816164E-02  0.1312668E+00
        -11   -1    0    0    0    0  0.00000000000E+00  0.00000000000E+00  0.45593999997E+02  0.45594000000E+02  0.51100000000E-03 0. -1.
         11   -1    0    0    0    0 -0.00000000000E+00 -0.00000000000E+00 -0.45593999997E+02  0.45594000000E+02  0.51100000000E-03 0.  1.
    9900012    2    1    2    0    0 -0.34199815289E+02 -0.14124191142E+02  0.22682676253E+02  0.47787263333E+02  0.19999964842E+02 0.  0.
         12    1    1    2    0    0  0.34199815289E+02  0.14124191142E+02 -0.22682676253E+02  0.43400736667E+02  0.00000000000E+00 0. -1.
         11    1    3    3    0    0 -0.19659020491E+02 -0.11227528548E+02  0.28420995731E+01  0.22816923855E+02  0.51100000000E-03 0. -1.
        -11    1    3    3    0    0 -0.38344717553E+01  0.54821945351E+00  0.43062390486E+01  0.57920128813E+01  0.51100000000E-03 0.  1.
         12    1    3    3    0    0 -0.10706323042E+02 -0.34448820472E+01  0.15534337631E+02  0.19178326597E+02  0.00000000000E+00 0. -1.
</event>
<event>
 7    1  0.2682317E-010  0.4778726E+02  0.7816164E-02  0.1312668E+00
        -11   -1    0    0    0    0  0.00000000000E+00  0.00000000000E+00  0.45593999997E+02  0.45594000000E+02  0.51100000000E-03 0. -1.
         11   -1    0    0    0    0 -0.00000000000E+00 -0.00000000000E+00 -0.45593999997E+02  0.45594000000E+02  0.51100000000E-03 0.  1.
    9900012    2    1    2    0    0  0.33632683109E+02 -0.25236053694E+02 -0.10752131311E+02  0.47787261447E+02  0.19999956243E+02 0.  0.
         12    1    1    2    0    0 -0.33632683109E+02  0.25236053694E+02  0.10752131311E+02  0.43400738553E+02  0.00000000000E+00 0. -1.
         11    1    3    3    0    0  0.10488180766E+02 -0.11060595993E+02 -0.87442438277E+01  0.17572720902E+02  0.51100000000E-03 0. -1.
        -11    1    3    3    0    0  0.16193084590E+02 -0.16144674263E+02 -0.23142751615E+01  0.22983088683E+02  0.51100000000E-03 0.  1.
         12    1    3    3    0    0  0.69514177526E+01  0.19692165617E+01  0.30638767800E+00  0.72314518630E+01  0.00000000000E+00 0. -1.
</event>
<event>
 7    1  0.2682317E-010  0.4778727E+02  0.7816164E-02  0.1312668E+00
        -11   -1    0    0    0    0  0.00000000000E+00  0.00000000000E+00  0.45593999997E+02  0.45594000000E+02  0.51100000000E-03 0.  1.
         11   -1    0    0    0    0 -0.00000000000E+00 -0.00000000000E+00 -0.45593999997E+02  0.45594000000E+02  0.51100000000E-03 0. -1.
    9900012    2    1    2    0    0  0.29064726448E+02  0.30265118869E+02 -0.11085462077E+02  0.47787271745E+02  0.20000003192E+02 0.  0.
         12    1    1    2    0    0 -0.29064726448E+02 -0.30265118869E+02  0.11085462077E+02  0.43400728255E+02  0.00000000000E+00 0. -1.
         11    1    3    3    0    0  0.87897482726E+01  0.11875285379E+01 -0.10662924036E+01  0.89334695653E+01  0.51100000000E-03 0. -1.
        -11    1    3    3    0    0 -0.13184850387E+01  0.28533639051E+01 -0.26081029441E+01  0.40843958673E+01  0.51100000000E-03 0.  1.
        -12    1    3    3    0    0  0.21593463214E+02  0.26224226426E+02 -0.74110667287E+01  0.34769406312E+02  0.00000000000E+00 0.  1.
</event>
<event>
 7    1  0.2682317E-010  0.4778727E+02  0.7816164E-02  0.1312668E+00
        -11   -1    0    0    0    0  0.00000000000E+00  0.00000000000E+00  0.45593999997E+02  0.45594000000E+02  0.51100000000E-03 0. -1.
         11   -1    0    0    0    0 -0.00000000000E+00 -0.00000000000E+00 -0.45593999997E+02  0.45594000000E+02  0.51100000000E-03 0.  1.
    9900012    2    1    2    0    0 -0.36141065998E+02  0.14108016542E+02 -0.19452775112E+02  0.47787271414E+02  0.20000001685E+02 0.  0.
         12    1    1    2    0    0  0.36141065998E+02 -0.14108016542E+02  0.19452775112E+02  0.43400728586E+02  0.00000000000E+00 0. -1.
         11    1    3    3    0    0 -0.16101166208E+01  0.28028074824E+01 -0.23564578592E+01  0.40001374001E+01  0.51100000000E-03 0. -1.
        -11    1    3    3    0    0 -0.30911458007E+02  0.36146025525E+01 -0.16601122566E+02  0.35272947969E+02  0.51100000000E-03 0.  1.
         12    1    3    3    0    0 -0.36194913705E+01  0.76906065071E+01 -0.49519468655E+00  0.85141860448E+01  0.00000000000E+00 0. -1.
</event>
<event>
 7    1  0.2682317E-010  0.4778728E+02  0.7816164E-02  0.1312668E+00
        -11   -1    0    0    0    0  0.00000000000E+00  0.00000000000E+00  0.45593999997E+02  0.45594000000E+02  0.51100000000E-03 0.  1.
         11   -1    0    0    0    0 -0.00000000000E+00 -0.00000000000E+00 -0.45593999997E+02  0.45594000000E+02  0.51100000000E-03 0. -1.
    9900012    2    1    2    0    0  0.33871451990E+01  0.11674562293E+02  0.41663590173E+02  0.47787275313E+02  0.20000019460E+02 0.  0.
         12    1    1    2    0    0 -0.33871451990E+01 -0.11674562293E+02 -0.41663590173E+02  0.43400724687E+02  0.00000000000E+00 0. -1.
         11    1    3    3    0    0  0.77229370077E+01  0.26936747556E+01  0.13853552040E+02  0.16087900550E+02  0.51100000000E-03 0. -1.
        -11    1    3    3    0    0  0.17133865427E+01 -0.52417086676E+00  0.12834141196E+02  0.12958612157E+02  0.51100000000E-03 0.  1.
         12    1    3    3    0    0 -0.60491783514E+01  0.95050584039E+01  0.14975896937E+02  0.18740762606E+02  0.00000000000E+00 0. -1.
</event>
<event>
 7    1  0.2682317E-010  0.4778727E+02  0.7816164E-02  0.1312668E+00
        -11   -1    0    0    0    0  0.00000000000E+00  0.00000000000E+00  0.45593999997E+02  0.45594000000E+02  0.51100000000E-03 0.  1.
         11   -1    0    0    0    0 -0.00000000000E+00 -0.00000000000E+00 -0.45593999997E+02  0.45594000000E+02  0.51100000000E-03 0. -1.
    9900012    2    1    2    0    0  0.17167184902E+02  0.38855037858E+02  0.88992814434E+01  0.47787269423E+02  0.19999992606E+02 0.  0.
         12    1    1    2    0    0 -0.17167184902E+02 -0.38855037858E+02 -0.88992814434E+01  0.43400730577E+02  0.00000000000E+00 0. -1.
         11    1    3    3    0    0  0.61842774981E+01  0.21710935798E+02  0.91933801650E+01  0.24374746368E+02  0.51100000000E-03 0. -1.
        -11    1    3    3    0    0  0.12014816821E+02  0.17557424636E+02  0.14720065703E+01  0.21325707179E+02  0.51100000000E-03 0.  1.
         12    1    3    3    0    0 -0.10319094169E+01 -0.41332257559E+00 -0.17661052920E+01  0.20868158756E+01  0.00000000000E+00 0. -1.
</event>
<event>
 7    1  0.2682317E-010  0.4778727E+02  0.7816164E-02  0.1312668E+00
        -11   -1    0    0    0    0  0.00000000000E+00  0.00000000000E+00  0.45593999997E+02  0.45594000000E+02  0.51100000000E-03 0.  1.
         11   -1    0    0    0    0 -0.00000000000E+00 -0.00000000000E+00 -0.45593999997E+02  0.45594000000E+02  0.51100000000E-03 0. -1.
    9900012    2    1    2    0    0 -0.22705428135E+02 -0.29809199259E+02  0.21897450013E+02  0.47787272537E+02  0.20000006804E+02 0.  0.
         12    1    1    2    0    0  0.22705428135E+02  0.29809199259E+02 -0.21897450013E+02  0.43400727463E+02  0.00000000000E+00 0. -1.
         11    1    3    3    0    0  0.80368058952E+00 -0.55310874708E+01  0.36212597754E+01  0.66597562809E+01  0.51100000000E-03 0. -1.
        -11    1    3    3    0    0 -0.11161125759E+02 -0.73039271801E+01  0.14673843607E+02  0.19830274001E+02  0.51100000000E-03 0.  1.
        -12    1    3    3    0    0 -0.12347982966E+02 -0.16974184608E+02  0.36023466300E+01  0.21297242255E+02  0.00000000000E+00 0.  1.
</event>
<event>
 7    1  0.2682317E-010  0.4778727E+02  0.7816164E-02  0.1312668E+00
        -11   -1    0    0    0    0  0.00000000000E+00  0.00000000000E+00  0.45593999997E+02  0.45594000000E+02  0.51100000000E-03 0.  1.
         11   -1    0    0    0    0 -0.00000000000E+00 -0.00000000000E+00 -0.45593999997E+02  0.45594000000E+02  0.51100000000E-03 0. -1.
    9900012    2    1    2    0    0 -0.24357401690E+02  0.12232288547E+02  0.33774421188E+02  0.47787269283E+02  0.19999991970E+02 0.  0.
         12    1    1    2    0    0  0.24357401690E+02 -0.12232288547E+02 -0.33774421188E+02  0.43400730717E+02  0.00000000000E+00 0. -1.
         11    1    3    3    0    0 -0.65415423446E+01  0.10917139800E+02  0.10025855401E+02  0.16201650979E+02  0.51100000000E-03 0. -1.
        -11    1    3    3    0    0 -0.10633354841E+02  0.59924309448E+01  0.12891060636E+02  0.17752659192E+02  0.51100000000E-03 0.  1.
        -12    1    3    3    0    0 -0.71825045039E+01 -0.46772821975E+01  0.10857505151E+02  0.13832959112E+02  0.00000000000E+00 0.  1.
</event>
<event>
 7    1  0.2682317E-010  0.4778728E+02  0.7816164E-02  0.1312668E+00
        -11   -1    0    0    0    0  0.00000000000E+00  0.00000000000E+00  0.45593999997E+02  0.45594000000E+02  0.51100000000E-03 0.  1.
         11   -1    0    0    0    0 -0.00000000000E+00 -0.00000000000E+00 -0.45593999997E+02  0.45594000000E+02  0.51100000000E-03 0. -1.
    9900012    2    1    2    0    0  0.37207367850E+02  0.10900162537E+02  0.19504382137E+02  0.47787277791E+02  0.20000030761E+02 0.  0.
         12    1    1    2    0    0 -0.37207367850E+02 -0.10900162537E+02 -0.19504382137E+02  0.43400722209E+02  0.00000000000E+00 0. -1.
         11    1    3    3    0    0  0.12713096153E+02  0.72873194847E+01  0.53942930453E+01  0.15614936336E+02  0.51100000000E-03 0.  1.
        -11    1    3    3    0    0  0.18030728836E+02  0.41039833815E+01  0.22128691416E+01  0.18623819480E+02  0.51100000000E-03 0. -1.
        -12    1    3    3    0    0  0.64635428619E+01 -0.49114032891E+00  0.11897219950E+02  0.13548521975E+02  0.00000000000E+00 0.  1.
</event>
<event>
 7    1  0.2682317E-010  0.4778727E+02  0.7816164E-02  0.1312668E+00
        -11   -1    0    0    0    0  0.00000000000E+00  0.00000000000E+00  0.45593999997E+02  0.45594000000E+02  0.51100000000E-03 0.  1.
         11   -1    0    0    0    0 -0.00000000000E+00 -0.00000000000E+00 -0.45593999997E+02  0.45594000000E+02  0.51100000000E-03 0. -1.
    9900012    2    1    2    0    0 -0.28788956990E+02 -0.66426005118E+01  0.31791428492E+02  0.47787272912E+02  0.20000008517E+02 0.  0.
         12    1    1    2    0    0  0.28788956990E+02  0.66426005118E+01 -0.31791428492E+02  0.43400727088E+02  0.00000000000E+00 0. -1.
         11    1    3    3    0    0 -0.12514248353E+02 -0.49047486734E+01  0.84840567288E+01  0.15894722087E+02  0.51100000000E-03 0. -1.
        -11    1    3    3    0    0 -0.60256939303E+01 -0.74928555186E+01  0.13557105006E+02  0.16620678914E+02  0.51100000000E-03 0.  1.
         12    1    3    3    0    0 -0.10249014707E+02  0.57550036802E+01  0.97502667578E+01  0.15271871911E+02  0.00000000000E+00 0. -1.
</event>
<event>
 7    1  0.2682317E-010  0.4778725E+02  0.7816164E-02  0.1312668E+00
        -11   -1    0    0    0    0  0.00000000000E+00  0.00000000000E+00  0.45593999997E+02  0.45594000000E+02  0.51100000000E-03 0.  1.
         11   -1    0    0    0    0 -0.00000000000E+00 -0.00000000000E+00 -0.45593999997E+02  0.45594000000E+02  0.51100000000E-03 0. -1.
    9900012    2    1    2    0    0 -0.33138780406E+02 -0.15713807738E+02  0.23206089532E+02  0.47787249871E+02  0.19999903460E+02 0.  0.
         12    1    1    2    0    0  0.33138780406E+02  0.15713807738E+02 -0.23206089532E+02  0.43400750129E+02  0.00000000000E+00 0. -1.
         11    1    3    3    0    0 -0.43655095923E+01 -0.57431492553E+01  0.11485091526E+02  0.13562771287E+02  0.51100000000E-03 0. -1.
        -11    1    3    3    0    0 -0.16019114740E+02 -0.32715528701E+01  0.11182079155E+02  0.19807927447E+02  0.51100000000E-03 0.  1.
         12    1    3    3    0    0 -0.12754156073E+02 -0.66991056125E+01  0.53891885114E+00  0.14416551137E+02  0.00000000000E+00 0. -1.
</event>
<event>
 7    1  0.2682317E-010  0.4778727E+02  0.7816164E-02  0.1312668E+00
        -11   -1    0    0    0    0  0.00000000000E+00  0.00000000000E+00  0.45593999997E+02  0.45594000000E+02  0.51100000000E-03 0.  1.
         11   -1    0    0    0    0 -0.00000000000E+00 -0.00000000000E+00 -0.45593999997E+02  0.45594000000E+02  0.51100000000E-03 0. -1.
    9900012    2    1    2    0    0 -0.31672674602E+02 -0.12276872233E+02  0.27013762593E+02  0.47787271000E+02  0.19999999799E+02 0.  0.
         12    1    1    2    0    0  0.31672674602E+02  0.12276872233E+02 -0.27013762593E+02  0.43400729000E+02  0.00000000000E+00 0. -1.
         11    1    3    3    0    0 -0.10980385727E+02  0.33831588912E+01  0.13384913578E+02  0.17640026830E+02  0.51100000000E-03 0. -1.
        -11    1    3    3    0    0 -0.33561166141E+01 -0.34855156775E-01  0.30027642320E+01  0.45034794219E+01  0.51100000000E-03 0.  1.
        -12    1    3    3    0    0 -0.17336172261E+02 -0.15625175968E+02  0.10626084782E+02  0.25643764749E+02  0.00000000000E+00 0.  1.
</event>
<event>
 7    1  0.2682317E-010  0.4778727E+02  0.7816164E-02  0.1312668E+00
        -11   -1    0    0    0    0  0.00000000000E+00  0.00000000000E+00  0.45593999997E+02  0.45594000000E+02  0.51100000000E-03 0.  1.
         11   -1    0    0    0    0 -0.00000000000E+00 -0.00000000000E+00 -0.45593999997E+02  0.45594000000E+02  0.51100000000E-03 0. -1.
    9900012    2    1    2    0    0  0.21280457016E+02  0.42518697735E+01  0.37585725030E+02  0.47787274505E+02  0.20000015780E+02 0.  0.
         12    1    1    2    0    0 -0.21280457016E+02 -0.42518697735E+01 -0.37585725030E+02  0.43400725495E+02  0.00000000000E+00 0. -1.
         11    1    3    3    0    0  0.63376523341E+01 -0.35640802143E+01  0.87293188975E+01  0.11360876443E+02  0.51100000000E-03 0. -1.
        -11    1    3    3    0    0 -0.25448080171E+01 -0.75987598646E+00  0.46716067868E+01  0.53737667972E+01  0.51100000000E-03 0.  1.
        -12    1    3    3    0    0  0.17487612699E+02  0.85758259742E+01  0.24184799346E+02  0.31052631265E+02  0.00000000000E+00 0.  1.
</event>
<event>
 7    1  0.2682317E-010  0.4778724E+02  0.7816164E-02  0.1312668E+00
        -11   -1    0    0    0    0  0.00000000000E+00  0.00000000000E+00  0.45593999997E+02  0.45594000000E+02  0.51100000000E-03 0.  1.
         11   -1    0    0    0    0 -0.00000000000E+00 -0.00000000000E+00 -0.45593999997E+02  0.45594000000E+02  0.51100000000E-03 0. -1.
    9900012    2    1    2    0    0 -0.35522678585E+02  0.13433602321E+02  0.21007227830E+02  0.47787239796E+02  0.19999857526E+02 0.  0.
         12    1    1    2    0    0  0.35522678585E+02 -0.13433602321E+02 -0.21007227830E+02  0.43400760204E+02  0.00000000000E+00 0. -1.
         11    1    3    3    0    0 -0.13530336295E+02  0.10263817423E+02  0.26400243310E+01  0.17186787864E+02  0.51100000000E-03 0. -1.
        -11    1    3    3    0    0 -0.37603130469E+01  0.48036436381E+01  0.56170914626E+01  0.82925667421E+01  0.51100000000E-03 0.  1.
        -12    1    3    3    0    0 -0.18232029244E+02 -0.16338587403E+01  0.12750112036E+02  0.22307885190E+02  0.00000000000E+00 0.  1.
</event>
<event>
 7    1  0.2682317E-010  0.4778727E+02  0.7816164E-02  0.1312668E+00
        -11   -1    0    0    0    0  0.00000000000E+00  0.00000000000E+00  0.45593999997E+02  0.45594000000E+02  0.51100000000E-03 0.  1.
         11   -1    0    0    0    0 -0.00000000000E+00 -0.00000000000E+00 -0.45593999997E+02  0.45594000000E+02  0.51100000000E-03 0. -1.
    9900012    2    1    2    0    0 -0.33041591751E+02 -0.27228712084E+02 -0.71044912469E+01  0.47787270247E+02  0.19999996364E+02 0.  0.
         12    1    1    2    0    0  0.33041591751E+02  0.27228712084E+02  0.71044912469E+01  0.43400729753E+02  0.00000000000E+00 0. -1.
         11    1    3    3    0    0 -0.12859744305E+02 -0.18172291464E+02 -0.47997280072E+01  0.22773725867E+02  0.51100000000E-03 0.  1.
        -11    1    3    3    0    0 -0.56153698247E+01 -0.73772151600E+01  0.24667452824E+01  0.95937747698E+01  0.51100000000E-03 0. -1.
         12    1    3    3    0    0 -0.14566477621E+02 -0.16792054604E+01 -0.47715085221E+01  0.15419769611E+02  0.00000000000E+00 0. -1.
</event>
<event>
 7    1  0.2682317E-010  0.4778729E+02  0.7816164E-02  0.1312668E+00
        -11   -1    0    0    0    0  0.00000000000E+00  0.00000000000E+00  0.45593999997E+02  0.45594000000E+02  0.51100000000E-03 0.  1.
         11   -1    0    0    0    0 -0.00000000000E+00 -0.00000000000E+00 -0.45593999997E+02  0.45594000000E+02  0.51100000000E-03 0. -1.
    9900012    2    1    2    0    0 -0.11264878347E+02 -0.34955973418E+02  0.23125830190E+02  0.47787290516E+02  0.20000088776E+02 0.  0.
         12    1    1    2    0    0  0.11264878347E+02  0.34955973418E+02 -0.23125830190E+02  0.43400709484E+02  0.00000000000E+00 0. -1.
         11    1    3    3    0    0 -0.82628325411E+01 -0.14485962849E+02  0.26794174763E+01  0.16890731172E+02  0.51100000000E-03 0. -1.
        -11    1    3    3    0    0 -0.68341259755E+01 -0.14999152577E+02  0.14407324024E+02  0.21891798503E+02  0.51100000000E-03 0.  1.
        -12    1    3    3    0    0  0.38320801699E+01 -0.54708579924E+01  0.60390886892E+01  0.90047608407E+01  0.00000000000E+00 0.  1.
</event>
<event>
 7    1  0.2682317E-010  0.4778727E+02  0.7816164E-02  0.1312668E+00
        -11   -1    0    0    0    0  0.00000000000E+00  0.00000000000E+00  0.45593999997E+02  0.45594000000E+02  0.51100000000E-03 0. -1.
         11   -1    0    0    0    0 -0.00000000000E+00 -0.00000000000E+00 -0.45593999997E+02  0.45594000000E+02  0.51100000000E-03 0.  1.
    9900012    2    1    2    0    0  0.37746047844E+02  0.19551457755E+02 -0.87521383542E+01  0.47787267818E+02  0.19999985290E+02 0.  0.
         12    1    1    2    0    0 -0.37746047844E+02 -0.19551457755E+02  0.87521383542E+01  0.43400732182E+02  0.00000000000E+00 0. -1.
         11    1    3    3    0    0  0.55876072372E+01 -0.77631096488E+00 -0.37719247382E+00  0.56538736964E+01  0.51100000000E-03 0. -1.
        -11    1    3    3    0    0  0.29798389136E+02  0.14040373572E+02 -0.22058908838E+01  0.33014270248E+02  0.51100000000E-03 0.  1.
         12    1    3    3    0    0  0.23600514707E+01  0.62873951471E+01 -0.61690549966E+01  0.91191238741E+01  0.00000000000E+00 0. -1.
</event>
<event>
 7    1  0.2682317E-010  0.4778727E+02  0.7816164E-02  0.1312668E+00
        -11   -1    0    0    0    0  0.00000000000E+00  0.00000000000E+00  0.45593999997E+02  0.45594000000E+02  0.51100000000E-03 0. -1.
         11   -1    0    0    0    0 -0.00000000000E+00 -0.00000000000E+00 -0.45593999997E+02  0.45594000000E+02  0.51100000000E-03 0.  1.
    9900012    2    1    2    0    0 -0.55739866923E+01 -0.42520864217E+02 -0.66730910572E+01  0.47787269987E+02  0.19999995178E+02 0.  0.
         12    1    1    2    0    0  0.55739866923E+01  0.42520864217E+02  0.66730910572E+01  0.43400730013E+02  0.00000000000E+00 0. -1.
         11    1    3    3    0    0  0.64721056506E+00  0.94844148394E+00 -0.25776141284E+00  0.11768024350E+01  0.51100000000E-03 0. -1.
        -11    1    3    3    0    0 -0.18389113150E+01 -0.91501122505E+01  0.44595183531E+01  0.10343763978E+02  0.51100000000E-03 0.  1.
        -12    1    3    3    0    0 -0.43822859423E+01 -0.34319193451E+02 -0.10874847997E+02  0.36266703574E+02  0.00000000000E+00 0.  1.
</event>
<event>
 7    1  0.2682317E-010  0.4778728E+02  0.7816164E-02  0.1312668E+00
        -11   -1    0    0    0    0  0.00000000000E+00  0.00000000000E+00  0.45593999997E+02  0.45594000000E+02  0.51100000000E-03 0.  1.
         11   -1    0    0    0    0 -0.00000000000E+00 -0.00000000000E+00 -0.45593999997E+02  0.45594000000E+02  0.51100000000E-03 0. -1.
    9900012    2    1    2    0    0  0.10694715467E+02  0.14590183150E+02  0.39450887259E+02  0.47787275480E+02  0.20000020225E+02 0.  0.
         12    1    1    2    0    0 -0.10694715467E+02 -0.14590183150E+02 -0.39450887259E+02  0.43400724520E+02  0.00000000000E+00 0. -1.
         11    1    3    3    0    0  0.60480501058E+01 -0.23723979836E+00  0.67890086231E+01  0.90953741621E+01  0.51100000000E-03 0. -1.
        -11    1    3    3    0    0  0.29546165699E+01  0.56278928936E+01  0.20437115568E+01  0.66768027292E+01  0.51100000000E-03 0.  1.
        -12    1    3    3    0    0  0.16920487918E+01  0.91995300549E+01  0.30618167080E+02  0.32015098589E+02  0.00000000000E+00 0.  1.
</event>
<event>
 7    1  0.2682317E-010  0.4778727E+02  0.7816164E-02  0.1312668E+00
        -11   -1    0    0    0    0  0.00000000000E+00  0.00000000000E+00  0.45593999997E+02  0.45594000000E+02  0.51100000000E-03 0.  1.
         11   -1    0    0    0    0 -0.00000000000E+00 -0.00000000000E+00 -0.45593999997E+02  0.45594000000E+02  0.51100000000E-03 0. -1.
    9900012    2    1    2    0    0 -0.11086125495E+02 -0.25652952531E+02  0.33206130748E+02  0.47787271074E+02  0.20000000134E+02 0.  0.
         12    1    1    2    0    0  0.11086125495E+02  0.25652952531E+02 -0.33206130748E+02  0.43400728926E+02  0.00000000000E+00 0. -1.
         11    1    3    3    0    0 -0.86068699074E+01 -0.10214052250E+02  0.18389371175E+02  0.22728265342E+02  0.51100000000E-03 0. -1.
        -11    1    3    3    0    0 -0.27160682813E+01 -0.88801999082E+01  0.15894211876E+02  0.18408176138E+02  0.51100000000E-03 0.  1.
         12    1    3    3    0    0  0.23681269367E+00 -0.65587003727E+01 -0.10774523020E+01  0.66508295944E+01  0.00000000000E+00 0. -1.
</event>
<event>
 7    1  0.2682317E-010  0.4778728E+02  0.7816164E-02  0.1312668E+00
        -11   -1    0    0    0    0  0.00000000000E+00  0.00000000000E+00  0.45593999997E+02  0.45594000000E+02  0.51100000000E-03 0. -1.
         11   -1    0    0    0    0 -0.00000000000E+00 -0.00000000000E+00 -0.45593999997E+02  0.45594000000E+02  0.51100000000E-03 0.  1.
    9900012    2    1    2    0    0  0.28062751725E+02 -0.88659953576E+00 -0.33095594141E+02  0.47787280598E+02  0.20000043557E+02 0.  0.
         12    1    1    2    0    0 -0.28062751725E+02  0.88659953576E+00  0.33095594141E+02  0.43400719402E+02  0.00000000000E+00 0. -1.
         11    1    3    3    0    0 -0.59325438348E+00 -0.17572875967E+01  0.55636446521E+00  0.19363760328E+01  0.51100000000E-03 0. -1.
        -11    1    3    3    0    0  0.59402308404E+01 -0.49039242992E+01 -0.85019978327E+01  0.11472522974E+02  0.51100000000E-03 0.  1.
        -12    1    3    3    0    0  0.22715775268E+02  0.57746123602E+01 -0.25149960773E+02  0.34378381591E+02  0.00000000000E+00 0.  1.
</event>
<event>
 7    1  0.2682317E-010  0.4778727E+02  0.7816164E-02  0.1312668E+00
        -11   -1    0    0    0    0  0.00000000000E+00  0.00000000000E+00  0.45593999997E+02  0.45594000000E+02  0.51100000000E-03 0. -1.
         11   -1    0    0    0    0 -0.00000000000E+00 -0.00000000000E+00 -0.45593999997E+02  0.45594000000E+02  0.51100000000E-03 0.  1.
    9900012    2    1    2    0    0 -0.25828234711E+02  0.14405615585E+02  0.31764818913E+02  0.47787272019E+02  0.20000004444E+02 0.  0.
         12    1    1    2    0    0  0.25828234711E+02 -0.14405615585E+02 -0.31764818913E+02  0.43400727981E+02  0.00000000000E+00 0. -1.
         11    1    3    3    0    0 -0.47695256288E+01  0.51249658869E+01  0.80642698564E+01  0.10679236801E+02  0.51100000000E-03 0. -1.
        -11    1    3    3    0    0 -0.23454239882E+02  0.69414051104E+01  0.17548015414E+02  0.30103443633E+02  0.51100000000E-03 0.  1.
         12    1    3    3    0    0  0.23955307995E+01  0.23392445875E+01  0.61525336426E+01  0.70045915852E+01  0.00000000000E+00 0. -1.
</event>
<event>
 7    1  0.2682317E-010  0.4778727E+02  0.7816164E-02  0.1312668E+00
        -11   -1    0    0    0    0  0.00000000000E+00  0.00000000000E+00  0.45593999997E+02  0.45594000000E+02  0.51100000000E-03 0.  1.
         11   -1    0    0    0    0 -0.00000000000E+00 -0.00000000000E+00 -0.45593999997E+02  0.45594000000E+02  0.51100000000E-03 0. -1.
    9900012    2    1    2    0    0  0.26492750989E+02 -0.12314000176E+02  0.32095525245E+02  0.47787271941E+02  0.20000004088E+02 0.  0.
         12    1    1    2    0    0 -0.26492750989E+02  0.12314000176E+02 -0.32095525245E+02  0.43400728059E+02  0.00000000000E+00 0. -1.
         11    1    3    3    0    0  0.19049330027E+02 -0.10318425974E+02  0.15830348236E+02  0.26831824660E+02  0.51100000000E-03 0. -1.
        -11    1    3    3    0    0  0.97376422019E+01 -0.23580600857E+01  0.15598429469E+02  0.18538962355E+02  0.51100000000E-03 0.  1.
        -12    1    3    3    0    0 -0.22942212404E+01  0.36248588371E+00  0.66674754021E+00  0.24164849261E+01  0.00000000000E+00 0.  1.
</event>
<event>
 7    1  0.2682317E-010  0.4778727E+02  0.7816164E-02  0.1312668E+00
        -11   -1    0    0    0    0  0.00000000000E+00  0.00000000000E+00  0.45593999997E+02  0.45594000000E+02  0.51100000000E-03 0.  1.
         11   -1    0    0    0    0 -0.00000000000E+00 -0.00000000000E+00 -0.45593999997E+02  0.45594000000E+02  0.51100000000E-03 0. -1.
    9900012    2    1    2    0    0 -0.36467264050E+02 -0.23486138079E+02  0.14708304774E+01  0.47787269920E+02  0.19999994873E+02 0.  0.
         12    1    1    2    0    0  0.36467264050E+02  0.23486138079E+02 -0.14708304774E+01  0.43400730080E+02  0.00000000000E+00 0. -1.
         11    1    3    3    0    0 -0.19860650712E+02 -0.80067527761E+01  0.42668877556E+01  0.21834831534E+02  0.51100000000E-03 0. -1.
        -11    1    3    3    0    0 -0.12290924206E+02 -0.14814185135E+02  0.21335414529E+01  0.19366953773E+02  0.51100000000E-03 0.  1.
         12    1    3    3    0    0 -0.43156891321E+01 -0.66520016863E+00 -0.49295987311E+01  0.65854846138E+01  0.00000000000E+00 0. -1.
</event>
<event>
 7    1  0.2682317E-010  0.4778727E+02  0.7816164E-02  0.1312668E+00
        -11   -1    0    0    0    0  0.00000000000E+00  0.00000000000E+00  0.45593999997E+02  0.45594000000E+02  0.51100000000E-03 0. -1.
         11   -1    0    0    0    0 -0.00000000000E+00 -0.00000000000E+00 -0.45593999997E+02  0.45594000000E+02  0.51100000000E-03 0.  1.
    9900012    2    1    2    0    0  0.91913173847E+01  0.41370395707E+02 -0.93612646651E+01  0.47787271522E+02  0.20000002180E+02 0.  0.
         12    1    1    2    0    0 -0.91913173847E+01 -0.41370395707E+02  0.93612646651E+01  0.43400728478E+02  0.00000000000E+00 0. -1.
         11    1    3    3    0    0 -0.45392238473E+01  0.13114958244E+02  0.17895862165E+01  0.13993187698E+02  0.51100000000E-03 0. -1.
        -11    1    3    3    0    0  0.31590715285E+01  0.12654614059E+02 -0.50400590999E+01  0.13982889039E+02  0.51100000000E-03 0.  1.
         12    1    3    3    0    0  0.10571469703E+02  0.15600823405E+02 -0.61107917818E+01  0.19811194785E+02  0.00000000000E+00 0. -1.
</event>
<event>
 7    1  0.2682317E-010  0.4778727E+02  0.7816164E-02  0.1312668E+00
        -11   -1    0    0    0    0  0.00000000000E+00  0.00000000000E+00  0.45593999997E+02  0.45594000000E+02  0.51100000000E-03 0.  1.
         11   -1    0    0    0    0 -0.00000000000E+00 -0.00000000000E+00 -0.45593999997E+02  0.45594000000E+02  0.51100000000E-03 0. -1.
    9900012    2    1    2    0    0  0.19744401254E+02  0.98908999834E+01  0.37362442090E+02  0.47787270026E+02  0.19999995355E+02 0.  0.
         12    1    1    2    0    0 -0.19744401254E+02 -0.98908999834E+01 -0.37362442090E+02  0.43400729974E+02  0.00000000000E+00 0. -1.
         11    1    3    3    0    0  0.25852587696E+01 -0.30218172223E+01  0.15131218805E+01  0.42549359945E+01  0.51100000000E-03 0. -1.
        -11    1    3    3    0    0 -0.12566558081E+00  0.45382393008E+01  0.12497216769E+02  0.13296309076E+02  0.51100000000E-03 0.  1.
         12    1    3    3    0    0  0.17284808065E+02  0.83744779050E+01  0.23352103440E+02  0.30236024956E+02  0.00000000000E+00 0. -1.
</event>
<event>
 7    1  0.2682317E-010  0.4778727E+02  0.7816164E-02  0.1312668E+00
        -11   -1    0    0    0    0  0.00000000000E+00  0.00000000000E+00  0.45593999997E+02  0.45594000000E+02  0.51100000000E-03 0.  1.
         11   -1    0    0    0    0 -0.00000000000E+00 -0.00000000000E+00 -0.45593999997E+02  0.45594000000E+02  0.51100000000E-03 0. -1.
    9900012    2    1    2    0    0  0.26317849038E+02 -0.24474011496E+02  0.24331392778E+02  0.47787273149E+02  0.20000009594E+02 0.  0.
         12    1    1    2    0    0 -0.26317849038E+02  0.24474011496E+02 -0.24331392778E+02  0.43400726851E+02  0.00000000000E+00 0. -1.
         11    1    3    3    0    0  0.10749335936E+02 -0.12580406494E+02  0.11064872367E+02  0.19905935079E+02  0.51100000000E-03 0. -1.
        -11    1    3    3    0    0  0.13999163025E+02 -0.15048966789E+02  0.13058700106E+02  0.24351131710E+02  0.51100000000E-03 0.  1.
         12    1    3    3    0    0  0.15693500765E+01  0.31553617860E+01  0.20782030447E+00  0.35302063597E+01  0.00000000000E+00 0. -1.
</event>
<event>
 7    1  0.2682317E-010  0.4778727E+02  0.7816164E-02  0.1312668E+00
        -11   -1    0    0    0    0  0.00000000000E+00  0.00000000000E+00  0.45593999997E+02  0.45594000000E+02  0.51100000000E-03 0.  1.
         11   -1    0    0    0    0 -0.00000000000E+00 -0.00000000000E+00 -0.45593999997E+02  0.45594000000E+02  0.51100000000E-03 0. -1.
    9900012    2    1    2    0    0 -0.29802524415E+02  0.14722478685E+02  0.27904862018E+02  0.47787272305E+02  0.20000005750E+02 0.  0.
         12    1    1    2    0    0  0.29802524415E+02 -0.14722478685E+02 -0.27904862018E+02  0.43400727695E+02  0.00000000000E+00 0. -1.
         11    1    3    3    0    0 -0.27969221409E+00  0.22872274071E+01  0.11608853126E+02  0.11835333038E+02  0.51100000000E-03 0. -1.
        -11    1    3    3    0    0 -0.50010254896E+01  0.22379088680E+01  0.24508864576E+01  0.60021110235E+01  0.51100000000E-03 0.  1.
         12    1    3    3    0    0 -0.24521806712E+02  0.10197342410E+02  0.13845122434E+02  0.29949828244E+02  0.00000000000E+00 0. -1.
</event>
<event>
 7    1  0.2682317E-010  0.4778727E+02  0.7816164E-02  0.1312668E+00
        -11   -1    0    0    0    0  0.00000000000E+00  0.00000000000E+00  0.45593999997E+02  0.45594000000E+02  0.51100000000E-03 0. -1.
         11   -1    0    0    0    0 -0.00000000000E+00 -0.00000000000E+00 -0.45593999997E+02  0.45594000000E+02  0.51100000000E-03 0.  1.
    9900012    2    1    2    0    0 -0.46087719001E-01 -0.34233911202E+02  0.26676966860E+02  0.47787270039E+02  0.19999995416E+02 0.  0.
         12    1    1    2    0    0  0.46087719001E-01  0.34233911202E+02 -0.26676966860E+02  0.43400729961E+02  0.00000000000E+00 0. -1.
         11    1    3    3    0    0  0.65530843383E+01 -0.16728636706E+02  0.88697263259E+01  0.20036522796E+02  0.51100000000E-03 0.  1.
        -11    1    3    3    0    0  0.96587409402E+00 -0.12771403601E+01  0.62219186337E+01  0.64246612370E+01  0.51100000000E-03 0. -1.
         12    1    3    3    0    0 -0.75650461513E+01 -0.16228134136E+02  0.11585321900E+02  0.21326086006E+02  0.00000000000E+00 0. -1.
</event>
<event>
 7    1  0.2682317E-010  0.4778727E+02  0.7816164E-02  0.1312668E+00
        -11   -1    0    0    0    0  0.00000000000E+00  0.00000000000E+00  0.45593999997E+02  0.45594000000E+02  0.51100000000E-03 0.  1.
         11   -1    0    0    0    0 -0.00000000000E+00 -0.00000000000E+00 -0.45593999997E+02  0.45594000000E+02  0.51100000000E-03 0. -1.
    9900012    2    1    2    0    0  0.25238451451E+02 -0.18793517981E+02  0.29890591875E+02  0.47787271522E+02  0.20000002178E+02 0.  0.
         12    1    1    2    0    0 -0.25238451451E+02  0.18793517981E+02 -0.29890591875E+02  0.43400728478E+02  0.00000000000E+00 0. -1.
         11    1    3    3    0    0 -0.74687054667E+00 -0.40830451870E+01  0.15528935971E+01  0.44317662842E+01  0.51100000000E-03 0. -1.
        -11    1    3    3    0    0  0.16260824281E+02 -0.13105971741E+02  0.11490798980E+02  0.23837352266E+02  0.51100000000E-03 0.  1.
         12    1    3    3    0    0  0.97244977168E+01 -0.16045010527E+01  0.16846899298E+02  0.19518152972E+02  0.00000000000E+00 0. -1.
</event>
<event>
 7    1  0.2682317E-010  0.4778727E+02  0.7816164E-02  0.1312668E+00
        -11   -1    0    0    0    0  0.00000000000E+00  0.00000000000E+00  0.45593999997E+02  0.45594000000E+02  0.51100000000E-03 0.  1.
         11   -1    0    0    0    0 -0.00000000000E+00 -0.00000000000E+00 -0.45593999997E+02  0.45594000000E+02  0.51100000000E-03 0. -1.
    9900012    2    1    2    0    0 -0.26690563658E+02 -0.24977673005E+02  0.23395570260E+02  0.47787273682E+02  0.20000012027E+02 0.  0.
         12    1    1    2    0    0  0.26690563658E+02  0.24977673005E+02 -0.23395570260E+02  0.43400726318E+02  0.00000000000E+00 0. -1.
         11    1    3    3    0    0 -0.50991394308E+01 -0.23354894558E+01  0.12002090463E+02  0.13247864344E+02  0.51100000000E-03 0.  1.
        -11    1    3    3    0    0 -0.13074695505E+01 -0.50193513713E+01 -0.38499775971E+00  0.52011141451E+01  0.51100000000E-03 0. -1.
        -12    1    3    3    0    0 -0.20283954676E+02 -0.17622832178E+02  0.11778477557E+02  0.29338295193E+02  0.00000000000E+00 0.  1.
</event>
<event>
 7    1  0.2682317E-010  0.4778727E+02  0.7816164E-02  0.1312668E+00
        -11   -1    0    0    0    0  0.00000000000E+00  0.00000000000E+00  0.45593999997E+02  0.45594000000E+02  0.51100000000E-03 0. -1.
         11   -1    0    0    0    0 -0.00000000000E+00 -0.00000000000E+00 -0.45593999997E+02  0.45594000000E+02  0.51100000000E-03 0.  1.
    9900012    2    1    2    0    0  0.38894155631E+02 -0.79729459019E+01 -0.17529974776E+02  0.47787271617E+02  0.20000002608E+02 0.  0.
         12    1    1    2    0    0 -0.38894155631E+02  0.79729459019E+01  0.17529974776E+02  0.43400728383E+02  0.00000000000E+00 0. -1.
         11    1    3    3    0    0  0.24864791886E+02 -0.53136735727E+01 -0.28722226999E+01  0.25587939852E+02  0.51100000000E-03 0.  1.
        -11    1    3    3    0    0  0.71812370253E+01 -0.54795119227E+01 -0.61935622448E+01  0.10952416613E+02  0.51100000000E-03 0. -1.
        -12    1    3    3    0    0  0.68481267194E+01  0.28202395935E+01 -0.84641898311E+01  0.11246915152E+02  0.00000000000E+00 0.  1.
</event>
<event>
 7    1  0.2682317E-010  0.4778727E+02  0.7816164E-02  0.1312668E+00
        -11   -1    0    0    0    0  0.00000000000E+00  0.00000000000E+00  0.45593999997E+02  0.45594000000E+02  0.51100000000E-03 0. -1.
         11   -1    0    0    0    0 -0.00000000000E+00 -0.00000000000E+00 -0.45593999997E+02  0.45594000000E+02  0.51100000000E-03 0.  1.
    9900012    2    1    2    0    0 -0.16881922884E+02 -0.37927860736E+02 -0.12653122155E+02  0.47787269124E+02  0.19999991244E+02 0.  0.
         12    1    1    2    0    0  0.16881922884E+02  0.37927860736E+02  0.12653122155E+02  0.43400730876E+02  0.00000000000E+00 0. -1.
         11    1    3    3    0    0 -0.67412259667E+01 -0.32956248788E+01 -0.31880006976E+01  0.81528289314E+01  0.51100000000E-03 0. -1.
        -11    1    3    3    0    0 -0.11892507464E+02 -0.20856023665E+02 -0.92987256480E+01  0.25746295964E+02  0.51100000000E-03 0.  1.
        -12    1    3    3    0    0  0.17518105468E+01 -0.13776212192E+02 -0.16639580915E+00  0.13888144229E+02  0.00000000000E+00 0.  1.
</event>
<event>
 7    1  0.2682317E-010  0.4778727E+02  0.7816164E-02  0.1312668E+00
        -11   -1    0    0    0    0  0.00000000000E+00  0.00000000000E+00  0.45593999997E+02  0.45594000000E+02  0.51100000000E-03 0.  1.
         11   -1    0    0    0    0 -0.00000000000E+00 -0.00000000000E+00 -0.45593999997E+02  0.45594000000E+02  0.51100000000E-03 0. -1.
    9900012    2    1    2    0    0 -0.39110343055E+02  0.35052459017E+01  0.18485599755E+02  0.47787273267E+02  0.20000010132E+02 0.  0.
         12    1    1    2    0    0  0.39110343055E+02 -0.35052459017E+01 -0.18485599755E+02  0.43400726733E+02  0.00000000000E+00 0. -1.
         11    1    3    3    0    0 -0.14766866021E+02  0.41859912893E+01  0.27143504024E+01  0.15586871191E+02  0.51100000000E-03 0. -1.
        -11    1    3    3    0    0 -0.87651754928E+01  0.43139197001E+01  0.43877445219E+00  0.97790964756E+01  0.51100000000E-03 0.  1.
        -12    1    3    3    0    0 -0.15578301541E+02 -0.49946650876E+01  0.15332474901E+02  0.22421305600E+02  0.00000000000E+00 0.  1.
</event>
<event>
 7    1  0.2682317E-010  0.4778728E+02  0.7816164E-02  0.1312668E+00
        -11   -1    0    0    0    0  0.00000000000E+00  0.00000000000E+00  0.45593999997E+02  0.45594000000E+02  0.51100000000E-03 0.  1.
         11   -1    0    0    0    0 -0.00000000000E+00 -0.00000000000E+00 -0.45593999997E+02  0.45594000000E+02  0.51100000000E-03 0. -1.
    9900012    2    1    2    0    0 -0.54380666546E+01 -0.50771544151E+01  0.42758301913E+02  0.47787280554E+02  0.20000043359E+02 0.  0.
         12    1    1    2    0    0  0.54380666546E+01  0.50771544151E+01 -0.42758301913E+02  0.43400719446E+02  0.00000000000E+00 0. -1.
         11    1    3    3    0    0 -0.90189720775E+00  0.38605854167E+01  0.84880680962E+01  0.93682889900E+01  0.51100000000E-03 0. -1.
        -11    1    3    3    0    0 -0.70660148307E+01 -0.38730503711E+01  0.30667625652E+02  0.31708553234E+02  0.51100000000E-03 0.  1.
         12    1    3    3    0    0  0.25298453839E+01 -0.50646894607E+01  0.36026081646E+01  0.67104383305E+01  0.00000000000E+00 0. -1.
</event>
<event>
 7    1  0.2682317E-010  0.4778727E+02  0.7816164E-02  0.1312668E+00
        -11   -1    0    0    0    0  0.00000000000E+00  0.00000000000E+00  0.45593999997E+02  0.45594000000E+02  0.51100000000E-03 0.  1.
         11   -1    0    0    0    0 -0.00000000000E+00 -0.00000000000E+00 -0.45593999997E+02  0.45594000000E+02  0.51100000000E-03 0. -1.
    9900012    2    1    2    0    0 -0.11653879174E+02 -0.14339413849E+02  0.39270749004E+02  0.47787269399E+02  0.19999992500E+02 0.  0.
         12    1    1    2    0    0  0.11653879174E+02  0.14339413849E+02 -0.39270749004E+02  0.43400730601E+02  0.00000000000E+00 0. -1.
         11    1    3    3    0    0 -0.36564651450E+01 -0.72216985857E+01  0.29592409358E+01  0.86185715172E+01  0.51100000000E-03 0. -1.
        -11    1    3    3    0    0  0.88603499621E+00  0.17485816903E+01  0.31342141352E+01  0.36967410578E+01  0.51100000000E-03 0.  1.
        -12    1    3    3    0    0 -0.88834490254E+01 -0.88662969533E+01  0.33177293933E+02  0.35471956824E+02  0.00000000000E+00 0.  1.
</event>
<event>
 7    1  0.2682317E-010  0.4778727E+02  0.7816164E-02  0.1312668E+00
        -11   -1    0    0    0    0  0.00000000000E+00  0.00000000000E+00  0.45593999997E+02  0.45594000000E+02  0.51100000000E-03 0.  1.
         11   -1    0    0    0    0 -0.00000000000E+00 -0.00000000000E+00 -0.45593999997E+02  0.45594000000E+02  0.51100000000E-03 0. -1.
    9900012    2    1    2    0    0 -0.35867550305E+02  0.18559716413E+02  0.15895887456E+02  0.47787268713E+02  0.19999989372E+02 0.  0.
         12    1    1    2    0    0  0.35867550305E+02 -0.18559716413E+02 -0.15895887456E+02  0.43400731287E+02  0.00000000000E+00 0. -1.
         11    1    3    3    0    0 -0.10490100980E+02  0.76025154653E+01 -0.22624378714E+01  0.13151391005E+02  0.51100000000E-03 0. -1.
        -11    1    3    3    0    0 -0.17842615296E+02  0.96095676558E+01  0.77080243273E+01  0.21682166645E+02  0.51100000000E-03 0.  1.
        -12    1    3    3    0    0 -0.75348340284E+01  0.13476332920E+01  0.10450301000E+02  0.12953711064E+02  0.00000000000E+00 0.  1.
</event>
<event>
 7    1  0.2682317E-010  0.4778727E+02  0.7816164E-02  0.1312668E+00
        -11   -1    0    0    0    0  0.00000000000E+00  0.00000000000E+00  0.45593999997E+02  0.45594000000E+02  0.51100000000E-03 0.  1.
         11   -1    0    0    0    0 -0.00000000000E+00 -0.00000000000E+00 -0.45593999997E+02  0.45594000000E+02  0.51100000000E-03 0. -1.
    9900012    2    1    2    0    0 -0.32279242774E+02 -0.23572064931E+02  0.16912465857E+02  0.47787271198E+02  0.20000000702E+02 0.  0.
         12    1    1    2    0    0  0.32279242774E+02  0.23572064931E+02 -0.16912465857E+02  0.43400728802E+02  0.00000000000E+00 0. -1.
         11    1    3    3    0    0 -0.47885560331E+01 -0.48346764521E+01 -0.99128782790E+00  0.68765556129E+01  0.51100000000E-03 0. -1.
        -11    1    3    3    0    0 -0.22569144617E+02 -0.80745902312E+01  0.72187394810E+01  0.25033487494E+02  0.51100000000E-03 0.  1.
         12    1    3    3    0    0 -0.49215421233E+01 -0.10662798248E+02  0.10685014203E+02  0.15877228092E+02  0.00000000000E+00 0. -1.
</event>
<event>
 7    1  0.2682317E-010  0.4778726E+02  0.7816164E-02  0.1312668E+00
        -11   -1    0    0    0    0  0.00000000000E+00  0.00000000000E+00  0.45593999997E+02  0.45594000000E+02  0.51100000000E-03 0. -1.
         11   -1    0    0    0    0 -0.00000000000E+00 -0.00000000000E+00 -0.45593999997E+02  0.45594000000E+02  0.51100000000E-03 0.  1.
    9900012    2    1    2    0    0 -0.17391389298E+02  0.27781410704E+02 -0.28449195422E+02  0.47787263571E+02  0.19999965926E+02 0.  0.
         12    1    1    2    0    0  0.17391389298E+02 -0.27781410704E+02  0.28449195422E+02  0.43400736429E+02  0.00000000000E+00 0. -1.
         11    1    3    3    0    0 -0.12255767629E+02  0.50505152894E+01 -0.69422247073E+01  0.14963489867E+02  0.51100000000E-03 0. -1.
        -11    1    3    3    0    0 -0.61119919564E+01  0.84410200963E+01 -0.10108984940E+02  0.14518913276E+02  0.51100000000E-03 0.  1.
        -12    1    3    3    0    0  0.97637028759E+00  0.14289875318E+02 -0.11397985775E+02  0.18304860427E+02  0.00000000000E+00 0.  1.
</event>
<event>
 7    1  0.2682317E-010  0.4778727E+02  0.7816164E-02  0.1312668E+00
        -11   -1    0    0    0    0  0.00000000000E+00  0.00000000000E+00  0.45593999997E+02  0.45594000000E+02  0.51100000000E-03 0.  1.
         11   -1    0    0    0    0 -0.00000000000E+00 -0.00000000000E+00 -0.45593999997E+02  0.45594000000E+02  0.51100000000E-03 0. -1.
    9900012    2    1    2    0    0 -0.26484892693E+00  0.43033407919E+02  0.56284241915E+01  0.47787268428E+02  0.19999988072E+02 0.  0.
         12    1    1    2    0    0  0.26484892693E+00 -0.43033407919E+02 -0.56284241915E+01  0.43400731572E+02  0.00000000000E+00 0. -1.
         11    1    3    3    0    0  0.10055005237E+01  0.17924407185E+01 -0.14388739032E+01  0.25088310830E+01  0.51100000000E-03 0. -1.
        -11    1    3    3    0    0  0.52135729811E+00  0.23852663732E+02 -0.45518936651E+01  0.24288703480E+02  0.51100000000E-03 0.  1.
         12    1    3    3    0    0 -0.17917067487E+01  0.17388303468E+02  0.11619191760E+02  0.20989733865E+02  0.00000000000E+00 0. -1.
</event>
<event>
 7    1  0.2682317E-010  0.4778727E+02  0.7816164E-02  0.1312668E+00
        -11   -1    0    0    0    0  0.00000000000E+00  0.00000000000E+00  0.45593999997E+02  0.45594000000E+02  0.51100000000E-03 0.  1.
         11   -1    0    0    0    0 -0.00000000000E+00 -0.00000000000E+00 -0.45593999997E+02  0.45594000000E+02  0.51100000000E-03 0. -1.
    9900012    2    1    2    0    0 -0.21686805513E+02  0.34617620528E+02 -0.14660363970E+02  0.47787268945E+02  0.19999990427E+02 0.  0.
         12    1    1    2    0    0  0.21686805513E+02 -0.34617620528E+02  0.14660363970E+02  0.43400731055E+02  0.00000000000E+00 0. -1.
         11    1    3    3    0    0 -0.71501831108E+01  0.19193441182E+02 -0.11901836565E+02  0.23688964030E+02  0.51100000000E-03 0. -1.
        -11    1    3    3    0    0 -0.10401909905E+02  0.16554996093E+02 -0.14004629906E+01  0.19601758140E+02  0.51100000000E-03 0.  1.
         12    1    3    3    0    0 -0.41347124970E+01 -0.11308167469E+01 -0.13580644140E+01  0.44965467751E+01  0.00000000000E+00 0. -1.
</event>
<event>
 7    1  0.2682317E-010  0.4778727E+02  0.7816164E-02  0.1312668E+00
        -11   -1    0    0    0    0  0.00000000000E+00  0.00000000000E+00  0.45593999997E+02  0.45594000000E+02  0.51100000000E-03 0.  1.
         11   -1    0    0    0    0 -0.00000000000E+00 -0.00000000000E+00 -0.45593999997E+02  0.45594000000E+02  0.51100000000E-03 0. -1.
    9900012    2    1    2    0    0 -0.30788777424E+02 -0.25067154472E+02 -0.17530318763E+02  0.47787272765E+02  0.20000007845E+02 0.  0.
         12    1    1    2    0    0  0.30788777424E+02  0.25067154472E+02  0.17530318763E+02  0.43400727235E+02  0.00000000000E+00 0. -1.
         11    1    3    3    0    0  0.59287939861E+00 -0.17794156198E+01  0.83684394489E-01  0.18774528671E+01  0.51100000000E-03 0. -1.
        -11    1    3    3    0    0 -0.15164847191E+02 -0.20565065362E+02 -0.13756757855E+02  0.29019698321E+02  0.51100000000E-03 0.  1.
         12    1    3    3    0    0 -0.16216809632E+02 -0.27226734901E+01 -0.38572453018E+01  0.16890121577E+02  0.00000000000E+00 0. -1.
</event>
<event>
 7    1  0.2682317E-010  0.4778726E+02  0.7816164E-02  0.1312668E+00
        -11   -1    0    0    0    0  0.00000000000E+00  0.00000000000E+00  0.45593999997E+02  0.45594000000E+02  0.51100000000E-03 0.  1.
         11   -1    0    0    0    0 -0.00000000000E+00 -0.00000000000E+00 -0.45593999997E+02  0.45594000000E+02  0.51100000000E-03 0. -1.
    9900012    2    1    2    0    0 -0.36787418372E+02 -0.22756354247E+02  0.35295915114E+01  0.47787264691E+02  0.19999971032E+02 0.  0.
         12    1    1    2    0    0  0.36787418372E+02  0.22756354247E+02 -0.35295915114E+01  0.43400735309E+02  0.00000000000E+00 0. -1.
         11    1    3    3    0    0 -0.41353409720E+01  0.18090914622E+00  0.11096986354E+00  0.41407834580E+01  0.51100000000E-03 0. -1.
        -11    1    3    3    0    0 -0.33624325275E+02 -0.18356583769E+02  0.51511968413E+01  0.38653515326E+02  0.51100000000E-03 0.  1.
         12    1    3    3    0    0  0.97224787491E+00 -0.45806796242E+01 -0.17325751935E+01  0.49929659072E+01  0.00000000000E+00 0. -1.
</event>
<event>
 7    1  0.2682317E-010  0.4778729E+02  0.7816164E-02  0.1312668E+00
        -11   -1    0    0    0    0  0.00000000000E+00  0.00000000000E+00  0.45593999997E+02  0.45594000000E+02  0.51100000000E-03 0.  1.
         11   -1    0    0    0    0 -0.00000000000E+00 -0.00000000000E+00 -0.45593999997E+02  0.45594000000E+02  0.51100000000E-03 0. -1.
    9900012    2    1    2    0    0 -0.14241146096E+02 -0.24618704887E+02  0.32783086435E+02  0.47787289999E+02  0.20000086419E+02 0.  0.
         12    1    1    2    0    0  0.14241146096E+02  0.24618704887E+02 -0.32783086435E+02  0.43400710001E+02  0.00000000000E+00 0. -1.
         11    1    3    3    0    0  0.20081864182E+01 -0.37085779908E+01  0.12625553182E+01  0.44023186614E+01  0.51100000000E-03 0. -1.
        -11    1    3    3    0    0 -0.25753323376E+01 -0.11447719071E+02  0.19887632762E+02  0.23091135652E+02  0.51100000000E-03 0.  1.
         12    1    3    3    0    0 -0.13674000176E+02 -0.94624078255E+01  0.11632898354E+02  0.20293835685E+02  0.00000000000E+00 0. -1.
</event>
<event>
 7    1  0.2682317E-010  0.4778727E+02  0.7816164E-02  0.1312668E+00
        -11   -1    0    0    0    0  0.00000000000E+00  0.00000000000E+00  0.45593999997E+02  0.45594000000E+02  0.51100000000E-03 0. -1.
         11   -1    0    0    0    0 -0.00000000000E+00 -0.00000000000E+00 -0.45593999997E+02  0.45594000000E+02  0.51100000000E-03 0.  1.
    9900012    2    1    2    0    0 -0.25427348774E+02 -0.25267088352E+01 -0.35081174937E+02  0.47787272377E+02  0.20000006075E+02 0.  0.
         12    1    1    2    0    0  0.25427348774E+02  0.25267088352E+01  0.35081174937E+02  0.43400727623E+02  0.00000000000E+00 0. -1.
         11    1    3    3    0    0  0.48806774227E+00  0.97846696588E+00  0.66856983539E+00  0.12816370821E+01  0.51100000000E-03 0. -1.
        -11    1    3    3    0    0 -0.51501054496E+01 -0.79869629118E+00 -0.18965243055E+02  0.19668298002E+02  0.51100000000E-03 0.  1.
        -12    1    3    3    0    0 -0.20765311067E+02 -0.27064795099E+01 -0.16784501718E+02  0.26837337293E+02  0.00000000000E+00 0.  1.
</event>
<event>
 7    1  0.2682317E-010  0.4778728E+02  0.7816164E-02  0.1312668E+00
        -11   -1    0    0    0    0  0.00000000000E+00  0.00000000000E+00  0.45593999997E+02  0.45594000000E+02  0.51100000000E-03 0. -1.
         11   -1    0    0    0    0 -0.00000000000E+00 -0.00000000000E+00 -0.45593999997E+02  0.45594000000E+02  0.51100000000E-03 0.  1.
    9900012    2    1    2    0    0  0.25248800257E+02  0.27229397377E+02 -0.22465098312E+02  0.47787278369E+02  0.20000033396E+02 0.  0.
         12    1    1    2    0    0 -0.25248800257E+02 -0.27229397377E+02  0.22465098312E+02  0.43400721631E+02  0.00000000000E+00 0. -1.
         11    1    3    3    0    0  0.72957473517E+01  0.11753799159E+02 -0.10990013447E+02  0.17668053654E+02  0.51100000000E-03 0. -1.
        -11    1    3    3    0    0  0.77841934389E+01  0.14929214352E+02 -0.10605724950E+02  0.19898656001E+02  0.51100000000E-03 0.  1.
         12    1    3    3    0    0  0.10168859466E+02  0.54638386560E+00 -0.86935991458E+00  0.10220568714E+02  0.00000000000E+00 0. -1.
</event>
<event>
 7    1  0.2682317E-010  0.4778724E+02  0.7816164E-02  0.1312668E+00
        -11   -1    0    0    0    0  0.00000000000E+00  0.00000000000E+00  0.45593999997E+02  0.45594000000E+02  0.51100000000E-03 0. -1.
         11   -1    0    0    0    0 -0.00000000000E+00 -0.00000000000E+00 -0.45593999997E+02  0.45594000000E+02  0.51100000000E-03 0.  1.
    9900012    2    1    2    0    0  0.16410199917E+02  0.23669266529E+02 -0.32466863059E+02  0.47787239221E+02  0.19999854904E+02 0.  0.
         12    1    1    2    0    0 -0.16410199917E+02 -0.23669266529E+02  0.32466863059E+02  0.43400760779E+02  0.00000000000E+00 0. -1.
         11    1    3    3    0    0  0.18411747699E+01  0.81626882105E+01 -0.10454690588E+02  0.13391040247E+02  0.51100000000E-03 0. -1.
        -11    1    3    3    0    0  0.90229852738E+01  0.17792069987E+02 -0.19487999715E+02  0.27888243953E+02  0.51100000000E-03 0.  1.
        -12    1    3    3    0    0  0.55460398737E+01 -0.22854916685E+01 -0.25241727562E+01  0.65079550206E+01  0.00000000000E+00 0.  1.
</event>
<event>
 7    1  0.2682317E-010  0.4778727E+02  0.7816164E-02  0.1312668E+00
        -11   -1    0    0    0    0  0.00000000000E+00  0.00000000000E+00  0.45593999997E+02  0.45594000000E+02  0.51100000000E-03 0.  1.
         11   -1    0    0    0    0 -0.00000000000E+00 -0.00000000000E+00 -0.45593999997E+02  0.45594000000E+02  0.51100000000E-03 0. -1.
    9900012    2    1    2    0    0 -0.78320466196E+01 -0.78749338201E+01  0.41955546975E+02  0.47787268913E+02  0.19999990284E+02 0.  0.
         12    1    1    2    0    0  0.78320466196E+01  0.78749338201E+01 -0.41955546975E+02  0.43400731087E+02  0.00000000000E+00 0. -1.
         11    1    3    3    0    0  0.47940682086E+00 -0.28291056450E+01  0.18693453835E+02  0.18912400328E+02  0.51100000000E-03 0. -1.
        -11    1    3    3    0    0 -0.95989179285E+01 -0.67837496822E+01  0.23888055702E+02  0.26623254697E+02  0.51100000000E-03 0.  1.
        -12    1    3    3    0    0  0.12874644880E+01  0.17379215072E+01 -0.62596256236E+00  0.22516138884E+01  0.00000000000E+00 0.  1.
</event>
<event>
 7    1  0.2682317E-010  0.4778728E+02  0.7816164E-02  0.1312668E+00
        -11   -1    0    0    0    0  0.00000000000E+00  0.00000000000E+00  0.45593999997E+02  0.45594000000E+02  0.51100000000E-03 0. -1.
         11   -1    0    0    0    0 -0.00000000000E+00 -0.00000000000E+00 -0.45593999997E+02  0.45594000000E+02  0.51100000000E-03 0.  1.
    9900012    2    1    2    0    0 -0.40427257159E+02 -0.13630857224E+02  0.79661261304E+01  0.47787279319E+02  0.20000037729E+02 0.  0.
         12    1    1    2    0    0  0.40427257159E+02  0.13630857224E+02 -0.79661261304E+01  0.43400720681E+02  0.00000000000E+00 0. -1.
         11    1    3    3    0    0 -0.85197321948E+01  0.14066787261E+01 -0.25735597029E+01  0.90104268220E+01  0.51100000000E-03 0.  1.
        -11    1    3    3    0    0 -0.10766982903E+02 -0.11253198183E+01  0.77547098249E+01  0.13316523204E+02  0.51100000000E-03 0. -1.
         12    1    3    3    0    0 -0.21140542062E+02 -0.13912216131E+02  0.27849760084E+01  0.25460329293E+02  0.00000000000E+00 0. -1.
</event>
<event>
 7    1  0.2682317E-010  0.4778727E+02  0.7816164E-02  0.1312668E+00
        -11   -1    0    0    0    0  0.00000000000E+00  0.00000000000E+00  0.45593999997E+02  0.45594000000E+02  0.51100000000E-03 0.  1.
         11   -1    0    0    0    0 -0.00000000000E+00 -0.00000000000E+00 -0.45593999997E+02  0.45594000000E+02  0.51100000000E-03 0. -1.
    9900012    2    1    2    0    0 -0.10584639816E+02  0.42083108095E+02  0.77504873896E+00  0.47787270888E+02  0.19999999286E+02 0.  0.
         12    1    1    2    0    0  0.10584639816E+02 -0.42083108095E+02 -0.77504873896E+00  0.43400729112E+02  0.00000000000E+00 0. -1.
         11    1    3    3    0    0 -0.64681784383E+00 -0.31711798934E+00  0.26292914331E+01  0.27261898032E+01  0.51100000000E-03 0. -1.
        -11    1    3    3    0    0  0.16116759194E+01  0.19728189986E+01 -0.16137600906E+01  0.30155821928E+01  0.51100000000E-03 0.  1.
        -12    1    3    3    0    0 -0.11549497891E+02  0.40427407085E+02 -0.24048260348E+00  0.42045498892E+02  0.00000000000E+00 0.  1.
</event>
<event>
 7    1  0.2682317E-010  0.4778727E+02  0.7816164E-02  0.1312668E+00
        -11   -1    0    0    0    0  0.00000000000E+00  0.00000000000E+00  0.45593999997E+02  0.45594000000E+02  0.51100000000E-03 0.  1.
         11   -1    0    0    0    0 -0.00000000000E+00 -0.00000000000E+00 -0.45593999997E+02  0.45594000000E+02  0.51100000000E-03 0. -1.
    9900012    2    1    2    0    0 -0.59402171317E+01 -0.75965506402E+01  0.42315835282E+02  0.47787266402E+02  0.19999978833E+02 0.  0.
         12    1    1    2    0    0  0.59402171317E+01  0.75965506402E+01 -0.42315835282E+02  0.43400733598E+02  0.00000000000E+00 0. -1.
         11    1    3    3    0    0 -0.41644716501E+00 -0.74179133725E+01  0.68511146870E+01  0.10106267350E+02  0.51100000000E-03 0. -1.
        -11    1    3    3    0    0  0.11510700357E+01 -0.42862772763E+01  0.83488000807E+01  0.94551360733E+01  0.51100000000E-03 0.  1.
        -12    1    3    3    0    0 -0.66748400023E+01  0.41076400086E+01  0.27115920515E+02  0.28225862978E+02  0.00000000000E+00 0.  1.
</event>
<event>
 7    1  0.2682317E-010  0.4778727E+02  0.7816164E-02  0.1312668E+00
        -11   -1    0    0    0    0  0.00000000000E+00  0.00000000000E+00  0.45593999997E+02  0.45594000000E+02  0.51100000000E-03 0.  1.
         11   -1    0    0    0    0 -0.00000000000E+00 -0.00000000000E+00 -0.45593999997E+02  0.45594000000E+02  0.51100000000E-03 0. -1.
    9900012    2    1    2    0    0 -0.31931697321E+02  0.27477698445E+02  0.10438678366E+02  0.47787271761E+02  0.20000003265E+02 0.  0.
         12    1    1    2    0    0  0.31931697321E+02 -0.27477698445E+02 -0.10438678366E+02  0.43400728239E+02  0.00000000000E+00 0. -1.
         11    1    3    3    0    0 -0.79842879773E+01  0.43473989063E+01 -0.21972971702E+01  0.93529057982E+01  0.51100000000E-03 0. -1.
        -11    1    3    3    0    0 -0.18133140404E+02  0.12619018608E+02  0.16456221547E+01  0.22153069405E+02  0.51100000000E-03 0.  1.
        -12    1    3    3    0    0 -0.58142689403E+01  0.10511280931E+02  0.10990353382E+02  0.16281296557E+02  0.00000000000E+00 0.  1.
</event>
<event>
 7    1  0.2682317E-010  0.4778727E+02  0.7816164E-02  0.1312668E+00
        -11   -1    0    0    0    0  0.00000000000E+00  0.00000000000E+00  0.45593999997E+02  0.45594000000E+02  0.51100000000E-03 0.  1.
         11   -1    0    0    0    0 -0.00000000000E+00 -0.00000000000E+00 -0.45593999997E+02  0.45594000000E+02  0.51100000000E-03 0. -1.
    9900012    2    1    2    0    0 -0.11868784342E+02  0.10927193413E+02  0.40290834825E+02  0.47787274562E+02  0.20000016039E+02 0.  0.
         12    1    1    2    0    0  0.11868784342E+02 -0.10927193413E+02 -0.40290834825E+02  0.43400725438E+02  0.00000000000E+00 0. -1.
         11    1    3    3    0    0  0.78431317176E+00 -0.22110657727E+00  0.93227726894E+01  0.93583185535E+01  0.51100000000E-03 0. -1.
        -11    1    3    3    0    0 -0.12529863722E+02  0.35151504189E+01  0.26651398831E+02  0.29658908059E+02  0.51100000000E-03 0.  1.
         12    1    3    3    0    0 -0.12323379156E+00  0.76331495717E+01  0.43166633046E+01  0.87700479495E+01  0.00000000000E+00 0. -1.
</event>
<event>
 7    1  0.2682317E-010  0.4778727E+02  0.7816164E-02  0.1312668E+00
        -11   -1    0    0    0    0  0.00000000000E+00  0.00000000000E+00  0.45593999997E+02  0.45594000000E+02  0.51100000000E-03 0. -1.
         11   -1    0    0    0    0 -0.00000000000E+00 -0.00000000000E+00 -0.45593999997E+02  0.45594000000E+02  0.51100000000E-03 0.  1.
    9900012    2    1    2    0    0  0.12444219220E+02 -0.13793496784E+02 -0.39223768092E+02  0.47787272715E+02  0.20000007617E+02 0.  0.
         12    1    1    2    0    0 -0.12444219220E+02  0.13793496784E+02  0.39223768092E+02  0.43400727285E+02  0.00000000000E+00 0. -1.
         11    1    3    3    0    0  0.73828262526E+01 -0.32604730213E+01 -0.22448172573E+02  0.23854921084E+02  0.51100000000E-03 0. -1.
        -11    1    3    3    0    0 -0.14132158831E+01  0.22901038691E+01 -0.29898567736E+01  0.40225612053E+01  0.51100000000E-03 0.  1.
        -12    1    3    3    0    0  0.64746088503E+01 -0.12823127632E+02 -0.13785738746E+02  0.19909790426E+02  0.00000000000E+00 0.  1.
</event>
<event>
 7    1  0.2682317E-010  0.4778726E+02  0.7816164E-02  0.1312668E+00
        -11   -1    0    0    0    0  0.00000000000E+00  0.00000000000E+00  0.45593999997E+02  0.45594000000E+02  0.51100000000E-03 0.  1.
         11   -1    0    0    0    0 -0.00000000000E+00 -0.00000000000E+00 -0.45593999997E+02  0.45594000000E+02  0.51100000000E-03 0. -1.
    9900012    2    1    2    0    0  0.30995654694E+02 -0.50577798673E+01  0.29955169476E+02  0.47787263538E+02  0.19999965776E+02 0.  0.
         12    1    1    2    0    0 -0.30995654694E+02  0.50577798673E+01 -0.29955169476E+02  0.43400736462E+02  0.00000000000E+00 0. -1.
         11    1    3    3    0    0  0.99496097439E+01 -0.38851183979E+01  0.17862762392E+02  0.20812668247E+02  0.51100000000E-03 0. -1.
        -11    1    3    3    0    0  0.49584628577E+01 -0.54320853262E+01  0.25116568543E+01  0.77718932904E+01  0.51100000000E-03 0.  1.
        -12    1    3    3    0    0  0.16087582093E+02  0.42594238569E+01  0.95807502295E+01  0.19202702001E+02  0.00000000000E+00 0.  1.
</event>
<event>
 7    1  0.2682317E-010  0.4778726E+02  0.7816164E-02  0.1312668E+00
        -11   -1    0    0    0    0  0.00000000000E+00  0.00000000000E+00  0.45593999997E+02  0.45594000000E+02  0.51100000000E-03 0.  1.
         11   -1    0    0    0    0 -0.00000000000E+00 -0.00000000000E+00 -0.45593999997E+02  0.45594000000E+02  0.51100000000E-03 0. -1.
    9900012    2    1    2    0    0 -0.18497030795E+02 -0.76958531907E+01  0.38500097763E+02  0.47787264611E+02  0.19999970669E+02 0.  0.
         12    1    1    2    0    0  0.18497030795E+02  0.76958531907E+01 -0.38500097763E+02  0.43400735389E+02  0.00000000000E+00 0. -1.
         11    1    3    3    0    0 -0.85521432794E+01 -0.10327274480E+02  0.18966725764E+02  0.23227751490E+02  0.51100000000E-03 0. -1.
        -11    1    3    3    0    0 -0.45828443392E+01 -0.36925139073E+01  0.45650346598E+01  0.74482657645E+01  0.51100000000E-03 0.  1.
        -12    1    3    3    0    0 -0.53620431761E+01  0.63239351962E+01  0.14968337339E+02  0.17111247356E+02  0.00000000000E+00 0.  1.
</event>
<event>
 7    1  0.2682317E-010  0.4778727E+02  0.7816164E-02  0.1312668E+00
        -11   -1    0    0    0    0  0.00000000000E+00  0.00000000000E+00  0.45593999997E+02  0.45594000000E+02  0.51100000000E-03 0.  1.
         11   -1    0    0    0    0 -0.00000000000E+00 -0.00000000000E+00 -0.45593999997E+02  0.45594000000E+02  0.51100000000E-03 0. -1.
    9900012    2    1    2    0    0 -0.43239253656E+02  0.27233671459E+00  0.37304246702E+01  0.47787270833E+02  0.19999999035E+02 0.  0.
         12    1    1    2    0    0  0.43239253656E+02 -0.27233671459E+00 -0.37304246702E+01  0.43400729167E+02  0.00000000000E+00 0. -1.
         11    1    3    3    0    0 -0.61688467657E+01 -0.23539546010E+01 -0.46244013720E+00  0.66188838805E+01  0.51100000000E-03 0. -1.
        -11    1    3    3    0    0 -0.15805321047E+02 -0.21271686043E+01 -0.60938276208E+01  0.17072426746E+02  0.51100000000E-03 0.  1.
         12    1    3    3    0    0 -0.21265085844E+02  0.47534599199E+01  0.10286692428E+02  0.24095960206E+02  0.00000000000E+00 0. -1.
</event>
<event>
 7    1  0.2682317E-010  0.4778728E+02  0.7816164E-02  0.1312668E+00
        -11   -1    0    0    0    0  0.00000000000E+00  0.00000000000E+00  0.45593999997E+02  0.45594000000E+02  0.51100000000E-03 0. -1.
         11   -1    0    0    0    0 -0.00000000000E+00 -0.00000000000E+00 -0.45593999997E+02  0.45594000000E+02  0.51100000000E-03 0.  1.
    9900012    2    1    2    0    0  0.35321335491E+02  0.25099592531E+02 -0.24569545281E+01  0.47787275218E+02  0.20000019028E+02 0.  0.
         12    1    1    2    0    0 -0.35321335491E+02 -0.25099592531E+02  0.24569545281E+01  0.43400724782E+02  0.00000000000E+00 0. -1.
         11    1    3    3    0    0  0.22423247088E+01  0.10019854107E+01  0.36089465444E+01  0.43653740143E+01  0.51100000000E-03 0. -1.
        -11    1    3    3    0    0  0.86315626071E+01  0.12744732922E+02  0.13889297957E+01  0.15455135604E+02  0.51100000000E-03 0.  1.
        -12    1    3    3    0    0  0.24447448175E+02  0.11352874198E+02 -0.74548308682E+01  0.27966765599E+02  0.00000000000E+00 0.  1.
</event>
<event>
 7    1  0.2682317E-010  0.4778726E+02  0.7816164E-02  0.1312668E+00
        -11   -1    0    0    0    0  0.00000000000E+00  0.00000000000E+00  0.45593999997E+02  0.45594000000E+02  0.51100000000E-03 0. -1.
         11   -1    0    0    0    0 -0.00000000000E+00 -0.00000000000E+00 -0.45593999997E+02  0.45594000000E+02  0.51100000000E-03 0.  1.
    9900012    2    1    2    0    0  0.14232133066E+02 -0.61285729761E+00 -0.40996275640E+02  0.47787264729E+02  0.19999971206E+02 0.  0.
         12    1    1    2    0    0 -0.14232133066E+02  0.61285729761E+00  0.40996275640E+02  0.43400735271E+02  0.00000000000E+00 0. -1.
         11    1    3    3    0    0  0.29204908723E+01 -0.68459048498E+01 -0.27200296720E+02  0.28200209610E+02  0.51100000000E-03 0. -1.
        -11    1    3    3    0    0  0.64551191981E-01  0.17003573603E+01 -0.10762138454E+01  0.20133600054E+01  0.51100000000E-03 0.  1.
         12    1    3    3    0    0  0.11247091002E+02  0.45326901918E+01 -0.12719765075E+02  0.17573695114E+02  0.00000000000E+00 0. -1.
</event>
<event>
 7    1  0.2682317E-010  0.4778728E+02  0.7816164E-02  0.1312668E+00
        -11   -1    0    0    0    0  0.00000000000E+00  0.00000000000E+00  0.45593999997E+02  0.45594000000E+02  0.51100000000E-03 0.  1.
         11   -1    0    0    0    0 -0.00000000000E+00 -0.00000000000E+00 -0.45593999997E+02  0.45594000000E+02  0.51100000000E-03 0. -1.
    9900012    2    1    2    0    0 -0.32579924487E+02 -0.26399756939E+02 -0.11190354007E+02  0.47787278015E+02  0.20000031783E+02 0.  0.
         12    1    1    2    0    0  0.32579924487E+02  0.26399756939E+02  0.11190354007E+02  0.43400721985E+02  0.00000000000E+00 0. -1.
         11    1    3    3    0    0 -0.25766085948E+02 -0.17783430590E+02 -0.16271716375E+02  0.35283287016E+02  0.51100000000E-03 0. -1.
        -11    1    3    3    0    0 -0.59279321764E+01 -0.65008734472E+01  0.27117643507E+01  0.92062696908E+01  0.51100000000E-03 0.  1.
         12    1    3    3    0    0 -0.88590636266E+00 -0.21154529017E+01  0.23695980175E+01  0.32977213083E+01  0.00000000000E+00 0. -1.
</event>
<event>
 7    1  0.2682317E-010  0.4778730E+02  0.7816164E-02  0.1312668E+00
        -11   -1    0    0    0    0  0.00000000000E+00  0.00000000000E+00  0.45593999997E+02  0.45594000000E+02  0.51100000000E-03 0. -1.
         11   -1    0    0    0    0 -0.00000000000E+00 -0.00000000000E+00 -0.45593999997E+02  0.45594000000E+02  0.51100000000E-03 0.  1.
    9900012    2    1    2    0    0 -0.37690732070E+02  0.13922233161E+01 -0.21473027520E+02  0.47787303224E+02  0.20000146719E+02 0.  0.
         12    1    1    2    0    0  0.37690732070E+02 -0.13922233161E+01  0.21473027520E+02  0.43400696776E+02  0.00000000000E+00 0. -1.
         11    1    3    3    0    0 -0.61252662024E+01 -0.18255450196E+01  0.98977844326E+00  0.64677014694E+01  0.51100000000E-03 0. -1.
        -11    1    3    3    0    0 -0.11390430582E+02  0.63616581417E+01 -0.36301397853E+01  0.13542175537E+02  0.51100000000E-03 0.  1.
        -12    1    3    3    0    0 -0.20175035286E+02 -0.31438898059E+01 -0.18832666178E+02  0.27777426218E+02  0.00000000000E+00 0.  1.
</event>
<event>
 7    1  0.2682317E-010  0.4778727E+02  0.7816164E-02  0.1312668E+00
        -11   -1    0    0    0    0  0.00000000000E+00  0.00000000000E+00  0.45593999997E+02  0.45594000000E+02  0.51100000000E-03 0.  1.
         11   -1    0    0    0    0 -0.00000000000E+00 -0.00000000000E+00 -0.45593999997E+02  0.45594000000E+02  0.51100000000E-03 0. -1.
    9900012    2    1    2    0    0  0.71259536881E+01 -0.20380976372E+02  0.37649167937E+02  0.47787271202E+02  0.20000000718E+02 0.  0.
         12    1    1    2    0    0 -0.71259536881E+01  0.20380976372E+02 -0.37649167937E+02  0.43400728798E+02  0.00000000000E+00 0. -1.
         11    1    3    3    0    0 -0.38247069513E+00  0.13665044117E+01 -0.85106665285E+00  0.16546700120E+01  0.51100000000E-03 0. -1.
        -11    1    3    3    0    0 -0.68351750550E+00 -0.73358123821E+00  0.87099452627E+01  0.87674673854E+01  0.51100000000E-03 0.  1.
        -12    1    3    3    0    0  0.81919418887E+01 -0.21013899546E+02  0.29790289327E+02  0.37365133805E+02  0.00000000000E+00 0.  1.
</event>
<event>
 7    1  0.2682317E-010  0.4778727E+02  0.7816164E-02  0.1312668E+00
        -11   -1    0    0    0    0  0.00000000000E+00  0.00000000000E+00  0.45593999997E+02  0.45594000000E+02  0.51100000000E-03 0.  1.
         11   -1    0    0    0    0 -0.00000000000E+00 -0.00000000000E+00 -0.45593999997E+02  0.45594000000E+02  0.51100000000E-03 0. -1.
    9900012    2    1    2    0    0  0.12127114569E+02  0.36748080504E+02  0.19650317670E+02  0.47787270593E+02  0.19999997941E+02 0.  0.
         12    1    1    2    0    0 -0.12127114569E+02 -0.36748080504E+02 -0.19650317670E+02  0.43400729407E+02  0.00000000000E+00 0. -1.
         11    1    3    3    0    0  0.12720626538E+02  0.28526748427E+02  0.96696128149E+01  0.32696958996E+02  0.51100000000E-03 0. -1.
        -11    1    3    3    0    0 -0.15484676222E+01  0.80708210203E+01  0.41995340086E+01  0.92288672148E+01  0.51100000000E-03 0.  1.
        -12    1    3    3    0    0  0.95495565326E+00  0.15051105685E+00  0.57811708470E+01  0.58614443817E+01  0.00000000000E+00 0.  1.
</event>
<event>
 7    1  0.2682317E-010  0.4778727E+02  0.7816164E-02  0.1312668E+00
        -11   -1    0    0    0    0  0.00000000000E+00  0.00000000000E+00  0.45593999997E+02  0.45594000000E+02  0.51100000000E-03 0. -1.
         11   -1    0    0    0    0 -0.00000000000E+00 -0.00000000000E+00 -0.45593999997E+02  0.45594000000E+02  0.51100000000E-03 0.  1.
    9900012    2    1    2    0    0  0.22253937195E+02  0.70861446525E+01 -0.36581032943E+02  0.47787272611E+02  0.20000007144E+02 0.  0.
         12    1    1    2    0    0 -0.22253937195E+02 -0.70861446525E+01  0.36581032943E+02  0.43400727389E+02  0.00000000000E+00 0. -1.
         11    1    3    3    0    0 -0.25549736941E-01  0.10334999267E+01 -0.73847761688E+01  0.74567884650E+01  0.51100000000E-03 0. -1.
        -11    1    3    3    0    0  0.14750685546E+02  0.10517187600E+02 -0.24272179487E+02  0.30287500002E+02  0.51100000000E-03 0.  1.
         12    1    3    3    0    0  0.75288013857E+01 -0.44645428746E+01 -0.49240772873E+01  0.10042984144E+02  0.00000000000E+00 0. -1.
</event>
<event>
 7    1  0.2682317E-010  0.4778727E+02  0.7816164E-02  0.1312668E+00
        -11   -1    0    0    0    0  0.00000000000E+00  0.00000000000E+00  0.45593999997E+02  0.45594000000E+02  0.51100000000E-03 0.  1.
         11   -1    0    0    0    0 -0.00000000000E+00 -0.00000000000E+00 -0.45593999997E+02  0.45594000000E+02  0.51100000000E-03 0. -1.
    9900012    2    1    2    0    0  0.76746747044E+01 -0.34206870920E+02  0.25585394111E+02  0.47787273718E+02  0.20000012192E+02 0.  0.
         12    1    1    2    0    0 -0.76746747044E+01  0.34206870920E+02 -0.25585394111E+02  0.43400726282E+02  0.00000000000E+00 0. -1.
         11    1    3    3    0    0 -0.72742926165E+00 -0.16762382234E+02  0.81522104347E+01  0.18653823917E+02  0.51100000000E-03 0. -1.
        -11    1    3    3    0    0 -0.24545112629E+01 -0.87380394088E+01  0.44806435572E+01  0.10121962517E+02  0.51100000000E-03 0.  1.
         12    1    3    3    0    0  0.10856615229E+02 -0.87064492777E+01  0.12952540119E+02  0.19011487285E+02  0.00000000000E+00 0. -1.
</event>
<event>
 7    1  0.2682317E-010  0.4778727E+02  0.7816164E-02  0.1312668E+00
        -11   -1    0    0    0    0  0.00000000000E+00  0.00000000000E+00  0.45593999997E+02  0.45594000000E+02  0.51100000000E-03 0.  1.
         11   -1    0    0    0    0 -0.00000000000E+00 -0.00000000000E+00 -0.45593999997E+02  0.45594000000E+02  0.51100000000E-03 0. -1.
    9900012    2    1    2    0    0 -0.13591597474E+02  0.27555589073E+02  0.30652587748E+02  0.47787272510E+02  0.20000006682E+02 0.  0.
         12    1    1    2    0    0  0.13591597474E+02 -0.27555589073E+02 -0.30652587748E+02  0.43400727490E+02  0.00000000000E+00 0. -1.
         11    1    3    3    0    0 -0.56366334551E+01  0.96177202626E+00  0.10174227591E+01  0.58079076671E+01  0.51100000000E-03 0. -1.
        -11    1    3    3    0    0 -0.26830853916E+01  0.92846653914E+01  0.36839049593E+01  0.10342877484E+02  0.51100000000E-03 0.  1.
        -12    1    3    3    0    0 -0.52718786272E+01  0.17309151655E+02  0.25951260029E+02  0.31636487358E+02  0.00000000000E+00 0.  1.
</event>
<event>
 7    1  0.2682317E-010  0.4778727E+02  0.7816164E-02  0.1312668E+00
        -11   -1    0    0    0    0  0.00000000000E+00  0.00000000000E+00  0.45593999997E+02  0.45594000000E+02  0.51100000000E-03 0.  1.
         11   -1    0    0    0    0 -0.00000000000E+00 -0.00000000000E+00 -0.45593999997E+02  0.45594000000E+02  0.51100000000E-03 0. -1.
    9900012    2    1    2    0    0 -0.30015997458E+02 -0.28087630864E+02  0.13919346927E+02  0.47787270400E+02  0.19999997061E+02 0.  0.
         12    1    1    2    0    0  0.30015997458E+02  0.28087630864E+02 -0.13919346927E+02  0.43400729600E+02  0.00000000000E+00 0. -1.
         11    1    3    3    0    0 -0.99268369845E+01 -0.15767256570E+01 -0.26803013768E+01  0.10402507969E+02  0.51100000000E-03 0. -1.
        -11    1    3    3    0    0 -0.88812221469E+00 -0.13599353698E+01  0.18847541088E+01  0.24880682446E+01  0.51100000000E-03 0.  1.
        -12    1    3    3    0    0 -0.19201038259E+02 -0.25150969837E+02  0.14714894195E+02  0.34896694186E+02  0.00000000000E+00 0.  1.
</event>
<event>
 7    1  0.2682317E-010  0.4778727E+02  0.7816164E-02  0.1312668E+00
        -11   -1    0    0    0    0  0.00000000000E+00  0.00000000000E+00  0.45593999997E+02  0.45594000000E+02  0.51100000000E-03 0. -1.
         11   -1    0    0    0    0 -0.00000000000E+00 -0.00000000000E+00 -0.45593999997E+02  0.45594000000E+02  0.51100000000E-03 0.  1.
    9900012    2    1    2    0    0  0.59006717852E+01  0.30031157644E+02 -0.30772310834E+02  0.47787268773E+02  0.19999989643E+02 0.  0.
         12    1    1    2    0    0 -0.59006717852E+01 -0.30031157644E+02  0.30772310834E+02  0.43400731227E+02  0.00000000000E+00 0. -1.
         11    1    3    3    0    0  0.84887142529E+01  0.18293142863E+02 -0.22229694006E+02  0.30014273959E+02  0.51100000000E-03 0. -1.
        -11    1    3    3    0    0 -0.60859431240E+00  0.12795215711E+02 -0.87597842408E+01  0.15518432663E+02  0.51100000000E-03 0.  1.
         12    1    3    3    0    0 -0.19794481552E+01 -0.10572009294E+01  0.21716741217E+00  0.22545621502E+01  0.00000000000E+00 0. -1.
</event>
<event>
 7    1  0.2682317E-010  0.4778728E+02  0.7816164E-02  0.1312668E+00
        -11   -1    0    0    0    0  0.00000000000E+00  0.00000000000E+00  0.45593999997E+02  0.45594000000E+02  0.51100000000E-03 0. -1.
         11   -1    0    0    0    0 -0.00000000000E+00 -0.00000000000E+00 -0.45593999997E+02  0.45594000000E+02  0.51100000000E-03 0.  1.
    9900012    2    1    2    0    0 -0.32783207137E+02 -0.25018288921E+02 -0.13526620864E+02  0.47787275090E+02  0.20000018443E+02 0.  0.
         12    1    1    2    0    0  0.32783207137E+02  0.25018288921E+02  0.13526620864E+02  0.43400724910E+02  0.00000000000E+00 0. -1.
         11    1    3    3    0    0 -0.22280976637E+02 -0.18730002330E+02 -0.10172889368E+02  0.30834113990E+02  0.51100000000E-03 0.  1.
        -11    1    3    3    0    0 -0.76163941415E+01 -0.82870291614E+01  0.10696186395E+01  0.11306122073E+02  0.51100000000E-03 0. -1.
        -12    1    3    3    0    0 -0.28858363583E+01  0.19987425697E+01 -0.44233501351E+01  0.56470390264E+01  0.00000000000E+00 0.  1.
</event>
<event>
 7    1  0.2682317E-010  0.4778727E+02  0.7816164E-02  0.1312668E+00
        -11   -1    0    0    0    0  0.00000000000E+00  0.00000000000E+00  0.45593999997E+02  0.45594000000E+02  0.51100000000E-03 0.  1.
         11   -1    0    0    0    0 -0.00000000000E+00 -0.00000000000E+00 -0.45593999997E+02  0.45594000000E+02  0.51100000000E-03 0. -1.
    9900012    2    1    2    0    0 -0.17369906003E+02 -0.16668709926E+02  0.36111821809E+02  0.47787271901E+02  0.20000003907E+02 0.  0.
         12    1    1    2    0    0  0.17369906003E+02  0.16668709926E+02 -0.36111821809E+02  0.43400728099E+02  0.00000000000E+00 0. -1.
         11    1    3    3    0    0  0.25050554139E+01 -0.13764119258E+01  0.72813468211E+01  0.78222646469E+01  0.51100000000E-03 0. -1.
        -11    1    3    3    0    0 -0.49571978446E+01 -0.22212246046E+01  0.60226808338E+00  0.54653797964E+01  0.51100000000E-03 0.  1.
        -12    1    3    3    0    0 -0.14917763572E+02 -0.13071073396E+02  0.28228206904E+02  0.34499627458E+02  0.00000000000E+00 0.  1.
</event>
<event>
 7    1  0.2682317E-010  0.4778727E+02  0.7816164E-02  0.1312668E+00
        -11   -1    0    0    0    0  0.00000000000E+00  0.00000000000E+00  0.45593999997E+02  0.45594000000E+02  0.51100000000E-03 0.  1.
         11   -1    0    0    0    0 -0.00000000000E+00 -0.00000000000E+00 -0.45593999997E+02  0.45594000000E+02  0.51100000000E-03 0. -1.
    9900012    2    1    2    0    0 -0.19540767057E+02  0.25283217273E+02  0.29369049233E+02  0.47787266069E+02  0.19999977317E+02 0.  0.
         12    1    1    2    0    0  0.19540767057E+02 -0.25283217273E+02 -0.29369049233E+02  0.43400733931E+02  0.00000000000E+00 0. -1.
         11    1    3    3    0    0 -0.48531718877E+01  0.97305987173E+01  0.14205032726E+02  0.17889124735E+02  0.51100000000E-03 0. -1.
        -11    1    3    3    0    0 -0.13577723588E+02  0.54548803932E+01  0.12862472370E+02  0.19482132677E+02  0.51100000000E-03 0.  1.
         12    1    3    3    0    0 -0.11098715813E+01  0.10097738163E+02  0.23015441374E+01  0.10416008657E+02  0.00000000000E+00 0. -1.
</event>
<event>
 7    1  0.2682317E-010  0.4778727E+02  0.7816164E-02  0.1312668E+00
        -11   -1    0    0    0    0  0.00000000000E+00  0.00000000000E+00  0.45593999997E+02  0.45594000000E+02  0.51100000000E-03 0.  1.
         11   -1    0    0    0    0 -0.00000000000E+00 -0.00000000000E+00 -0.45593999997E+02  0.45594000000E+02  0.51100000000E-03 0. -1.
    9900012    2    1    2    0    0  0.24716532230E+02  0.32617535974E+02  0.14450354273E+02  0.47787270086E+02  0.19999995629E+02 0.  0.
         12    1    1    2    0    0 -0.24716532230E+02 -0.32617535974E+02 -0.14450354273E+02  0.43400729914E+02  0.00000000000E+00 0. -1.
         11    1    3    3    0    0 -0.69877271517E+00  0.13185668809E+01 -0.19060881896E+01  0.24207590492E+01  0.51100000000E-03 0. -1.
        -11    1    3    3    0    0  0.15369578925E+02  0.19239105914E+02  0.16550382509E+02  0.29669551971E+02  0.51100000000E-03 0.  1.
         12    1    3    3    0    0  0.10045726020E+02  0.12059863179E+02 -0.19394004609E+00  0.15696959066E+02  0.00000000000E+00 0. -1.
</event>
<event>
 7    1  0.2682317E-010  0.4778727E+02  0.7816164E-02  0.1312668E+00
        -11   -1    0    0    0    0  0.00000000000E+00  0.00000000000E+00  0.45593999997E+02  0.45594000000E+02  0.51100000000E-03 0. -1.
         11   -1    0    0    0    0 -0.00000000000E+00 -0.00000000000E+00 -0.45593999997E+02  0.45594000000E+02  0.51100000000E-03 0.  1.
    9900012    2    1    2    0    0  0.11116735556E+02  0.32401740006E+02 -0.26648994014E+02  0.47787269052E+02  0.19999990915E+02 0.  0.
         12    1    1    2    0    0 -0.11116735556E+02 -0.32401740006E+02  0.26648994014E+02  0.43400730948E+02  0.00000000000E+00 0. -1.
         11    1    3    3    0    0  0.77862273785E+00 -0.40293561339E+00 -0.27342756425E+00  0.91835361950E+00  0.51100000000E-03 0. -1.
        -11    1    3    3    0    0 -0.17632782145E+01  0.78331781690E+01  0.74991872008E+00  0.80641309908E+01  0.51100000000E-03 0.  1.
         12    1    3    3    0    0  0.12101391033E+02  0.24971497451E+02 -0.27125485170E+02  0.38804784442E+02  0.00000000000E+00 0. -1.
</event>
<event>
 7    1  0.2682317E-010  0.4778726E+02  0.7816164E-02  0.1312668E+00
        -11   -1    0    0    0    0  0.00000000000E+00  0.00000000000E+00  0.45593999997E+02  0.45594000000E+02  0.51100000000E-03 0.  1.
         11   -1    0    0    0    0 -0.00000000000E+00 -0.00000000000E+00 -0.45593999997E+02  0.45594000000E+02  0.51100000000E-03 0. -1.
    9900012    2    1    2    0    0  0.21923447801E+01 -0.19019677457E+02  0.38949579595E+02  0.47787259721E+02  0.19999948371E+02 0.  0.
         12    1    1    2    0    0 -0.21923447801E+01  0.19019677457E+02 -0.38949579595E+02  0.43400740279E+02  0.00000000000E+00 0. -1.
         11    1    3    3    0    0 -0.39985542678E+01 -0.21429724516E+01  0.14991658861E+02  0.15663033002E+02  0.51100000000E-03 0.  1.
        -11    1    3    3    0    0  0.25161356712E+01 -0.12730011258E+01  0.11447735350E+02  0.11789915839E+02  0.51100000000E-03 0. -1.
        -12    1    3    3    0    0  0.36747633767E+01 -0.15603703879E+02  0.12510185384E+02  0.20334310880E+02  0.00000000000E+00 0.  1.
</event>
<event>
 7    1  0.2682317E-010  0.4778727E+02  0.7816164E-02  0.1312668E+00
        -11   -1    0    0    0    0  0.00000000000E+00  0.00000000000E+00  0.45593999997E+02  0.45594000000E+02  0.51100000000E-03 0.  1.
         11   -1    0    0    0    0 -0.00000000000E+00 -0.00000000000E+00 -0.45593999997E+02  0.45594000000E+02  0.51100000000E-03 0. -1.
    9900012    2    1    2    0    0 -0.13227209394E+02 -0.10508162626E+02  0.39978033191E+02  0.47787266274E+02  0.19999978251E+02 0.  0.
         12    1    1    2    0    0  0.13227209394E+02  0.10508162626E+02 -0.39978033191E+02  0.43400733726E+02  0.00000000000E+00 0. -1.
         11    1    3    3    0    0 -0.99589972939E+01 -0.12849687236E+01  0.20251957913E+02  0.22604746654E+02  0.51100000000E-03 0.  1.
        -11    1    3    3    0    0  0.46290235676E+00 -0.15248758071E+01  0.15606155395E+02  0.15687307331E+02  0.51100000000E-03 0. -1.
         12    1    3    3    0    0 -0.37311144569E+01 -0.76983180951E+01  0.41199198834E+01  0.94952122898E+01  0.00000000000E+00 0. -1.
</event>
<event>
 7    1  0.2682317E-010  0.4778727E+02  0.7816164E-02  0.1312668E+00
        -11   -1    0    0    0    0  0.00000000000E+00  0.00000000000E+00  0.45593999997E+02  0.45594000000E+02  0.51100000000E-03 0.  1.
         11   -1    0    0    0    0 -0.00000000000E+00 -0.00000000000E+00 -0.45593999997E+02  0.45594000000E+02  0.51100000000E-03 0. -1.
    9900012    2    1    2    0    0 -0.40701172095E+02  0.14812792664E+02  0.27603417358E+01  0.47787265871E+02  0.19999976414E+02 0.  0.
         12    1    1    2    0    0  0.40701172095E+02 -0.14812792664E+02 -0.27603417358E+01  0.43400734129E+02  0.00000000000E+00 0. -1.
         11    1    3    3    0    0 -0.10171426852E+01 -0.11773599087E+01  0.72500384687E+00  0.17165041322E+01  0.51100000000E-03 0. -1.
        -11    1    3    3    0    0 -0.20523219207E+02  0.80126194116E+01  0.95288788312E+01  0.24004252300E+02  0.51100000000E-03 0.  1.
         12    1    3    3    0    0 -0.19160810203E+02  0.79775331607E+01 -0.74935409423E+01  0.22066509439E+02  0.00000000000E+00 0. -1.
</event>
<event>
 7    1  0.2682317E-010  0.4778727E+02  0.7816164E-02  0.1312668E+00
        -11   -1    0    0    0    0  0.00000000000E+00  0.00000000000E+00  0.45593999997E+02  0.45594000000E+02  0.51100000000E-03 0. -1.
         11   -1    0    0    0    0 -0.00000000000E+00 -0.00000000000E+00 -0.45593999997E+02  0.45594000000E+02  0.51100000000E-03 0.  1.
    9900012    2    1    2    0    0 -0.17100545095E+02 -0.74125390253E+01 -0.39195007983E+02  0.47787273875E+02  0.20000012907E+02 0.  0.
         12    1    1    2    0    0  0.17100545095E+02  0.74125390253E+01  0.39195007983E+02  0.43400726125E+02  0.00000000000E+00 0. -1.
         11    1    3    3    0    0 -0.25461768527E+01  0.19866308940E+01 -0.12182528688E+02  0.12603321958E+02  0.51100000000E-03 0. -1.
        -11    1    3    3    0    0 -0.48601483518E+01 -0.89278042367E+01 -0.22056580035E+02  0.24286198829E+02  0.51100000000E-03 0.  1.
        -12    1    3    3    0    0 -0.96942198906E+01 -0.47136568259E+00 -0.49558992606E+01  0.10897753088E+02  0.00000000000E+00 0.  1.
</event>
<event>
 7    1  0.2682317E-010  0.4778727E+02  0.7816164E-02  0.1312668E+00
        -11   -1    0    0    0    0  0.00000000000E+00  0.00000000000E+00  0.45593999997E+02  0.45594000000E+02  0.51100000000E-03 0. -1.
         11   -1    0    0    0    0 -0.00000000000E+00 -0.00000000000E+00 -0.45593999997E+02  0.45594000000E+02  0.51100000000E-03 0.  1.
    9900012    2    1    2    0    0  0.38343241636E+02 -0.12535983610E+02 -0.16008381856E+02  0.47787270122E+02  0.19999995796E+02 0.  0.
         12    1    1    2    0    0 -0.38343241636E+02  0.12535983610E+02  0.16008381856E+02  0.43400729878E+02  0.00000000000E+00 0. -1.
         11    1    3    3    0    0  0.44113758743E+01 -0.37283352390E+01 -0.81882421990E+00  0.58336261556E+01  0.51100000000E-03 0. -1.
        -11    1    3    3    0    0  0.25441912701E+01 -0.29939165711E+01 -0.84637722518E+01  0.93312317860E+01  0.51100000000E-03 0.  1.
         12    1    3    3    0    0  0.31387674492E+02 -0.58137318003E+01 -0.67257853846E+01  0.32622412181E+02  0.00000000000E+00 0. -1.
</event>
<event>
 7    1  0.2682317E-010  0.4778727E+02  0.7816164E-02  0.1312668E+00
        -11   -1    0    0    0    0  0.00000000000E+00  0.00000000000E+00  0.45593999997E+02  0.45594000000E+02  0.51100000000E-03 0.  1.
         11   -1    0    0    0    0 -0.00000000000E+00 -0.00000000000E+00 -0.45593999997E+02  0.45594000000E+02  0.51100000000E-03 0. -1.
    9900012    2    1    2    0    0  0.11784745653E+02  0.37507687065E+02 -0.18382497776E+02  0.47787273698E+02  0.20000012098E+02 0.  0.
         12    1    1    2    0    0 -0.11784745653E+02 -0.37507687065E+02  0.18382497776E+02  0.43400726302E+02  0.00000000000E+00 0. -1.
         11    1    3    3    0    0  0.76666105313E+01  0.17859719446E+02 -0.13726990350E+02  0.23794469106E+02  0.51100000000E-03 0. -1.
        -11    1    3    3    0    0 -0.26896924109E+01  0.84804901326E+01 -0.61693306101E+01  0.10826532159E+02  0.51100000000E-03 0.  1.
        -12    1    3    3    0    0  0.68078275327E+01  0.11167477486E+02  0.15138231842E+01  0.13166272432E+02  0.00000000000E+00 0.  1.
</event>
<event>
 7    1  0.2682317E-010  0.4778729E+02  0.7816164E-02  0.1312668E+00
        -11   -1    0    0    0    0  0.00000000000E+00  0.00000000000E+00  0.45593999997E+02  0.45594000000E+02  0.51100000000E-03 0. -1.
         11   -1    0    0    0    0 -0.00000000000E+00 -0.00000000000E+00 -0.45593999997E+02  0.45594000000E+02  0.51100000000E-03 0.  1.
    9900012    2    1    2    0    0 -0.27967642902E+01 -0.47979499299E+01 -0.43043919240E+02  0.47787294965E+02  0.20000109062E+02 0.  0.
         12    1    1    2    0    0  0.27967642902E+01  0.47979499299E+01  0.43043919240E+02  0.43400705035E+02  0.00000000000E+00 0. -1.
         11    1    3    3    0    0  0.16483375744E+01 -0.13139130421E+01 -0.27726672663E+01  0.34829683134E+01  0.51100000000E-03 0. -1.
        -11    1    3    3    0    0 -0.53926738426E+01  0.62436838866E+01 -0.13697529754E+02  0.15990210795E+02  0.51100000000E-03 0.  1.
         12    1    3    3    0    0  0.94757197803E+00 -0.97277207744E+01 -0.26573722220E+02  0.28314115856E+02  0.00000000000E+00 0. -1.
</event>
<event>
 7    1  0.2682317E-010  0.4778727E+02  0.7816164E-02  0.1312668E+00
        -11   -1    0    0    0    0  0.00000000000E+00  0.00000000000E+00  0.45593999997E+02  0.45594000000E+02  0.51100000000E-03 0.  1.
         11   -1    0    0    0    0 -0.00000000000E+00 -0.00000000000E+00 -0.45593999997E+02  0.45594000000E+02  0.51100000000E-03 0. -1.
    9900012    2    1    2    0    0  0.68577030803E+01 -0.23070230833E+02  0.36115921276E+02  0.47787269455E+02  0.19999992755E+02 0.  0.
         12    1    1    2    0    0 -0.68577030803E+01  0.23070230833E+02 -0.36115921276E+02  0.43400730545E+02  0.00000000000E+00 0. -1.
         11    1    3    3    0    0  0.16970290511E+01 -0.10884386960E+02  0.83362894679E+01  0.13814612172E+02  0.51100000000E-03 0. -1.
        -11    1    3    3    0    0  0.22768986941E+01 -0.15158561780E+02  0.20498113852E+02  0.25595681953E+02  0.51100000000E-03 0.  1.
         12    1    3    3    0    0  0.28837753351E+01  0.29727179077E+01  0.72815179558E+01  0.83769753301E+01  0.00000000000E+00 0. -1.
</event>
<event>
 7    1  0.2682317E-010  0.4778727E+02  0.7816164E-02  0.1312668E+00
        -11   -1    0    0    0    0  0.00000000000E+00  0.00000000000E+00  0.45593999997E+02  0.45594000000E+02  0.51100000000E-03 0.  1.
         11   -1    0    0    0    0 -0.00000000000E+00 -0.00000000000E+00 -0.45593999997E+02  0.45594000000E+02  0.51100000000E-03 0. -1.
    9900012    2    1    2    0    0 -0.87955825913E+01  0.41510686044E+02 -0.91172415290E+01  0.47787269337E+02  0.19999992217E+02 0.  0.
         12    1    1    2    0    0  0.87955825913E+01 -0.41510686044E+02  0.91172415290E+01  0.43400730663E+02  0.00000000000E+00 0. -1.
         11    1    3    3    0    0 -0.42709081590E+01  0.27264856438E+02 -0.13437389423E+01  0.27630032350E+02  0.51100000000E-03 0. -1.
        -11    1    3    3    0    0  0.71807586746E-01  0.13931664798E+02 -0.51353760975E+01  0.14848182660E+02  0.51100000000E-03 0.  1.
         12    1    3    3    0    0 -0.45964820191E+01  0.31416480835E+00 -0.26381264892E+01  0.53090543275E+01  0.00000000000E+00 0. -1.
</event>
<event>
 7    1  0.2682317E-010  0.4778728E+02  0.7816164E-02  0.1312668E+00
        -11   -1    0    0    0    0  0.00000000000E+00  0.00000000000E+00  0.45593999997E+02  0.45594000000E+02  0.51100000000E-03 0.  1.
         11   -1    0    0    0    0 -0.00000000000E+00 -0.00000000000E+00 -0.45593999997E+02  0.45594000000E+02  0.51100000000E-03 0. -1.
    9900012    2    1    2    0    0 -0.40600925924E+02  0.88158200321E+01  0.12548659833E+02  0.47787277283E+02  0.20000028445E+02 0.  0.
         12    1    1    2    0    0  0.40600925924E+02 -0.88158200321E+01 -0.12548659833E+02  0.43400722717E+02  0.00000000000E+00 0. -1.
         11    1    3    3    0    0 -0.72435017912E+01 -0.30484472010E+01 -0.18520314939E+01  0.80741172553E+01  0.51100000000E-03 0. -1.
        -11    1    3    3    0    0 -0.21409143325E+02  0.27857008902E+01  0.11383147122E+02  0.24406711905E+02  0.51100000000E-03 0.  1.
         12    1    3    3    0    0 -0.11948280808E+02  0.90785663429E+01  0.30175442055E+01  0.15306448123E+02  0.00000000000E+00 0. -1.
</event>
<event>
 7    1  0.2682317E-010  0.4778727E+02  0.7816164E-02  0.1312668E+00
        -11   -1    0    0    0    0  0.00000000000E+00  0.00000000000E+00  0.45593999997E+02  0.45594000000E+02  0.51100000000E-03 0. -1.
         11   -1    0    0    0    0 -0.00000000000E+00 -0.00000000000E+00 -0.45593999997E+02  0.45594000000E+02  0.51100000000E-03 0.  1.
    9900012    2    1    2    0    0  0.94900169585E+01 -0.23965782635E+02 -0.34917106462E+02  0.47787268637E+02  0.19999989023E+02 0.  0.
         12    1    1    2    0    0 -0.94900169585E+01  0.23965782635E+02  0.34917106462E+02  0.43400731363E+02  0.00000000000E+00 0. -1.
         11    1    3    3    0    0  0.57928643392E+01 -0.29372424535E+01 -0.23708469954E+01  0.69141583884E+01  0.51100000000E-03 0. -1.
        -11    1    3    3    0    0  0.73456168994E+01 -0.72492349980E+01 -0.15926709319E+02  0.18978133883E+02  0.51100000000E-03 0.  1.
         12    1    3    3    0    0 -0.36484642802E+01 -0.13779305183E+02 -0.16619550148E+02  0.21894976366E+02  0.00000000000E+00 0. -1.
</event>
<event>
 7    1  0.2682317E-010  0.4778727E+02  0.7816164E-02  0.1312668E+00
        -11   -1    0    0    0    0  0.00000000000E+00  0.00000000000E+00  0.45593999997E+02  0.45594000000E+02  0.51100000000E-03 0.  1.
         11   -1    0    0    0    0 -0.00000000000E+00 -0.00000000000E+00 -0.45593999997E+02  0.45594000000E+02  0.51100000000E-03 0. -1.
    9900012    2    1    2    0    0 -0.18355162401E+02 -0.12286000503E+02  0.37359947223E+02  0.47787268997E+02  0.19999990663E+02 0.  0.
         12    1    1    2    0    0  0.18355162401E+02  0.12286000503E+02 -0.37359947223E+02  0.43400731003E+02  0.00000000000E+00 0. -1.
         11    1    3    3    0    0 -0.38417509262E+01 -0.11226660282E+02  0.92259587182E+01  0.15030477897E+02  0.51100000000E-03 0. -1.
        -11    1    3    3    0    0 -0.66324420755E+00 -0.26940146337E+01  0.37272349808E+01  0.46464920734E+01  0.51100000000E-03 0.  1.
        -12    1    3    3    0    0 -0.13850167267E+02  0.16346744132E+01  0.24406753524E+02  0.28110299026E+02  0.00000000000E+00 0.  1.
</event>
<event>
 7    1  0.2682317E-010  0.4778728E+02  0.7816164E-02  0.1312668E+00
        -11   -1    0    0    0    0  0.00000000000E+00  0.00000000000E+00  0.45593999997E+02  0.45594000000E+02  0.51100000000E-03 0.  1.
         11   -1    0    0    0    0 -0.00000000000E+00 -0.00000000000E+00 -0.45593999997E+02  0.45594000000E+02  0.51100000000E-03 0. -1.
    9900012    2    1    2    0    0  0.20514690044E+02  0.22345224922E+01  0.38180845523E+02  0.47787279232E+02  0.20000037328E+02 0.  0.
         12    1    1    2    0    0 -0.20514690044E+02 -0.22345224922E+01 -0.38180845523E+02  0.43400720768E+02  0.00000000000E+00 0. -1.
         11    1    3    3    0    0 -0.32792119062E+00  0.56497280956E+01  0.78909391188E+01  0.97105036069E+01  0.51100000000E-03 0. -1.
        -11    1    3    3    0    0  0.38814094242E+01  0.94540324544E+00  0.12878651858E+01  0.41973471876E+01  0.51100000000E-03 0.  1.
        -12    1    3    3    0    0  0.16961201810E+02 -0.43606088489E+01  0.29002041219E+02  0.33879428437E+02  0.00000000000E+00 0.  1.
</event>
<event>
 7    1  0.2682317E-010  0.4778727E+02  0.7816164E-02  0.1312668E+00
        -11   -1    0    0    0    0  0.00000000000E+00  0.00000000000E+00  0.45593999997E+02  0.45594000000E+02  0.51100000000E-03 0.  1.
         11   -1    0    0    0    0 -0.00000000000E+00 -0.00000000000E+00 -0.45593999997E+02  0.45594000000E+02  0.51100000000E-03 0. -1.
    9900012    2    1    2    0    0  0.14486380237E+02 -0.35788094324E+02  0.19823736987E+02  0.47787268948E+02  0.19999990441E+02 0.  0.
         12    1    1    2    0    0 -0.14486380237E+02  0.35788094324E+02 -0.19823736987E+02  0.43400731052E+02  0.00000000000E+00 0. -1.
         11    1    3    3    0    0 -0.36176959240E+01 -0.78429815127E+01  0.73042625594E+01  0.11311601770E+02  0.51100000000E-03 0. -1.
        -11    1    3    3    0    0  0.64755176307E+00 -0.66822878078E+01  0.18035378168E+01  0.69516215770E+01  0.51100000000E-03 0.  1.
        -12    1    3    3    0    0  0.17456524398E+02 -0.21262825003E+02  0.10715936611E+02  0.29524045601E+02  0.00000000000E+00 0.  1.
</event>
<event>
 7    1  0.2682317E-010  0.4778727E+02  0.7816164E-02  0.1312668E+00
        -11   -1    0    0    0    0  0.00000000000E+00  0.00000000000E+00  0.45593999997E+02  0.45594000000E+02  0.51100000000E-03 0. -1.
         11   -1    0    0    0    0 -0.00000000000E+00 -0.00000000000E+00 -0.45593999997E+02  0.45594000000E+02  0.51100000000E-03 0.  1.
    9900012    2    1    2    0    0  0.30116456970E+02  0.23567167327E+02 -0.20523425774E+02  0.47787270032E+02  0.19999995384E+02 0.  0.
         12    1    1    2    0    0 -0.30116456970E+02 -0.23567167327E+02  0.20523425774E+02  0.43400729968E+02  0.00000000000E+00 0. -1.
         11    1    3    3    0    0  0.43510404009E+01  0.26476897284E+01 -0.24610316623E+01  0.56567208321E+01  0.51100000000E-03 0. -1.
        -11    1    3    3    0    0  0.14020854230E+02  0.16973676178E+02 -0.19812363261E+02  0.29617896188E+02  0.51100000000E-03 0.  1.
         12    1    3    3    0    0  0.11744562339E+02  0.39458014201E+01  0.17499691489E+01  0.12512653012E+02  0.00000000000E+00 0. -1.
</event>
<event>
 7    1  0.2682317E-010  0.4778727E+02  0.7816164E-02  0.1312668E+00
        -11   -1    0    0    0    0  0.00000000000E+00  0.00000000000E+00  0.45593999997E+02  0.45594000000E+02  0.51100000000E-03 0.  1.
         11   -1    0    0    0    0 -0.00000000000E+00 -0.00000000000E+00 -0.45593999997E+02  0.45594000000E+02  0.51100000000E-03 0. -1.
    9900012    2    1    2    0    0  0.11950378194E+02  0.22003458279E+01  0.41664977641E+02  0.47787269331E+02  0.19999992188E+02 0.  0.
         12    1    1    2    0    0 -0.11950378194E+02 -0.22003458279E+01 -0.41664977641E+02  0.43400730669E+02  0.00000000000E+00 0. -1.
         11    1    3    3    0    0  0.41627750431E+01 -0.28164991340E+01  0.91115135324E+01  0.10405817726E+02  0.51100000000E-03 0. -1.
        -11    1    3    3    0    0  0.46108895445E+01 -0.53664248991E+01  0.16991632440E+02  0.18405824943E+02  0.51100000000E-03 0.  1.
        -12    1    3    3    0    0  0.31767136060E+01  0.10383269861E+02  0.15561831669E+02  0.18975626663E+02  0.00000000000E+00 0.  1.
</event>
<event>
 7    1  0.2682317E-010  0.4778724E+02  0.7816164E-02  0.1312668E+00
        -11   -1    0    0    0    0  0.00000000000E+00  0.00000000000E+00  0.45593999997E+02  0.45594000000E+02  0.51100000000E-03 0.  1.
         11   -1    0    0    0    0 -0.00000000000E+00 -0.00000000000E+00 -0.45593999997E+02  0.45594000000E+02  0.51100000000E-03 0. -1.
    9900012    2    1    2    0    0 -0.29840049067E+02 -0.31510789812E+02  0.51746018390E+00  0.47787237703E+02  0.19999847984E+02 0.  0.
         12    1    1    2    0    0  0.29840049067E+02  0.31510789812E+02 -0.51746018390E+00  0.43400762297E+02  0.00000000000E+00 0. -1.
         11    1    3    3    0    0 -0.21598396025E+01 -0.80045911120E+01 -0.13531770372E+01  0.84005639296E+01  0.51100000000E-03 0. -1.
        -11    1    3    3    0    0 -0.19894429887E+02 -0.21982943994E+02  0.62856094491E+01  0.30307541200E+02  0.51100000000E-03 0.  1.
         12    1    3    3    0    0 -0.77857795767E+01 -0.15232547062E+01 -0.44149722279E+01  0.90791325737E+01  0.00000000000E+00 0. -1.
</event>
<event>
 7    1  0.2682317E-010  0.4778729E+02  0.7816164E-02  0.1312668E+00
        -11   -1    0    0    0    0  0.00000000000E+00  0.00000000000E+00  0.45593999997E+02  0.45594000000E+02  0.51100000000E-03 0. -1.
         11   -1    0    0    0    0 -0.00000000000E+00 -0.00000000000E+00 -0.45593999997E+02  0.45594000000E+02  0.51100000000E-03 0.  1.
    9900012    2    1    2    0    0  0.35047010654E+02  0.10737484348E+02  0.23238651739E+02  0.47787291935E+02  0.20000095246E+02 0.  0.
         12    1    1    2    0    0 -0.35047010654E+02 -0.10737484348E+02 -0.23238651739E+02  0.43400708065E+02  0.00000000000E+00 0. -1.
         11    1    3    3    0    0  0.35802965848E+01  0.81749046822E+01  0.73962964980E+01  0.11591065195E+02  0.51100000000E-03 0. -1.
        -11    1    3    3    0    0  0.27839889444E+01  0.20000810917E+01  0.37007280176E+01  0.50444332622E+01  0.51100000000E-03 0.  1.
        -12    1    3    3    0    0  0.28682725125E+02  0.56249857433E+00  0.12141627223E+02  0.31151793478E+02  0.00000000000E+00 0.  1.
</event>
<event>
 7    1  0.2682317E-010  0.4778727E+02  0.7816164E-02  0.1312668E+00
        -11   -1    0    0    0    0  0.00000000000E+00  0.00000000000E+00  0.45593999997E+02  0.45594000000E+02  0.51100000000E-03 0. -1.
         11   -1    0    0    0    0 -0.00000000000E+00 -0.00000000000E+00 -0.45593999997E+02  0.45594000000E+02  0.51100000000E-03 0.  1.
    9900012    2    1    2    0    0  0.30268511240E+01 -0.37770132606E+02 -0.21163143801E+02  0.47787269588E+02  0.19999993358E+02 0.  0.
         12    1    1    2    0    0 -0.30268511240E+01  0.37770132606E+02  0.21163143801E+02  0.43400730412E+02  0.00000000000E+00 0. -1.
         11    1    3    3    0    0  0.94306543012E+00 -0.11721289784E+02 -0.48347279847E+01  0.12714267637E+02  0.51100000000E-03 0. -1.
        -11    1    3    3    0    0  0.49516556466E+01 -0.26154264321E+02 -0.17623854611E+02  0.31924358841E+02  0.51100000000E-03 0.  1.
         12    1    3    3    0    0 -0.28678699527E+01  0.10542149813E+00  0.12954387955E+01  0.31486431095E+01  0.00000000000E+00 0. -1.
</event>
<event>
 7    1  0.2682317E-010  0.4778727E+02  0.7816164E-02  0.1312668E+00
        -11   -1    0    0    0    0  0.00000000000E+00  0.00000000000E+00  0.45593999997E+02  0.45594000000E+02  0.51100000000E-03 0.  1.
         11   -1    0    0    0    0 -0.00000000000E+00 -0.00000000000E+00 -0.45593999997E+02  0.45594000000E+02  0.51100000000E-03 0. -1.
    9900012    2    1    2    0    0 -0.27378504817E+02  0.12961410439E+02  0.31081232397E+02  0.47787266205E+02  0.19999977937E+02 0.  0.
         12    1    1    2    0    0  0.27378504817E+02 -0.12961410439E+02 -0.31081232397E+02  0.43400733795E+02  0.00000000000E+00 0. -1.
         11    1    3    3    0    0 -0.62420348156E+01 -0.12162040311E+01  0.16551577412E+01  0.65712782846E+01  0.51100000000E-03 0. -1.
        -11    1    3    3    0    0 -0.47244449282E+01  0.40779014581E+01  0.24460419437E+00  0.62457578928E+01  0.51100000000E-03 0.  1.
        -12    1    3    3    0    0 -0.16412025073E+02  0.10099713012E+02  0.29181470461E+02  0.34970230028E+02  0.00000000000E+00 0.  1.
</event>
<event>
 7    1  0.2682317E-010  0.4778727E+02  0.7816164E-02  0.1312668E+00
        -11   -1    0    0    0    0  0.00000000000E+00  0.00000000000E+00  0.45593999997E+02  0.45594000000E+02  0.51100000000E-03 0.  1.
         11   -1    0    0    0    0 -0.00000000000E+00 -0.00000000000E+00 -0.45593999997E+02  0.45594000000E+02  0.51100000000E-03 0. -1.
    9900012    2    1    2    0    0 -0.13063855599E+02  0.86367812840E+01  0.40476719527E+02  0.47787272613E+02  0.20000007150E+02 0.  0.
         12    1    1    2    0    0  0.13063855599E+02 -0.86367812840E+01 -0.40476719527E+02  0.43400727387E+02  0.00000000000E+00 0. -1.
         11    1    3    3    0    0 -0.46903813851E+00 -0.18780042461E+01  0.17534232629E+02  0.17640754260E+02  0.51100000000E-03 0. -1.
        -11    1    3    3    0    0 -0.41856106976E+01  0.61671094249E+01  0.29312047943E+01  0.80090284916E+01  0.51100000000E-03 0.  1.
         12    1    3    3    0    0 -0.84092067632E+01  0.43476761052E+01  0.20011282104E+02  0.22137489861E+02  0.00000000000E+00 0. -1.
</event>
<event>
 7    1  0.2682317E-010  0.4778727E+02  0.7816164E-02  0.1312668E+00
        -11   -1    0    0    0    0  0.00000000000E+00  0.00000000000E+00  0.45593999997E+02  0.45594000000E+02  0.51100000000E-03 0.  1.
         11   -1    0    0    0    0 -0.00000000000E+00 -0.00000000000E+00 -0.45593999997E+02  0.45594000000E+02  0.51100000000E-03 0. -1.
    9900012    2    1    2    0    0  0.22628896952E+01  0.16758109141E+02  0.39970845504E+02  0.47787269798E+02  0.19999994316E+02 0.  0.
         12    1    1    2    0    0 -0.22628896952E+01 -0.16758109141E+02 -0.39970845504E+02  0.43400730202E+02  0.00000000000E+00 0. -1.
         11    1    3    3    0    0 -0.39901391677E+00  0.14632243995E+01  0.16146113295E+02  0.16217188799E+02  0.51100000000E-03 0. -1.
        -11    1    3    3    0    0 -0.24442959910E+01  0.13198123500E+02  0.21972021476E+02  0.25747519780E+02  0.51100000000E-03 0.  1.
         12    1    3    3    0    0  0.51061996030E+01  0.20967612417E+01  0.18527107338E+01  0.58225612193E+01  0.00000000000E+00 0. -1.
</event>
<event>
 7    1  0.2682317E-010  0.4778727E+02  0.7816164E-02  0.1312668E+00
        -11   -1    0    0    0    0  0.00000000000E+00  0.00000000000E+00  0.45593999997E+02  0.45594000000E+02  0.51100000000E-03 0.  1.
         11   -1    0    0    0    0 -0.00000000000E+00 -0.00000000000E+00 -0.45593999997E+02  0.45594000000E+02  0.51100000000E-03 0. -1.
    9900012    2    1    2    0    0  0.28138545223E+02  0.10358495266E+02  0.31377493269E+02  0.47787271489E+02  0.20000002027E+02 0.  0.
         12    1    1    2    0    0 -0.28138545223E+02 -0.10358495266E+02 -0.31377493269E+02  0.43400728511E+02  0.00000000000E+00 0. -1.
         11    1    3    3    0    0  0.32099282607E+01  0.12765519967E+00 -0.12750204884E+01  0.34562425835E+01  0.51100000000E-03 0. -1.
        -11    1    3    3    0    0  0.20879134500E+02  0.53834551478E+01  0.17017709435E+02  0.27468568974E+02  0.51100000000E-03 0.  1.
         12    1    3    3    0    0  0.40494824626E+01  0.48473849185E+01  0.15634804322E+02  0.16862459931E+02  0.00000000000E+00 0. -1.
</event>
<event>
 7    1  0.2682317E-010  0.4778727E+02  0.7816164E-02  0.1312668E+00
        -11   -1    0    0    0    0  0.00000000000E+00  0.00000000000E+00  0.45593999997E+02  0.45594000000E+02  0.51100000000E-03 0.  1.
         11   -1    0    0    0    0 -0.00000000000E+00 -0.00000000000E+00 -0.45593999997E+02  0.45594000000E+02  0.51100000000E-03 0. -1.
    9900012    2    1    2    0    0 -0.19147592143E+02 -0.82101055322E+01  0.38073447026E+02  0.47787268599E+02  0.19999988849E+02 0.  0.
         12    1    1    2    0    0  0.19147592143E+02  0.82101055322E+01 -0.38073447026E+02  0.43400731401E+02  0.00000000000E+00 0. -1.
         11    1    3    3    0    0  0.29468831178E+00 -0.52736977179E+00  0.53008466732E+01  0.53351603341E+01  0.51100000000E-03 0. -1.
        -11    1    3    3    0    0 -0.28112589999E+01  0.21092193568E+01  0.17475496972E+02  0.17825402608E+02  0.51100000000E-03 0.  1.
         12    1    3    3    0    0 -0.16631021455E+02 -0.97919551173E+01  0.15297103381E+02  0.24626705656E+02  0.00000000000E+00 0. -1.
</event>
<event>
 7    1  0.2682317E-010  0.4778727E+02  0.7816164E-02  0.1312668E+00
        -11   -1    0    0    0    0  0.00000000000E+00  0.00000000000E+00  0.45593999997E+02  0.45594000000E+02  0.51100000000E-03 0.  1.
         11   -1    0    0    0    0 -0.00000000000E+00 -0.00000000000E+00 -0.45593999997E+02  0.45594000000E+02  0.51100000000E-03 0. -1.
    9900012    2    1    2    0    0 -0.40066733475E+01 -0.47781064686E+01  0.42950429960E+02  0.47787272281E+02  0.20000005639E+02 0.  0.
         12    1    1    2    0    0  0.40066733475E+01  0.47781064686E+01 -0.42950429960E+02  0.43400727719E+02  0.00000000000E+00 0. -1.
         11    1    3    3    0    0  0.14885226688E+01 -0.63288020417E+01  0.16516054069E+02  0.17749633159E+02  0.51100000000E-03 0. -1.
        -11    1    3    3    0    0  0.24264592334E+01 -0.34375628377E+01  0.43546977352E+01  0.60554054612E+01  0.51100000000E-03 0.  1.
        -12    1    3    3    0    0 -0.79216552497E+01  0.49882584107E+01  0.22079678157E+02  0.23982233661E+02  0.00000000000E+00 0.  1.
</event>
<event>
 7    1  0.2682317E-010  0.4778726E+02  0.7816164E-02  0.1312668E+00
        -11   -1    0    0    0    0  0.00000000000E+00  0.00000000000E+00  0.45593999997E+02  0.45594000000E+02  0.51100000000E-03 0.  1.
         11   -1    0    0    0    0 -0.00000000000E+00 -0.00000000000E+00 -0.45593999997E+02  0.45594000000E+02  0.51100000000E-03 0. -1.
    9900012    2    1    2    0    0  0.22703259193E+02 -0.22819362166E+02  0.29111224370E+02  0.47787255168E+02  0.19999927612E+02 0.  0.
         12    1    1    2    0    0 -0.22703259193E+02  0.22819362166E+02 -0.29111224370E+02  0.43400744832E+02  0.00000000000E+00 0. -1.
         11    1    3    3    0    0  0.22469283215E+01  0.19842579228E+01  0.36792339785E+01  0.47458117657E+01  0.51100000000E-03 0. -1.
        -11    1    3    3    0    0  0.18413257922E+01  0.88801640925E+00 -0.45433782169E+00  0.20941530348E+01  0.51100000000E-03 0.  1.
        -12    1    3    3    0    0  0.18615005080E+02 -0.25691636498E+02  0.25886328213E+02  0.40947290367E+02  0.00000000000E+00 0.  1.
</event>
<event>
 7    1  0.2682317E-010  0.4778727E+02  0.7816164E-02  0.1312668E+00
        -11   -1    0    0    0    0  0.00000000000E+00  0.00000000000E+00  0.45593999997E+02  0.45594000000E+02  0.51100000000E-03 0. -1.
         11   -1    0    0    0    0 -0.00000000000E+00 -0.00000000000E+00 -0.45593999997E+02  0.45594000000E+02  0.51100000000E-03 0.  1.
    9900012    2    1    2    0    0 -0.35479763459E+01  0.42542055651E+02  0.78235778381E+01  0.47787274138E+02  0.20000014103E+02 0.  0.
         12    1    1    2    0    0  0.35479763459E+01 -0.42542055651E+02 -0.78235778381E+01  0.43400725862E+02  0.00000000000E+00 0. -1.
         11    1    3    3    0    0  0.35582106267E+01  0.34079464494E+01 -0.16805986982E+01  0.52057059186E+01  0.51100000000E-03 0. -1.
        -11    1    3    3    0    0  0.11772557061E+01  0.24017435912E+02  0.33501225755E+01  0.24278518907E+02  0.51100000000E-03 0.  1.
         12    1    3    3    0    0 -0.82834426786E+01  0.15116673290E+02  0.61540539607E+01  0.18303049312E+02  0.00000000000E+00 0. -1.
</event>
<event>
 7    1  0.2682317E-010  0.4778727E+02  0.7816164E-02  0.1312668E+00
        -11   -1    0    0    0    0  0.00000000000E+00  0.00000000000E+00  0.45593999997E+02  0.45594000000E+02  0.51100000000E-03 0.  1.
         11   -1    0    0    0    0 -0.00000000000E+00 -0.00000000000E+00 -0.45593999997E+02  0.45594000000E+02  0.51100000000E-03 0. -1.
    9900012    2    1    2    0    0  0.32186120692E+02 -0.96044162960E+01  0.27485123949E+02  0.47787271711E+02  0.20000003039E+02 0.  0.
         12    1    1    2    0    0 -0.32186120692E+02  0.96044162960E+01 -0.27485123949E+02  0.43400728289E+02  0.00000000000E+00 0. -1.
         11    1    3    3    0    0  0.76796580606E+01 -0.57599708554E+01  0.11121284970E+02  0.14691405373E+02  0.51100000000E-03 0. -1.
        -11    1    3    3    0    0  0.13633121061E+02  0.29252145422E+01  0.14562213180E+02  0.20161272850E+02  0.51100000000E-03 0.  1.
         12    1    3    3    0    0  0.10873341570E+02 -0.67696599828E+01  0.18016257986E+01  0.12934593488E+02  0.00000000000E+00 0. -1.
</event>
<event>
 7    1  0.2682317E-010  0.4778727E+02  0.7816164E-02  0.1312668E+00
        -11   -1    0    0    0    0  0.00000000000E+00  0.00000000000E+00  0.45593999997E+02  0.45594000000E+02  0.51100000000E-03 0. -1.
         11   -1    0    0    0    0 -0.00000000000E+00 -0.00000000000E+00 -0.45593999997E+02  0.45594000000E+02  0.51100000000E-03 0.  1.
    9900012    2    1    2    0    0 -0.32074156913E+02  0.29043478271E+02  0.33687437804E+01  0.47787267214E+02  0.19999982534E+02 0.  0.
         12    1    1    2    0    0  0.32074156913E+02 -0.29043478271E+02 -0.33687437804E+01  0.43400732786E+02  0.00000000000E+00 0. -1.
         11    1    3    3    0    0 -0.56529707590E+01  0.26219784906E+01 -0.65662234420E+01  0.90524107374E+01  0.51100000000E-03 0. -1.
        -11    1    3    3    0    0 -0.17101799645E+02  0.17271139467E+02  0.53049105983E+01  0.24877819163E+02  0.51100000000E-03 0.  1.
         12    1    3    3    0    0 -0.93193865085E+01  0.91503603131E+01  0.46300566241E+01  0.13857037313E+02  0.00000000000E+00 0. -1.
</event>
<event>
 7    1  0.2682317E-010  0.4778727E+02  0.7816164E-02  0.1312668E+00
        -11   -1    0    0    0    0  0.00000000000E+00  0.00000000000E+00  0.45593999997E+02  0.45594000000E+02  0.51100000000E-03 0. -1.
         11   -1    0    0    0    0 -0.00000000000E+00 -0.00000000000E+00 -0.45593999997E+02  0.45594000000E+02  0.51100000000E-03 0.  1.
    9900012    2    1    2    0    0  0.15554043520E+01 -0.40138618985E+02 -0.16434589953E+02  0.47787265402E+02  0.19999974274E+02 0.  0.
         12    1    1    2    0    0 -0.15554043520E+01  0.40138618985E+02  0.16434589953E+02  0.43400734598E+02  0.00000000000E+00 0. -1.
         11    1    3    3    0    0  0.34976928764E+01 -0.10374092054E+02 -0.75082886290E+01  0.13275166282E+02  0.51100000000E-03 0. -1.
        -11    1    3    3    0    0  0.33420708907E+01 -0.20282184366E+02 -0.11217911910E+02  0.23417471861E+02  0.51100000000E-03 0.  1.
         12    1    3    3    0    0 -0.52843594151E+01 -0.94823425653E+01  0.22916105858E+01  0.11094627260E+02  0.00000000000E+00 0. -1.
</event>
<event>
 7    1  0.2682317E-010  0.4778727E+02  0.7816164E-02  0.1312668E+00
        -11   -1    0    0    0    0  0.00000000000E+00  0.00000000000E+00  0.45593999997E+02  0.45594000000E+02  0.51100000000E-03 0.  1.
         11   -1    0    0    0    0 -0.00000000000E+00 -0.00000000000E+00 -0.45593999997E+02  0.45594000000E+02  0.51100000000E-03 0. -1.
    9900012    2    1    2    0    0  0.22077742896E+02 -0.34022403634E+02 -0.15449021763E+02  0.47787274731E+02  0.20000016809E+02 0.  0.
         12    1    1    2    0    0 -0.22077742896E+02  0.34022403634E+02  0.15449021763E+02  0.43400725269E+02  0.00000000000E+00 0. -1.
         11    1    3    3    0    0  0.59912879150E+01 -0.16979185537E+01  0.10706209296E+01  0.63185985576E+01  0.51100000000E-03 0. -1.
        -11    1    3    3    0    0  0.56322952728E+01 -0.27791802322E+01 -0.57880722001E+00  0.63072665127E+01  0.51100000000E-03 0.  1.
        -12    1    3    3    0    0  0.10454159709E+02 -0.29545304848E+02 -0.15940835472E+02  0.35161409661E+02  0.00000000000E+00 0.  1.
</event>
<event>
 7    1  0.2682317E-010  0.4778727E+02  0.7816164E-02  0.1312668E+00
        -11   -1    0    0    0    0  0.00000000000E+00  0.00000000000E+00  0.45593999997E+02  0.45594000000E+02  0.51100000000E-03 0.  1.
         11   -1    0    0    0    0 -0.00000000000E+00 -0.00000000000E+00 -0.45593999997E+02  0.45594000000E+02  0.51100000000E-03 0. -1.
    9900012    2    1    2    0    0 -0.54305785355E+01  0.10473166870E+02  0.41766550741E+02  0.47787272260E+02  0.20000005544E+02 0.  0.
         12    1    1    2    0    0  0.54305785355E+01 -0.10473166870E+02 -0.41766550741E+02  0.43400727740E+02  0.00000000000E+00 0. -1.
         11    1    3    3    0    0 -0.75396128033E+01  0.74020721170E+01  0.10609731325E+02  0.14973404152E+02  0.51100000000E-03 0. -1.
        -11    1    3    3    0    0 -0.14005807882E+01  0.55763409400E+01  0.21149316406E+02  0.21916906477E+02  0.51100000000E-03 0.  1.
         12    1    3    3    0    0  0.35096150559E+01 -0.25052461867E+01  0.10007503011E+02  0.10896961632E+02  0.00000000000E+00 0. -1.
</event>
<event>
 7    1  0.2682317E-010  0.4778727E+02  0.7816164E-02  0.1312668E+00
        -11   -1    0    0    0    0  0.00000000000E+00  0.00000000000E+00  0.45593999997E+02  0.45594000000E+02  0.51100000000E-03 0.  1.
         11   -1    0    0    0    0 -0.00000000000E+00 -0.00000000000E+00 -0.45593999997E+02  0.45594000000E+02  0.51100000000E-03 0. -1.
    9900012    2    1    2    0    0  0.24693653644E+02  0.35658350767E+02  0.15260153703E+01  0.47787271520E+02  0.20000002169E+02 0.  0.
         12    1    1    2    0    0 -0.24693653644E+02 -0.35658350767E+02 -0.15260153703E+01  0.43400728480E+02  0.00000000000E+00 0. -1.
         11    1    3    3    0    0  0.13125934849E+02  0.10268238509E+02  0.33814532371E+01  0.17004737986E+02  0.51100000000E-03 0.  1.
        -11    1    3    3    0    0  0.15282452390E+01  0.94475350488E-01  0.27816635099E+01  0.31752340458E+01  0.51100000000E-03 0. -1.
        -12    1    3    3    0    0  0.10039473556E+02  0.25295636908E+02 -0.46371013767E+01  0.27607299488E+02  0.00000000000E+00 0.  1.
</event>
<event>
 7    1  0.2682317E-010  0.4778727E+02  0.7816164E-02  0.1312668E+00
        -11   -1    0    0    0    0  0.00000000000E+00  0.00000000000E+00  0.45593999997E+02  0.45594000000E+02  0.51100000000E-03 0.  1.
         11   -1    0    0    0    0 -0.00000000000E+00 -0.00000000000E+00 -0.45593999997E+02  0.45594000000E+02  0.51100000000E-03 0. -1.
    9900012    2    1    2    0    0  0.20489415568E+02  0.51990181929E+01  0.37904842622E+02  0.47787273800E+02  0.20000012563E+02 0.  0.
         12    1    1    2    0    0 -0.20489415568E+02 -0.51990181929E+01 -0.37904842622E+02  0.43400726200E+02  0.00000000000E+00 0. -1.
         11    1    3    3    0    0  0.14182954706E+02 -0.30018094410E+01  0.22236200576E+02  0.26544597952E+02  0.51100000000E-03 0. -1.
        -11    1    3    3    0    0  0.84017162962E+01  0.34236604734E+01  0.10826202772E+02  0.14125047061E+02  0.51100000000E-03 0.  1.
        -12    1    3    3    0    0 -0.20952554350E+01  0.47771671604E+01  0.48424392744E+01  0.71176287865E+01  0.00000000000E+00 0.  1.
</event>
<event>
 7    1  0.2682317E-010  0.4778728E+02  0.7816164E-02  0.1312668E+00
        -11   -1    0    0    0    0  0.00000000000E+00  0.00000000000E+00  0.45593999997E+02  0.45594000000E+02  0.51100000000E-03 0. -1.
         11   -1    0    0    0    0 -0.00000000000E+00 -0.00000000000E+00 -0.45593999997E+02  0.45594000000E+02  0.51100000000E-03 0.  1.
    9900012    2    1    2    0    0  0.31660381429E+02 -0.94346206597E+01 -0.28146593594E+02  0.47787279382E+02  0.20000038012E+02 0.  0.
         12    1    1    2    0    0 -0.31660381429E+02  0.94346206597E+01  0.28146593594E+02  0.43400720618E+02  0.00000000000E+00 0. -1.
         11    1    3    3    0    0  0.26078148016E+01  0.14025393198E+01 -0.86934222573E+01  0.91838665815E+01  0.51100000000E-03 0. -1.
        -11    1    3    3    0    0  0.63473211355E+01 -0.83378413964E+01 -0.54669327087E+01  0.11819282476E+02  0.51100000000E-03 0.  1.
        -12    1    3    3    0    0  0.22705245492E+02 -0.24993185831E+01 -0.13986238628E+02  0.26784130324E+02  0.00000000000E+00 0.  1.
</event>
<event>
 7    1  0.2682317E-010  0.4778727E+02  0.7816164E-02  0.1312668E+00
        -11   -1    0    0    0    0  0.00000000000E+00  0.00000000000E+00  0.45593999997E+02  0.45594000000E+02  0.51100000000E-03 0.  1.
         11   -1    0    0    0    0 -0.00000000000E+00 -0.00000000000E+00 -0.45593999997E+02  0.45594000000E+02  0.51100000000E-03 0. -1.
    9900012    2    1    2    0    0  0.31654576735E+02 -0.29083084099E+02  0.59820575844E+01  0.47787273947E+02  0.20000013236E+02 0.  0.
         12    1    1    2    0    0 -0.31654576735E+02  0.29083084099E+02 -0.59820575844E+01  0.43400726053E+02  0.00000000000E+00 0. -1.
         11    1    3    3    0    0  0.20584187226E+02 -0.17950275076E+02 -0.50639961455E+00  0.27316251205E+02  0.51100000000E-03 0. -1.
        -11    1    3    3    0    0  0.13478125610E+02 -0.91233361337E+01  0.55888012118E+01  0.17208423270E+02  0.51100000000E-03 0.  1.
        -12    1    3    3    0    0 -0.24077361015E+01 -0.20094728890E+01  0.89965598717E+00  0.32625994730E+01  0.00000000000E+00 0.  1.
</event>
<event>
 7    1  0.2682317E-010  0.4778727E+02  0.7816164E-02  0.1312668E+00
        -11   -1    0    0    0    0  0.00000000000E+00  0.00000000000E+00  0.45593999997E+02  0.45594000000E+02  0.51100000000E-03 0. -1.
         11   -1    0    0    0    0 -0.00000000000E+00 -0.00000000000E+00 -0.45593999997E+02  0.45594000000E+02  0.51100000000E-03 0.  1.
    9900012    2    1    2    0    0 -0.39055281141E+02 -0.13071581685E+02 -0.13690951111E+02  0.47787269879E+02  0.19999994686E+02 0.  0.
         12    1    1    2    0    0  0.39055281141E+02  0.13071581685E+02  0.13690951111E+02  0.43400730121E+02  0.00000000000E+00 0. -1.
         11    1    3    3    0    0 -0.33473669394E+02 -0.10865947531E+02 -0.39647222125E+01  0.35415736347E+02  0.51100000000E-03 0. -1.
        -11    1    3    3    0    0 -0.26306058250E+00 -0.20843782705E+01 -0.15253465350E+01  0.25962503650E+01  0.51100000000E-03 0.  1.
         12    1    3    3    0    0 -0.53185511637E+01 -0.12125588319E+00 -0.82008823632E+01  0.97752831675E+01  0.00000000000E+00 0. -1.
</event>
<event>
 7    1  0.2682317E-010  0.4778727E+02  0.7816164E-02  0.1312668E+00
        -11   -1    0    0    0    0  0.00000000000E+00  0.00000000000E+00  0.45593999997E+02  0.45594000000E+02  0.51100000000E-03 0.  1.
         11   -1    0    0    0    0 -0.00000000000E+00 -0.00000000000E+00 -0.45593999997E+02  0.45594000000E+02  0.51100000000E-03 0. -1.
    9900012    2    1    2    0    0 -0.65539224183E+01  0.25632200536E+00  0.42902253668E+02  0.47787274547E+02  0.20000015972E+02 0.  0.
         12    1    1    2    0    0  0.65539224183E+01 -0.25632200536E+00 -0.42902253668E+02  0.43400725453E+02  0.00000000000E+00 0. -1.
         11    1    3    3    0    0 -0.81030271382E+01 -0.14185160349E+01  0.98992021543E+01  0.12871108736E+02  0.51100000000E-03 0. -1.
        -11    1    3    3    0    0 -0.56706964089E+00 -0.44543938361E+01  0.90759489232E+01  0.10126008174E+02  0.51100000000E-03 0.  1.
        -12    1    3    3    0    0  0.21161743608E+01  0.61292318763E+01  0.23927102590E+02  0.24790157637E+02  0.00000000000E+00 0.  1.
</event>
<event>
 7    1  0.2682317E-010  0.4778728E+02  0.7816164E-02  0.1312668E+00
        -11   -1    0    0    0    0  0.00000000000E+00  0.00000000000E+00  0.45593999997E+02  0.45594000000E+02  0.51100000000E-03 0.  1.
         11   -1    0    0    0    0 -0.00000000000E+00 -0.00000000000E+00 -0.45593999997E+02  0.45594000000E+02  0.51100000000E-03 0. -1.
    9900012    2    1    2    0    0  0.37634353517E+02 -0.12829335934E+02  0.17397885799E+02  0.47787275865E+02  0.20000021980E+02 0.  0.
         12    1    1    2    0    0 -0.37634353517E+02  0.12829335934E+02 -0.17397885799E+02  0.43400724135E+02  0.00000000000E+00 0. -1.
         11    1    3    3    0    0  0.25581425869E+01  0.15944173069E+01  0.22987767810E+01  0.37908620382E+01  0.51100000000E-03 0. -1.
        -11    1    3    3    0    0  0.25549993533E+02 -0.11074331087E+02  0.26584513270E+01  0.27973386321E+02  0.51100000000E-03 0.  1.
        -12    1    3    3    0    0  0.95262173970E+01 -0.33494221539E+01  0.12440657691E+02  0.16023027506E+02  0.00000000000E+00 0.  1.
</event>
<event>
 7    1  0.2682317E-010  0.4778727E+02  0.7816164E-02  0.1312668E+00
        -11   -1    0    0    0    0  0.00000000000E+00  0.00000000000E+00  0.45593999997E+02  0.45594000000E+02  0.51100000000E-03 0.  1.
         11   -1    0    0    0    0 -0.00000000000E+00 -0.00000000000E+00 -0.45593999997E+02  0.45594000000E+02  0.51100000000E-03 0. -1.
    9900012    2    1    2    0    0 -0.12149255749E+02 -0.19833829440E+02  0.36642027811E+02  0.47787269504E+02  0.19999992978E+02 0.  0.
         12    1    1    2    0    0  0.12149255749E+02  0.19833829440E+02 -0.36642027811E+02  0.43400730496E+02  0.00000000000E+00 0. -1.
         11    1    3    3    0    0 -0.17028339211E+01 -0.49564803960E+00  0.89710893817E+00  0.19874896353E+01  0.51100000000E-03 0. -1.
        -11    1    3    3    0    0 -0.99659429368E+01 -0.22918392379E+02  0.30499452995E+02  0.39430817404E+02  0.51100000000E-03 0.  1.
        -12    1    3    3    0    0 -0.48047889081E+00  0.35802109788E+01  0.52454658772E+01  0.63689624655E+01  0.00000000000E+00 0.  1.
</event>
<event>
 7    1  0.2791852E-010  0.4778728E+02  0.7816164E-02  0.1312668E+00
        -11   -1    0    0    0    0  0.00000000000E+00  0.00000000000E+00  0.45593999997E+02  0.45594000000E+02  0.51100000000E-03 0.  1.
         11   -1    0    0    0    0 -0.00000000000E+00 -0.00000000000E+00 -0.45593999997E+02  0.45594000000E+02  0.51100000000E-03 0. -1.
    9900012    2    1    2    0    0 -0.26488054092E+02 -0.29691883352E+02  0.17331992356E+02  0.47787275287E+02  0.20000019345E+02 0.  0.
         12    1    1    2    0    0  0.26488054092E+02  0.29691883352E+02 -0.17331992356E+02  0.43400724713E+02  0.00000000000E+00 0. -1.
         11    1    3    3    0    0 -0.39740339066E+01 -0.10103066870E+02 -0.18455153414E+01  0.11012303701E+02  0.51100000000E-03 0. -1.
        -11    1    3    3    0    0 -0.81604235079E+01 -0.13421496237E+02  0.85917423721E+01  0.17903829488E+02  0.51100000000E-03 0.  1.
         12    1    3    3    0    0 -0.14353596677E+02 -0.61673202447E+01  0.10585765325E+02  0.18871142098E+02  0.00000000000E+00 0. -1.
</event>
<event>
 7    1  0.2682317E-010  0.4778728E+02  0.7816164E-02  0.1312668E+00
        -11   -1    0    0    0    0  0.00000000000E+00  0.00000000000E+00  0.45593999997E+02  0.45594000000E+02  0.51100000000E-03 0.  1.
         11   -1    0    0    0    0 -0.00000000000E+00 -0.00000000000E+00 -0.45593999997E+02  0.45594000000E+02  0.51100000000E-03 0. -1.
    9900012    2    1    2    0    0  0.98896409135E+01 -0.68774522681E+01  0.41695540339E+02  0.47787280752E+02  0.20000044258E+02 0.  0.
         12    1    1    2    0    0 -0.98896409135E+01  0.68774522681E+01 -0.41695540339E+02  0.43400719248E+02  0.00000000000E+00 0. -1.
         11    1    3    3    0    0 -0.44260376291E+00 -0.50713825969E+01  0.10900888326E+02  0.12030967795E+02  0.51100000000E-03 0.  1.
        -11    1    3    3    0    0 -0.40624575814E+00 -0.58756729827E+01  0.15850975968E+02  0.16909819869E+02  0.51100000000E-03 0. -1.
         12    1    3    3    0    0  0.10738490435E+02  0.40696033115E+01  0.14943676046E+02  0.18846493087E+02  0.00000000000E+00 0. -1.
</event>
<event>
 7    1  0.2682317E-010  0.4778727E+02  0.7816164E-02  0.1312668E+00
        -11   -1    0    0    0    0  0.00000000000E+00  0.00000000000E+00  0.45593999997E+02  0.45594000000E+02  0.51100000000E-03 0. -1.
         11   -1    0    0    0    0 -0.00000000000E+00 -0.00000000000E+00 -0.45593999997E+02  0.45594000000E+02  0.51100000000E-03 0.  1.
    9900012    2    1    2    0    0 -0.19681859171E+01 -0.14515033537E+02 -0.40854174350E+02  0.47787268253E+02  0.19999987272E+02 0.  0.
         12    1    1    2    0    0  0.19681859171E+01  0.14515033537E+02  0.40854174350E+02  0.43400731747E+02  0.00000000000E+00 0. -1.
         11    1    3    3    0    0 -0.50793245866E+00 -0.37248425370E+01 -0.40611174502E+00  0.37811868928E+01  0.51100000000E-03 0. -1.
        -11    1    3    3    0    0  0.57722620826E+01 -0.36702224930E+01 -0.12151203091E+02  0.13944220291E+02  0.51100000000E-03 0.  1.
        -12    1    3    3    0    0 -0.72325155410E+01 -0.71199685073E+01 -0.28296859514E+02  0.30061861069E+02  0.00000000000E+00 0.  1.
</event>
<event>
 7    1  0.2682317E-010  0.4778727E+02  0.7816164E-02  0.1312668E+00
        -11   -1    0    0    0    0  0.00000000000E+00  0.00000000000E+00  0.45593999997E+02  0.45594000000E+02  0.51100000000E-03 0.  1.
         11   -1    0    0    0    0 -0.00000000000E+00 -0.00000000000E+00 -0.45593999997E+02  0.45594000000E+02  0.51100000000E-03 0. -1.
    9900012    2    1    2    0    0  0.50057094248E+01 -0.41837149721E+02  0.10402842737E+02  0.47787270045E+02  0.19999995441E+02 0.  0.
         12    1    1    2    0    0 -0.50057094248E+01  0.41837149721E+02 -0.10402842737E+02  0.43400729955E+02  0.00000000000E+00 0. -1.
         11    1    3    3    0    0  0.28851494421E+00 -0.66949907847E+01  0.72211821873E+01  0.98514778041E+01  0.51100000000E-03 0. -1.
        -11    1    3    3    0    0 -0.42124376368E+01 -0.78458130429E+01 -0.80119682379E+00  0.89411033860E+01  0.51100000000E-03 0.  1.
        -12    1    3    3    0    0  0.89296321174E+01 -0.27296345894E+02  0.39828573734E+01  0.28994688854E+02  0.00000000000E+00 0.  1.
</event>
<event>
 7    1  0.2682317E-010  0.4778727E+02  0.7816164E-02  0.1312668E+00
        -11   -1    0    0    0    0  0.00000000000E+00  0.00000000000E+00  0.45593999997E+02  0.45594000000E+02  0.51100000000E-03 0. -1.
         11   -1    0    0    0    0 -0.00000000000E+00 -0.00000000000E+00 -0.45593999997E+02  0.45594000000E+02  0.51100000000E-03 0.  1.
    9900012    2    1    2    0    0 -0.30702493827E+02 -0.21920382722E+01 -0.30596975742E+02  0.47787273237E+02  0.20000009996E+02 0.  0.
         12    1    1    2    0    0  0.30702493827E+02  0.21920382722E+01  0.30596975742E+02  0.43400726763E+02  0.00000000000E+00 0. -1.
         11    1    3    3    0    0 -0.50084774708E+01 -0.30969898556E+01 -0.12053075034E+02  0.13414649111E+02  0.51100000000E-03 0. -1.
        -11    1    3    3    0    0 -0.21126530802E+02 -0.45158380181E+01 -0.15828616126E+02  0.26781862994E+02  0.51100000000E-03 0.  1.
         12    1    3    3    0    0 -0.45674855546E+01  0.54207896015E+01 -0.27152845829E+01  0.75907611319E+01  0.00000000000E+00 0. -1.
</event>
<event>
 7    1  0.2682317E-010  0.4778727E+02  0.7816164E-02  0.1312668E+00
        -11   -1    0    0    0    0  0.00000000000E+00  0.00000000000E+00  0.45593999997E+02  0.45594000000E+02  0.51100000000E-03 0. -1.
         11   -1    0    0    0    0 -0.00000000000E+00 -0.00000000000E+00 -0.45593999997E+02  0.45594000000E+02  0.51100000000E-03 0.  1.
    9900012    2    1    2    0    0  0.40514485358E+02  0.14755020674E+02 -0.49486534967E+01  0.47787270394E+02  0.19999997035E+02 0.  0.
         12    1    1    2    0    0 -0.40514485358E+02 -0.14755020674E+02  0.49486534967E+01  0.43400729606E+02  0.00000000000E+00 0. -1.
         11    1    3    3    0    0  0.97789704700E+00  0.21428494143E+01 -0.31218943414E+01  0.39107941376E+01  0.51100000000E-03 0. -1.
        -11    1    3    3    0    0  0.13717377463E+02  0.10282517652E+02  0.32794937441E+01  0.17454274353E+02  0.51100000000E-03 0.  1.
        -12    1    3    3    0    0  0.25819210848E+02  0.23296536077E+01 -0.51062528995E+01  0.26422201903E+02  0.00000000000E+00 0.  1.
</event>
<event>
 7    1  0.2682317E-010  0.4778727E+02  0.7816164E-02  0.1312668E+00
        -11   -1    0    0    0    0  0.00000000000E+00  0.00000000000E+00  0.45593999997E+02  0.45594000000E+02  0.51100000000E-03 0.  1.
         11   -1    0    0    0    0 -0.00000000000E+00 -0.00000000000E+00 -0.45593999997E+02  0.45594000000E+02  0.51100000000E-03 0. -1.
    9900012    2    1    2    0    0  0.19314820407E+02 -0.34524716470E+02  0.17849509827E+02  0.47787270332E+02  0.19999996750E+02 0.  0.
         12    1    1    2    0    0 -0.19314820407E+02  0.34524716470E+02 -0.17849509827E+02  0.43400729668E+02  0.00000000000E+00 0. -1.
         11    1    3    3    0    0  0.93240858921E+01 -0.26449346184E+01  0.29682822647E+01  0.10136318697E+02  0.51100000000E-03 0. -1.
        -11    1    3    3    0    0  0.76074170211E+01 -0.10473223013E+02  0.69961077117E+01  0.14714167234E+02  0.51100000000E-03 0.  1.
        -12    1    3    3    0    0  0.23833174938E+01 -0.21406558839E+02  0.78851198504E+01  0.22936784401E+02  0.00000000000E+00 0.  1.
</event>
<event>
 7    1  0.2682317E-010  0.4778727E+02  0.7816164E-02  0.1312668E+00
        -11   -1    0    0    0    0  0.00000000000E+00  0.00000000000E+00  0.45593999997E+02  0.45594000000E+02  0.51100000000E-03 0.  1.
         11   -1    0    0    0    0 -0.00000000000E+00 -0.00000000000E+00 -0.45593999997E+02  0.45594000000E+02  0.51100000000E-03 0. -1.
    9900012    2    1    2    0    0 -0.96773444378E+00 -0.19066606290E+02  0.38976293420E+02  0.47787269198E+02  0.19999991582E+02 0.  0.
         12    1    1    2    0    0  0.96773444378E+00  0.19066606290E+02 -0.38976293420E+02  0.43400730802E+02  0.00000000000E+00 0. -1.
         11    1    3    3    0    0  0.38215395080E+01 -0.11197436468E+02  0.10163186157E+02  0.15597342747E+02  0.51100000000E-03 0. -1.
        -11    1    3    3    0    0  0.73001777398E+00 -0.79932562875E+01  0.11546682698E+02  0.14062395017E+02  0.51100000000E-03 0.  1.
         12    1    3    3    0    0 -0.55192917258E+01  0.12408646541E+00  0.17266424565E+02  0.18127531434E+02  0.00000000000E+00 0. -1.
</event>
<event>
 7    1  0.2682317E-010  0.4778727E+02  0.7816164E-02  0.1312668E+00
        -11   -1    0    0    0    0  0.00000000000E+00  0.00000000000E+00  0.45593999997E+02  0.45594000000E+02  0.51100000000E-03 0.  1.
         11   -1    0    0    0    0 -0.00000000000E+00 -0.00000000000E+00 -0.45593999997E+02  0.45594000000E+02  0.51100000000E-03 0. -1.
    9900012    2    1    2    0    0 -0.40368211206E+02 -0.13201649683E+02  0.89301393212E+01  0.47787269377E+02  0.19999992397E+02 0.  0.
         12    1    1    2    0    0  0.40368211206E+02  0.13201649683E+02 -0.89301393212E+01  0.43400730623E+02  0.00000000000E+00 0. -1.
         11    1    3    3    0    0 -0.24631768721E+02 -0.67841097284E+01  0.59613147765E+01  0.26235194859E+02  0.51100000000E-03 0.  1.
        -11    1    3    3    0    0 -0.17304058090E+02 -0.60295572234E+01  0.17524062881E+00  0.18325302078E+02  0.51100000000E-03 0. -1.
         12    1    3    3    0    0  0.15676156057E+01 -0.38798273136E+00  0.27935839158E+01  0.32267724404E+01  0.00000000000E+00 0. -1.
</event>
<event>
 7    1  0.2682317E-010  0.4778727E+02  0.7816164E-02  0.1312668E+00
        -11   -1    0    0    0    0  0.00000000000E+00  0.00000000000E+00  0.45593999997E+02  0.45594000000E+02  0.51100000000E-03 0.  1.
         11   -1    0    0    0    0 -0.00000000000E+00 -0.00000000000E+00 -0.45593999997E+02  0.45594000000E+02  0.51100000000E-03 0. -1.
    9900012    2    1    2    0    0 -0.33473626853E+02  0.25397169688E+02  0.10868477534E+02  0.47787265827E+02  0.19999976213E+02 0.  0.
         12    1    1    2    0    0  0.33473626853E+02 -0.25397169688E+02 -0.10868477534E+02  0.43400734173E+02  0.00000000000E+00 0. -1.
         11    1    3    3    0    0  0.91102897726E+00 -0.11924165857E+01  0.15054139703E+01  0.21255828834E+01  0.51100000000E-03 0. -1.
        -11    1    3    3    0    0 -0.82788869021E+01  0.17060549580E+01  0.33798187597E+01  0.91035030053E+01  0.51100000000E-03 0.  1.
         12    1    3    3    0    0 -0.26105768928E+02  0.24883531315E+02  0.59832448043E+01  0.36558179939E+02  0.00000000000E+00 0. -1.
</event>
<event>
 7    1  0.2682317E-010  0.4778727E+02  0.7816164E-02  0.1312668E+00
        -11   -1    0    0    0    0  0.00000000000E+00  0.00000000000E+00  0.45593999997E+02  0.45594000000E+02  0.51100000000E-03 0.  1.
         11   -1    0    0    0    0 -0.00000000000E+00 -0.00000000000E+00 -0.45593999997E+02  0.45594000000E+02  0.51100000000E-03 0. -1.
    9900012    2    1    2    0    0  0.13499017091E+02  0.38695400925E+02  0.14285163994E+02  0.47787269298E+02  0.19999992036E+02 0.  0.
         12    1    1    2    0    0 -0.13499017091E+02 -0.38695400925E+02 -0.14285163994E+02  0.43400730702E+02  0.00000000000E+00 0. -1.
         11    1    3    3    0    0  0.51355596524E+01  0.72733983780E+01 -0.45261652419E+01  0.99881163873E+01  0.51100000000E-03 0.  1.
        -11    1    3    3    0    0  0.32535959689E+00  0.16048150799E+01  0.21719070390E+01  0.27200130065E+01  0.51100000000E-03 0. -1.
        -12    1    3    3    0    0  0.80380978418E+01  0.29817187467E+02  0.16639422196E+02  0.35079139904E+02  0.00000000000E+00 0.  1.
</event>
<event>
 7    1  0.2682317E-010  0.4778727E+02  0.7816164E-02  0.1312668E+00
        -11   -1    0    0    0    0  0.00000000000E+00  0.00000000000E+00  0.45593999997E+02  0.45594000000E+02  0.51100000000E-03 0.  1.
         11   -1    0    0    0    0 -0.00000000000E+00 -0.00000000000E+00 -0.45593999997E+02  0.45594000000E+02  0.51100000000E-03 0. -1.
    9900012    2    1    2    0    0 -0.40761035686E+02  0.11640505410E+02  0.93091419560E+01  0.47787268205E+02  0.19999987055E+02 0.  0.
         12    1    1    2    0    0  0.40761035686E+02 -0.11640505410E+02 -0.93091419560E+01  0.43400731795E+02  0.00000000000E+00 0. -1.
         11    1    3    3    0    0 -0.10581798581E+02 -0.75109758214E+00  0.70451971467E+01  0.12734732502E+02  0.51100000000E-03 0.  1.
        -11    1    3    3    0    0 -0.10613267766E+02 -0.11051567190E+01  0.35569656315E+01  0.11247881081E+02  0.51100000000E-03 0. -1.
         12    1    3    3    0    0 -0.19565969338E+02  0.13496759711E+02 -0.12930208222E+01  0.23804654623E+02  0.00000000000E+00 0. -1.
</event>
<event>
 7    1  0.2682317E-010  0.4778727E+02  0.7816164E-02  0.1312668E+00
        -11   -1    0    0    0    0  0.00000000000E+00  0.00000000000E+00  0.45593999997E+02  0.45594000000E+02  0.51100000000E-03 0. -1.
         11   -1    0    0    0    0 -0.00000000000E+00 -0.00000000000E+00 -0.45593999997E+02  0.45594000000E+02  0.51100000000E-03 0.  1.
    9900012    2    1    2    0    0 -0.20300613539E+01 -0.37380298154E+02 -0.21959398840E+02  0.47787273778E+02  0.20000012465E+02 0.  0.
         12    1    1    2    0    0  0.20300613539E+01  0.37380298154E+02  0.21959398840E+02  0.43400726222E+02  0.00000000000E+00 0. -1.
         11    1    3    3    0    0 -0.29643592011E+01 -0.92752336084E+01 -0.30064955425E+01  0.10190996010E+02  0.51100000000E-03 0. -1.
        -11    1    3    3    0    0  0.54045340398E+01 -0.25373536613E+02 -0.19317501246E+02  0.32344879085E+02  0.51100000000E-03 0.  1.
        -12    1    3    3    0    0 -0.44702361926E+01 -0.27315279327E+01  0.36459794828E+00  0.52513986831E+01  0.00000000000E+00 0.  1.
</event>
<event>
 7    1  0.2682317E-010  0.4778726E+02  0.7816164E-02  0.1312668E+00
        -11   -1    0    0    0    0  0.00000000000E+00  0.00000000000E+00  0.45593999997E+02  0.45594000000E+02  0.51100000000E-03 0.  1.
         11   -1    0    0    0    0 -0.00000000000E+00 -0.00000000000E+00 -0.45593999997E+02  0.45594000000E+02  0.51100000000E-03 0. -1.
    9900012    2    1    2    0    0 -0.67534247211E+01  0.42308931504E+02  0.69260020790E+01  0.47787263425E+02  0.19999965260E+02 0.  0.
         12    1    1    2    0    0  0.67534247211E+01 -0.42308931504E+02 -0.69260020790E+01  0.43400736575E+02  0.00000000000E+00 0. -1.
         11    1    3    3    0    0 -0.49206806475E+01  0.52613960840E+01  0.57444524679E+01  0.92138005842E+01  0.51100000000E-03 0. -1.
        -11    1    3    3    0    0 -0.57758842096E+01  0.13564107757E+02  0.55028543167E+00  0.14752920794E+02  0.51100000000E-03 0.  1.
         12    1    3    3    0    0  0.39431401360E+01  0.23483427663E+02  0.63126417947E+00  0.23820542047E+02  0.00000000000E+00 0. -1.
</event>
<event>
 7    1  0.2682317E-010  0.4778727E+02  0.7816164E-02  0.1312668E+00
        -11   -1    0    0    0    0  0.00000000000E+00  0.00000000000E+00  0.45593999997E+02  0.45594000000E+02  0.51100000000E-03 0.  1.
         11   -1    0    0    0    0 -0.00000000000E+00 -0.00000000000E+00 -0.45593999997E+02  0.45594000000E+02  0.51100000000E-03 0. -1.
    9900012    2    1    2    0    0 -0.29763343214E+02 -0.19859919235E+02  0.24563191708E+02  0.47787269843E+02  0.19999994522E+02 0.  0.
         12    1    1    2    0    0  0.29763343214E+02  0.19859919235E+02 -0.24563191708E+02  0.43400730157E+02  0.00000000000E+00 0. -1.
         11    1    3    3    0    0 -0.10113206226E+02 -0.82690243525E+01  0.13864588629E+02  0.19049423142E+02  0.51100000000E-03 0. -1.
        -11    1    3    3    0    0 -0.18194284885E+02 -0.14489834899E+02  0.10405639524E+02  0.25480672127E+02  0.51100000000E-03 0.  1.
         12    1    3    3    0    0 -0.14558521017E+01  0.28989400162E+01  0.29296355458E+00  0.32571745738E+01  0.00000000000E+00 0. -1.
</event>
<event>
 7    1  0.2682317E-010  0.4778727E+02  0.7816164E-02  0.1312668E+00
        -11   -1    0    0    0    0  0.00000000000E+00  0.00000000000E+00  0.45593999997E+02  0.45594000000E+02  0.51100000000E-03 0.  1.
         11   -1    0    0    0    0 -0.00000000000E+00 -0.00000000000E+00 -0.45593999997E+02  0.45594000000E+02  0.51100000000E-03 0. -1.
    9900012    2    1    2    0    0 -0.23606501910E+02 -0.42743951242E+01  0.36167469887E+02  0.47787271157E+02  0.20000000512E+02 0.  0.
         12    1    1    2    0    0  0.23606501910E+02  0.42743951242E+01 -0.36167469887E+02  0.43400728843E+02  0.00000000000E+00 0. -1.
         11    1    3    3    0    0 -0.16747768998E+01  0.13806010125E+01  0.11222246938E+02  0.11430212746E+02  0.51100000000E-03 0. -1.
        -11    1    3    3    0    0 -0.40778400186E+01 -0.61085250284E+01  0.12805232481E+02  0.14762006516E+02  0.51100000000E-03 0.  1.
        -12    1    3    3    0    0 -0.17853884992E+02  0.45352889169E+00  0.12139990468E+02  0.21595051894E+02  0.00000000000E+00 0.  1.
</event>
<event>
 7    1  0.2682317E-010  0.4778727E+02  0.7816164E-02  0.1312668E+00
        -11   -1    0    0    0    0  0.00000000000E+00  0.00000000000E+00  0.45593999997E+02  0.45594000000E+02  0.51100000000E-03 0. -1.
         11   -1    0    0    0    0 -0.00000000000E+00 -0.00000000000E+00 -0.45593999997E+02  0.45594000000E+02  0.51100000000E-03 0.  1.
    9900012    2    1    2    0    0  0.25989435722E+02  0.26498471767E+02 -0.22494520232E+02  0.47787271716E+02  0.20000003061E+02 0.  0.
         12    1    1    2    0    0 -0.25989435722E+02 -0.26498471767E+02  0.22494520232E+02  0.43400728284E+02  0.00000000000E+00 0. -1.
         11    1    3    3    0    0  0.35947182495E+01  0.37441786634E+01 -0.68929395326E+00  0.52360289888E+01  0.51100000000E-03 0. -1.
        -11    1    3    3    0    0  0.40374443171E+01  0.16694850483E+02 -0.11148316942E+02  0.20476912858E+02  0.51100000000E-03 0.  1.
        -12    1    3    3    0    0  0.18357273156E+02  0.60594426198E+01 -0.10656909336E+02  0.22074329869E+02  0.00000000000E+00 0.  1.
</event>
<event>
 7    1  0.2682317E-010  0.4778725E+02  0.7816164E-02  0.1312668E+00
        -11   -1    0    0    0    0  0.00000000000E+00  0.00000000000E+00  0.45593999997E+02  0.45594000000E+02  0.51100000000E-03 0. -1.
         11   -1    0    0    0    0 -0.00000000000E+00 -0.00000000000E+00 -0.45593999997E+02  0.45594000000E+02  0.51100000000E-03 0.  1.
    9900012    2    1    2    0    0  0.39102015434E+02  0.81492058991E+01 -0.16977857016E+02  0.47787253501E+02  0.19999920014E+02 0.  0.
         12    1    1    2    0    0 -0.39102015434E+02 -0.81492058991E+01  0.16977857016E+02  0.43400746499E+02  0.00000000000E+00 0. -1.
         11    1    3    3    0    0 -0.58786886148E+00 -0.11073951792E+01  0.24939055851E+00  0.12783230394E+01  0.51100000000E-03 0. -1.
        -11    1    3    3    0    0  0.36258779148E+02  0.10989060145E+02 -0.18872838002E+02  0.42327798462E+02  0.51100000000E-03 0.  1.
        -12    1    3    3    0    0  0.34311051476E+01 -0.17324590663E+01  0.16455904267E+01  0.41811320002E+01  0.00000000000E+00 0.  1.
</event>
<event>
 7    1  0.2682317E-010  0.4778727E+02  0.7816164E-02  0.1312668E+00
        -11   -1    0    0    0    0  0.00000000000E+00  0.00000000000E+00  0.45593999997E+02  0.45594000000E+02  0.51100000000E-03 0. -1.
         11   -1    0    0    0    0 -0.00000000000E+00 -0.00000000000E+00 -0.45593999997E+02  0.45594000000E+02  0.51100000000E-03 0.  1.
    9900012    2    1    2    0    0 -0.35158705080E+02 -0.13067932551E+02 -0.21833876959E+02  0.47787267435E+02  0.19999983545E+02 0.  0.
         12    1    1    2    0    0  0.35158705080E+02  0.13067932551E+02  0.21833876959E+02  0.43400732565E+02  0.00000000000E+00 0. -1.
         11    1    3    3    0    0  0.47651998773E+00 -0.36371475009E+01 -0.21473601453E+01  0.42505375068E+01  0.51100000000E-03 0. -1.
        -11    1    3    3    0    0  0.38937780202E+00  0.11391680659E+01 -0.14613836889E+00  0.12127141622E+01  0.51100000000E-03 0.  1.
        -12    1    3    3    0    0 -0.36024602870E+02 -0.10569953116E+02 -0.19540378445E+02  0.42324015766E+02  0.00000000000E+00 0.  1.
</event>
<event>
 7    1  0.2682317E-010  0.4778729E+02  0.7816164E-02  0.1312668E+00
        -11   -1    0    0    0    0  0.00000000000E+00  0.00000000000E+00  0.45593999997E+02  0.45594000000E+02  0.51100000000E-03 0.  1.
         11   -1    0    0    0    0 -0.00000000000E+00 -0.00000000000E+00 -0.45593999997E+02  0.45594000000E+02  0.51100000000E-03 0. -1.
    9900012    2    1    2    0    0 -0.77476792327E+01  0.77307374734E+00  0.42696577250E+02  0.47787287041E+02  0.20000072933E+02 0.  0.
         12    1    1    2    0    0  0.77476792327E+01 -0.77307374734E+00 -0.42696577250E+02  0.43400712959E+02  0.00000000000E+00 0. -1.
         11    1    3    3    0    0 -0.70512457070E+01  0.76842051775E+00  0.26264512498E+02  0.27205425068E+02  0.51100000000E-03 0. -1.
        -11    1    3    3    0    0 -0.42457365053E+01 -0.38886367170E+01  0.13200409832E+02  0.14401340007E+02  0.51100000000E-03 0.  1.
         12    1    3    3    0    0  0.35493029796E+01  0.38932899466E+01  0.32316549193E+01  0.61805219656E+01  0.00000000000E+00 0. -1.
</event>
<event>
 7    1  0.2682317E-010  0.4778727E+02  0.7816164E-02  0.1312668E+00
        -11   -1    0    0    0    0  0.00000000000E+00  0.00000000000E+00  0.45593999997E+02  0.45594000000E+02  0.51100000000E-03 0.  1.
         11   -1    0    0    0    0 -0.00000000000E+00 -0.00000000000E+00 -0.45593999997E+02  0.45594000000E+02  0.51100000000E-03 0. -1.
    9900012    2    1    2    0    0 -0.13410284687E+02  0.38406892546E+02  0.15122771748E+02  0.47787270101E+02  0.19999995700E+02 0.  0.
         12    1    1    2    0    0  0.13410284687E+02 -0.38406892546E+02 -0.15122771748E+02  0.43400729899E+02  0.00000000000E+00 0. -1.
         11    1    3    3    0    0 -0.94976029503E+01  0.13966615719E+02  0.74176539107E+01  0.18447016188E+02  0.51100000000E-03 0. -1.
        -11    1    3    3    0    0 -0.12577064722E+00 -0.17834764364E+01  0.80481619009E+00  0.19606977880E+01  0.51100000000E-03 0.  1.
        -12    1    3    3    0    0 -0.37869110895E+01  0.26223753263E+02  0.69003016473E+01  0.27379556125E+02  0.00000000000E+00 0.  1.
</event>
<event>
 7    1  0.2682317E-010  0.4778727E+02  0.7816164E-02  0.1312668E+00
        -11   -1    0    0    0    0  0.00000000000E+00  0.00000000000E+00  0.45593999997E+02  0.45594000000E+02  0.51100000000E-03 0. -1.
         11   -1    0    0    0    0 -0.00000000000E+00 -0.00000000000E+00 -0.45593999997E+02  0.45594000000E+02  0.51100000000E-03 0.  1.
    9900012    2    1    2    0    0 -0.27443296453E+01 -0.43101531346E+01 -0.43098888675E+02  0.47787274542E+02  0.20000015949E+02 0.  0.
         12    1    1    2    0    0  0.27443296453E+01  0.43101531346E+01  0.43098888675E+02  0.43400725458E+02  0.00000000000E+00 0. -1.
         11    1    3    3    0    0 -0.69117731638E+01 -0.96006257521E-01 -0.15625680760E+02  0.17086360787E+02  0.51100000000E-03 0. -1.
        -11    1    3    3    0    0  0.46905923715E+00 -0.60306226079E+01 -0.25357718914E+02  0.26069183616E+02  0.51100000000E-03 0.  1.
        -12    1    3    3    0    0  0.36983842813E+01  0.18164757308E+01 -0.21154890004E+01  0.46317301394E+01  0.00000000000E+00 0.  1.
</event>
<event>
 7    1  0.2682317E-010  0.4778726E+02  0.7816164E-02  0.1312668E+00
        -11   -1    0    0    0    0  0.00000000000E+00  0.00000000000E+00  0.45593999997E+02  0.45594000000E+02  0.51100000000E-03 0.  1.
         11   -1    0    0    0    0 -0.00000000000E+00 -0.00000000000E+00 -0.45593999997E+02  0.45594000000E+02  0.51100000000E-03 0. -1.
    9900012    2    1    2    0    0 -0.14857798001E+01  0.28757254693E+02  0.32472089121E+02  0.47787264857E+02  0.19999971787E+02 0.  0.
         12    1    1    2    0    0  0.14857798001E+01 -0.28757254693E+02 -0.32472089121E+02  0.43400735143E+02  0.00000000000E+00 0. -1.
         11    1    3    3    0    0  0.75674697270E-01  0.13892591021E+02  0.95295922771E+01  0.16847045473E+02  0.51100000000E-03 0. -1.
        -11    1    3    3    0    0  0.40128083616E+01  0.11017206195E+02  0.70919312337E+01  0.13703173070E+02  0.51100000000E-03 0.  1.
        -12    1    3    3    0    0 -0.55742628590E+01  0.38474574768E+01  0.15850565610E+02  0.17237046314E+02  0.00000000000E+00 0.  1.
</event>
<event>
 7    1  0.2682317E-010  0.4778728E+02  0.7816164E-02  0.1312668E+00
        -11   -1    0    0    0    0  0.00000000000E+00  0.00000000000E+00  0.45593999997E+02  0.45594000000E+02  0.51100000000E-03 0.  1.
         11   -1    0    0    0    0 -0.00000000000E+00 -0.00000000000E+00 -0.45593999997E+02  0.45594000000E+02  0.51100000000E-03 0. -1.
    9900012    2    1    2    0    0  0.21989830461E+02  0.34615781545E+02  0.14206262703E+02  0.47787275632E+02  0.20000020917E+02 0.  0.
         12    1    1    2    0    0 -0.21989830461E+02 -0.34615781545E+02 -0.14206262703E+02  0.43400724368E+02  0.00000000000E+00 0. -1.
         11    1    3    3    0    0  0.97300510060E+01  0.24608736801E+02  0.96338197911E+01  0.28161574948E+02  0.51100000000E-03 0. -1.
        -11    1    3    3    0    0  0.11572063829E+02  0.11448660234E+02  0.61304253368E+01  0.17394441569E+02  0.51100000000E-03 0.  1.
         12    1    3    3    0    0  0.68771562591E+00 -0.14416154902E+01 -0.15579824248E+01  0.22312591153E+01  0.00000000000E+00 0. -1.
</event>
<event>
 7    1  0.2682317E-010  0.4778727E+02  0.7816164E-02  0.1312668E+00
        -11   -1    0    0    0    0  0.00000000000E+00  0.00000000000E+00  0.45593999997E+02  0.45594000000E+02  0.51100000000E-03 0.  1.
         11   -1    0    0    0    0 -0.00000000000E+00 -0.00000000000E+00 -0.45593999997E+02  0.45594000000E+02  0.51100000000E-03 0. -1.
    9900012    2    1    2    0    0 -0.30623329101E+02 -0.27377506099E+02  0.14010968319E+02  0.47787270068E+02  0.19999995547E+02 0.  0.
         12    1    1    2    0    0  0.30623329101E+02  0.27377506099E+02 -0.14010968319E+02  0.43400729932E+02  0.00000000000E+00 0. -1.
         11    1    3    3    0    0 -0.10043479297E+02 -0.48293359462E+01 -0.25140871693E+01  0.11424298518E+02  0.51100000000E-03 0. -1.
        -11    1    3    3    0    0 -0.75297527018E+01 -0.63477940627E+01  0.85969481386E-01  0.98488098888E+01  0.51100000000E-03 0.  1.
         12    1    3    3    0    0 -0.13050097102E+02 -0.16200376090E+02  0.16439086007E+02  0.26514161661E+02  0.00000000000E+00 0. -1.
</event>
<event>
 7    1  0.2682317E-010  0.4778727E+02  0.7816164E-02  0.1312668E+00
        -11   -1    0    0    0    0  0.00000000000E+00  0.00000000000E+00  0.45593999997E+02  0.45594000000E+02  0.51100000000E-03 0. -1.
         11   -1    0    0    0    0 -0.00000000000E+00 -0.00000000000E+00 -0.45593999997E+02  0.45594000000E+02  0.51100000000E-03 0.  1.
    9900012    2    1    2    0    0 -0.94029978673E+01 -0.37010354845E+02 -0.20626209829E+02  0.47787271129E+02  0.20000000385E+02 0.  0.
         12    1    1    2    0    0  0.94029978673E+01  0.37010354845E+02  0.20626209829E+02  0.43400728871E+02  0.00000000000E+00 0. -1.
         11    1    3    3    0    0 -0.39939793127E+01 -0.26704813061E+02 -0.19701231369E+02  0.33425101782E+02  0.51100000000E-03 0. -1.
        -11    1    3    3    0    0 -0.19159736153E+01 -0.10609072660E+02 -0.11888438924E+01  0.10846046638E+02  0.51100000000E-03 0.  1.
        -12    1    3    3    0    0 -0.34930449393E+01  0.30353087677E+00  0.26386543289E+00  0.35161227094E+01  0.00000000000E+00 0.  1.
</event>
<event>
 7    1  0.2682317E-010  0.4778727E+02  0.7816164E-02  0.1312668E+00
        -11   -1    0    0    0    0  0.00000000000E+00  0.00000000000E+00  0.45593999997E+02  0.45594000000E+02  0.51100000000E-03 0.  1.
         11   -1    0    0    0    0 -0.00000000000E+00 -0.00000000000E+00 -0.45593999997E+02  0.45594000000E+02  0.51100000000E-03 0. -1.
    9900012    2    1    2    0    0 -0.72562905791E+01  0.24663242622E+02  0.34967039200E+02  0.47787272817E+02  0.20000008082E+02 0.  0.
         12    1    1    2    0    0  0.72562905791E+01 -0.24663242622E+02 -0.34967039200E+02  0.43400727183E+02  0.00000000000E+00 0. -1.
         11    1    3    3    0    0 -0.44855728240E+01  0.56144210601E+01  0.27287052705E+01  0.76868667294E+01  0.51100000000E-03 0. -1.
        -11    1    3    3    0    0  0.44542846153E+01  0.10229014172E+02  0.94580454435E+01  0.14626277935E+02  0.51100000000E-03 0.  1.
        -12    1    3    3    0    0 -0.72250023703E+01  0.88198073903E+01  0.22780288486E+02  0.25474128153E+02  0.00000000000E+00 0.  1.
</event>
<event>
 7    1  0.2682317E-010  0.4778727E+02  0.7816164E-02  0.1312668E+00
        -11   -1    0    0    0    0  0.00000000000E+00  0.00000000000E+00  0.45593999997E+02  0.45594000000E+02  0.51100000000E-03 0.  1.
         11   -1    0    0    0    0 -0.00000000000E+00 -0.00000000000E+00 -0.45593999997E+02  0.45594000000E+02  0.51100000000E-03 0. -1.
    9900012    2    1    2    0    0  0.25177108876E+02  0.15903360513E+02  0.31572448713E+02  0.47787271841E+02  0.20000003634E+02 0.  0.
         12    1    1    2    0    0 -0.25177108876E+02 -0.15903360513E+02 -0.31572448713E+02  0.43400728159E+02  0.00000000000E+00 0. -1.
         11    1    3    3    0    0  0.10809937497E+02  0.33391714027E+01  0.73503553952E+01  0.13491943487E+02  0.51100000000E-03 0. -1.
        -11    1    3    3    0    0  0.26436907425E+01 -0.33811665240E+01  0.61134156181E+01  0.74696210470E+01  0.51100000000E-03 0.  1.
        -12    1    3    3    0    0  0.11723480636E+02  0.15945355634E+02  0.18108677700E+02  0.26825707308E+02  0.00000000000E+00 0.  1.
</event>
<event>
 7    1  0.2682317E-010  0.4778728E+02  0.7816164E-02  0.1312668E+00
        -11   -1    0    0    0    0  0.00000000000E+00  0.00000000000E+00  0.45593999997E+02  0.45594000000E+02  0.51100000000E-03 0. -1.
         11   -1    0    0    0    0 -0.00000000000E+00 -0.00000000000E+00 -0.45593999997E+02  0.45594000000E+02  0.51100000000E-03 0.  1.
    9900012    2    1    2    0    0  0.27314015149E+02 -0.32186672767E+02  0.10078950906E+02  0.47787279053E+02  0.20000036513E+02 0.  0.
         12    1    1    2    0    0 -0.27314015149E+02  0.32186672767E+02 -0.10078950906E+02  0.43400720947E+02  0.00000000000E+00 0. -1.
         11    1    3    3    0    0  0.79321571512E+01 -0.16661086826E+02  0.52373823199E+01  0.19181790978E+02  0.51100000000E-03 0. -1.
        -11    1    3    3    0    0  0.18770068154E+02 -0.17110463136E+02  0.65150879131E+01  0.26220789043E+02  0.51100000000E-03 0.  1.
         12    1    3    3    0    0  0.61178984429E+00  0.15848771953E+01 -0.16735193268E+01  0.23846990324E+01  0.00000000000E+00 0. -1.
</event>
<event>
 7    1  0.2682317E-010  0.4778727E+02  0.7816164E-02  0.1312668E+00
        -11   -1    0    0    0    0  0.00000000000E+00  0.00000000000E+00  0.45593999997E+02  0.45594000000E+02  0.51100000000E-03 0. -1.
         11   -1    0    0    0    0 -0.00000000000E+00 -0.00000000000E+00 -0.45593999997E+02  0.45594000000E+02  0.51100000000E-03 0.  1.
    9900012    2    1    2    0    0  0.14435133616E+02  0.22999271218E+01 -0.40865151291E+02  0.47787270314E+02  0.19999996668E+02 0.  0.
         12    1    1    2    0    0 -0.14435133616E+02 -0.22999271218E+01  0.40865151291E+02  0.43400729686E+02  0.00000000000E+00 0. -1.
         11    1    3    3    0    0  0.16412851133E+02  0.99271272567E+00 -0.24383645616E+02  0.29409680968E+02  0.51100000000E-03 0. -1.
        -11    1    3    3    0    0  0.22065415860E+01  0.37453608262E+00 -0.11878354508E+02  0.12087365681E+02  0.51100000000E-03 0.  1.
        -12    1    3    3    0    0 -0.41842591027E+01  0.93267831354E+00 -0.46031511670E+01  0.62902236639E+01  0.00000000000E+00 0.  1.
</event>
<event>
 7    1  0.2682317E-010  0.4778723E+02  0.7816164E-02  0.1312668E+00
        -11   -1    0    0    0    0  0.00000000000E+00  0.00000000000E+00  0.45593999997E+02  0.45594000000E+02  0.51100000000E-03 0.  1.
         11   -1    0    0    0    0 -0.00000000000E+00 -0.00000000000E+00 -0.45593999997E+02  0.45594000000E+02  0.51100000000E-03 0. -1.
    9900012    2    1    2    0    0 -0.37085853578E+02 -0.71934449263E+01  0.21366350295E+02  0.47787226845E+02  0.19999798476E+02 0.  0.
         12    1    1    2    0    0  0.37085853578E+02  0.71934449263E+01 -0.21366350295E+02  0.43400773155E+02  0.00000000000E+00 0. -1.
         11    1    3    3    0    0 -0.97752428693E+01 -0.44932803081E+00  0.44617058573E+01  0.10754723997E+02  0.51100000000E-03 0.  1.
        -11    1    3    3    0    0 -0.46693901589E+01  0.53677690724E+01  0.52060573325E+01  0.88158483699E+01  0.51100000000E-03 0. -1.
         12    1    3    3    0    0 -0.22641220550E+02 -0.12111885968E+02  0.11698587105E+02  0.28216654478E+02  0.00000000000E+00 0. -1.
</event>
<event>
 7    1  0.2682317E-010  0.4778727E+02  0.7816164E-02  0.1312668E+00
        -11   -1    0    0    0    0  0.00000000000E+00  0.00000000000E+00  0.45593999997E+02  0.45594000000E+02  0.51100000000E-03 0.  1.
         11   -1    0    0    0    0 -0.00000000000E+00 -0.00000000000E+00 -0.45593999997E+02  0.45594000000E+02  0.51100000000E-03 0. -1.
    9900012    2    1    2    0    0  0.25439788866E+02 -0.46554499151E+01  0.34853512719E+02  0.47787269357E+02  0.19999992306E+02 0.  0.
         12    1    1    2    0    0 -0.25439788866E+02  0.46554499151E+01 -0.34853512719E+02  0.43400730643E+02  0.00000000000E+00 0. -1.
         11    1    3    3    0    0  0.13704505216E+02 -0.24170698247E+01  0.20275807354E+02  0.24591950998E+02  0.51100000000E-03 0. -1.
        -11    1    3    3    0    0  0.36048807769E+01  0.37499253496E+01  0.11527897947E+02  0.12647115753E+02  0.51100000000E-03 0.  1.
         12    1    3    3    0    0  0.81304028734E+01 -0.59883054399E+01  0.30498074182E+01  0.10548202606E+02  0.00000000000E+00 0. -1.
</event>
<event>
 7    1  0.2682317E-010  0.4778727E+02  0.7816164E-02  0.1312668E+00
        -11   -1    0    0    0    0  0.00000000000E+00  0.00000000000E+00  0.45593999997E+02  0.45594000000E+02  0.51100000000E-03 0.  1.
         11   -1    0    0    0    0 -0.00000000000E+00 -0.00000000000E+00 -0.45593999997E+02  0.45594000000E+02  0.51100000000E-03 0. -1.
    9900012    2    1    2    0    0 -0.42706651618E+02  0.77170236800E+01  0.46109756295E+00  0.47787272381E+02  0.20000006096E+02 0.  0.
         12    1    1    2    0    0  0.42706651618E+02 -0.77170236800E+01 -0.46109756295E+00  0.43400727619E+02  0.00000000000E+00 0. -1.
         11    1    3    3    0    0 -0.44546094857E+01 -0.51398539612E+01 -0.18079366053E+01  0.70377751770E+01  0.51100000000E-03 0. -1.
        -11    1    3    3    0    0 -0.10231277851E+02  0.13508511236E+01  0.16566215494E+01  0.10452188308E+02  0.51100000000E-03 0.  1.
         12    1    3    3    0    0 -0.28020764281E+02  0.11506026518E+02  0.61241261888E+00  0.30297308896E+02  0.00000000000E+00 0. -1.
</event>
<event>
 7    1  0.2682317E-010  0.4778734E+02  0.7816164E-02  0.1312667E+00
        -11   -1    0    0    0    0  0.00000000000E+00  0.00000000000E+00  0.45593999997E+02  0.45594000000E+02  0.51100000000E-03 0.  1.
         11   -1    0    0    0    0 -0.00000000000E+00 -0.00000000000E+00 -0.45593999997E+02  0.45594000000E+02  0.51100000000E-03 0. -1.
    9900012    2    1    2    0    0  0.36107917786E+02  0.10184641237E+01  0.24058233757E+02  0.47787336324E+02  0.20000297633E+02 0.  0.
         12    1    1    2    0    0 -0.36107917786E+02 -0.10184641237E+01 -0.24058233757E+02  0.43400663676E+02  0.00000000000E+00 0. -1.
         11    1    3    3    0    0  0.16269025369E+02  0.33088307320E+01  0.11836614238E+02  0.20389580283E+02  0.51100000000E-03 0. -1.
        -11    1    3    3    0    0  0.60737666493E+01 -0.11125840518E+01  0.12096944139E+02  0.13581772430E+02  0.51100000000E-03 0.  1.
         12    1    3    3    0    0  0.13765125768E+02 -0.11777825565E+01  0.12467538015E+00  0.13815983610E+02  0.00000000000E+00 0. -1.
</event>
<event>
 7    1  0.2682317E-010  0.4778723E+02  0.7816164E-02  0.1312668E+00
        -11   -1    0    0    0    0  0.00000000000E+00  0.00000000000E+00  0.45593999997E+02  0.45594000000E+02  0.51100000000E-03 0. -1.
         11   -1    0    0    0    0 -0.00000000000E+00 -0.00000000000E+00 -0.45593999997E+02  0.45594000000E+02  0.51100000000E-03 0.  1.
    9900012    2    1    2    0    0  0.20382898794E+02 -0.35479776710E+02  0.14468918346E+02  0.47787231381E+02  0.19999819157E+02 0.  0.
         12    1    1    2    0    0 -0.20382898794E+02  0.35479776710E+02 -0.14468918346E+02  0.43400768619E+02  0.00000000000E+00 0. -1.
         11    1    3    3    0    0  0.39576243089E+01 -0.96148210210E+01  0.31955540624E+01  0.10877460157E+02  0.51100000000E-03 0. -1.
        -11    1    3    3    0    0  0.19504873434E+02 -0.25383428265E+02  0.10596708615E+02  0.33720153498E+02  0.51100000000E-03 0.  1.
         12    1    3    3    0    0 -0.30795989490E+01 -0.48152742374E+00  0.67665566860E+00  0.31896177264E+01  0.00000000000E+00 0. -1.
</event>
<event>
 7    1  0.2682317E-010  0.4778727E+02  0.7816164E-02  0.1312668E+00
        -11   -1    0    0    0    0  0.00000000000E+00  0.00000000000E+00  0.45593999997E+02  0.45594000000E+02  0.51100000000E-03 0.  1.
         11   -1    0    0    0    0 -0.00000000000E+00 -0.00000000000E+00 -0.45593999997E+02  0.45594000000E+02  0.51100000000E-03 0. -1.
    9900012    2    1    2    0    0 -0.17934140150E+02 -0.11442587090E+02  0.37829319482E+02  0.47787267348E+02  0.19999983147E+02 0.  0.
         12    1    1    2    0    0  0.17934140150E+02  0.11442587090E+02 -0.37829319482E+02  0.43400732652E+02  0.00000000000E+00 0. -1.
         11    1    3    3    0    0 -0.11484962371E+02 -0.28813253217E+01  0.22749077135E+02  0.25646186988E+02  0.51100000000E-03 0. -1.
        -11    1    3    3    0    0 -0.88538632878E+01 -0.89346129354E+01  0.15169262317E+02  0.19705956535E+02  0.51100000000E-03 0.  1.
         12    1    3    3    0    0  0.24046855086E+01  0.37335116702E+00 -0.89019970795E-01  0.24351238252E+01  0.00000000000E+00 0. -1.
</event>
<event>
 7    1  0.2682317E-010  0.4778728E+02  0.7816164E-02  0.1312668E+00
        -11   -1    0    0    0    0  0.00000000000E+00  0.00000000000E+00  0.45593999997E+02  0.45594000000E+02  0.51100000000E-03 0.  1.
         11   -1    0    0    0    0 -0.00000000000E+00 -0.00000000000E+00 -0.45593999997E+02  0.45594000000E+02  0.51100000000E-03 0. -1.
    9900012    2    1    2    0    0  0.27490181284E+02 -0.42212685923E+01  0.33318056884E+02  0.47787284682E+02  0.20000062178E+02 0.  0.
         12    1    1    2    0    0 -0.27490181284E+02  0.42212685923E+01 -0.33318056884E+02  0.43400715318E+02  0.00000000000E+00 0. -1.
         11    1    3    3    0    0  0.40828080562E+00 -0.26375053765E+01  0.54443140446E+00  0.27238820904E+01  0.51100000000E-03 0. -1.
        -11    1    3    3    0    0  0.93122355228E+00 -0.17380126026E+01  0.10585897638E+02  0.10767966111E+02  0.51100000000E-03 0.  1.
         12    1    3    3    0    0  0.26150676926E+02  0.15424938672E+00  0.22187727842E+02  0.34295436480E+02  0.00000000000E+00 0. -1.
</event>
<event>
 7    1  0.2682317E-010  0.4778727E+02  0.7816164E-02  0.1312668E+00
        -11   -1    0    0    0    0  0.00000000000E+00  0.00000000000E+00  0.45593999997E+02  0.45594000000E+02  0.51100000000E-03 0.  1.
         11   -1    0    0    0    0 -0.00000000000E+00 -0.00000000000E+00 -0.45593999997E+02  0.45594000000E+02  0.51100000000E-03 0. -1.
    9900012    2    1    2    0    0 -0.13765009533E+02 -0.95183801088E+01  0.40044326603E+02  0.47787272582E+02  0.20000007011E+02 0.  0.
         12    1    1    2    0    0  0.13765009533E+02  0.95183801088E+01 -0.40044326603E+02  0.43400727418E+02  0.00000000000E+00 0. -1.
         11    1    3    3    0    0  0.45914996179E+00 -0.18375566771E+01  0.17491810637E+02  0.17594057885E+02  0.51100000000E-03 0. -1.
        -11    1    3    3    0    0 -0.11040941109E+02 -0.46965293827E+01  0.22861686864E+02  0.25818917393E+02  0.51100000000E-03 0.  1.
         12    1    3    3    0    0 -0.31832183856E+01 -0.29842940489E+01 -0.30917089851E+00  0.43742973041E+01  0.00000000000E+00 0. -1.
</event>
<event>
 7    1  0.2682317E-010  0.4778727E+02  0.7816164E-02  0.1312668E+00
        -11   -1    0    0    0    0  0.00000000000E+00  0.00000000000E+00  0.45593999997E+02  0.45594000000E+02  0.51100000000E-03 0.  1.
         11   -1    0    0    0    0 -0.00000000000E+00 -0.00000000000E+00 -0.45593999997E+02  0.45594000000E+02  0.51100000000E-03 0. -1.
    9900012    2    1    2    0    0 -0.54951219790E+01  0.15048124504E+02  0.40335854713E+02  0.47787267378E+02  0.19999983286E+02 0.  0.
         12    1    1    2    0    0  0.54951219790E+01 -0.15048124504E+02 -0.40335854713E+02  0.43400732622E+02  0.00000000000E+00 0. -1.
         11    1    3    3    0    0  0.18934971516E+01  0.37246637169E+01  0.31022436846E+01  0.52040721946E+01  0.51100000000E-03 0. -1.
        -11    1    3    3    0    0 -0.25729448086E+00  0.12593542196E+02  0.28996215175E+02  0.31613984251E+02  0.51100000000E-03 0.  1.
         12    1    3    3    0    0 -0.71313246498E+01 -0.12700814085E+01  0.82373958533E+01  0.10969210933E+02  0.00000000000E+00 0. -1.
</event>
<event>
 7    1  0.2682317E-010  0.4778728E+02  0.7816164E-02  0.1312668E+00
        -11   -1    0    0    0    0  0.00000000000E+00  0.00000000000E+00  0.45593999997E+02  0.45594000000E+02  0.51100000000E-03 0.  1.
         11   -1    0    0    0    0 -0.00000000000E+00 -0.00000000000E+00 -0.45593999997E+02  0.45594000000E+02  0.51100000000E-03 0. -1.
    9900012    2    1    2    0    0 -0.16332776059E+02  0.35344820682E+02  0.19173059185E+02  0.47787284322E+02  0.20000060536E+02 0.  0.
         12    1    1    2    0    0  0.16332776059E+02 -0.35344820682E+02 -0.19173059185E+02  0.43400715678E+02  0.00000000000E+00 0. -1.
         11    1    3    3    0    0  0.80351536303E+00  0.87700374231E+01  0.46828982936E+01  0.99744037431E+01  0.51100000000E-03 0. -1.
        -11    1    3    3    0    0 -0.11202601061E+02  0.22875222209E+02  0.16725716028E+02  0.30471685851E+02  0.51100000000E-03 0.  1.
        -12    1    3    3    0    0 -0.59336903609E+01  0.36995610500E+01 -0.22355551370E+01  0.73411947278E+01  0.00000000000E+00 0.  1.
</event>
<event>
 7    1  0.2682317E-010  0.4778728E+02  0.7816164E-02  0.1312668E+00
        -11   -1    0    0    0    0  0.00000000000E+00  0.00000000000E+00  0.45593999997E+02  0.45594000000E+02  0.51100000000E-03 0.  1.
         11   -1    0    0    0    0 -0.00000000000E+00 -0.00000000000E+00 -0.45593999997E+02  0.45594000000E+02  0.51100000000E-03 0. -1.
    9900012    2    1    2    0    0 -0.10495039926E+02  0.19370473197E+02  0.37393331043E+02  0.47787282248E+02  0.20000051081E+02 0.  0.
         12    1    1    2    0    0  0.10495039926E+02 -0.19370473197E+02 -0.37393331043E+02  0.43400717752E+02  0.00000000000E+00 0. -1.
         11    1    3    3    0    0 -0.22259404916E+01 -0.24705519598E+00  0.16612351114E+01  0.27884672669E+01  0.51100000000E-03 0. -1.
        -11    1    3    3    0    0 -0.85547066959E+01  0.14655333693E+02  0.36226366107E+02  0.40003892484E+02  0.51100000000E-03 0.  1.
        -12    1    3    3    0    0  0.28560726129E+00  0.49621946994E+01 -0.49427017543E+00  0.49949224967E+01  0.00000000000E+00 0.  1.
</event>
<event>
 7    1  0.2682317E-010  0.4778727E+02  0.7816164E-02  0.1312668E+00
        -11   -1    0    0    0    0  0.00000000000E+00  0.00000000000E+00  0.45593999997E+02  0.45594000000E+02  0.51100000000E-03 0.  1.
         11   -1    0    0    0    0 -0.00000000000E+00 -0.00000000000E+00 -0.45593999997E+02  0.45594000000E+02  0.51100000000E-03 0. -1.
    9900012    2    1    2    0    0  0.21053828542E+02 -0.36335049687E+01  0.37777735180E+02  0.47787270398E+02  0.19999997052E+02 0.  0.
         12    1    1    2    0    0 -0.21053828542E+02  0.36335049687E+01 -0.37777735180E+02  0.43400729602E+02  0.00000000000E+00 0. -1.
         11    1    3    3    0    0  0.51287672464E+01  0.28611918288E+01  0.10383036005E+02  0.11928877110E+02  0.51100000000E-03 0. -1.
        -11    1    3    3    0    0 -0.77398097070E+00  0.88654344267E+00  0.11767266254E+02  0.11825969778E+02  0.51100000000E-03 0.  1.
         12    1    3    3    0    0  0.16699042267E+02 -0.73812402401E+01  0.15627432921E+02  0.24032423511E+02  0.00000000000E+00 0. -1.
</event>
<event>
 7    1  0.2682317E-010  0.4778727E+02  0.7816164E-02  0.1312668E+00
        -11   -1    0    0    0    0  0.00000000000E+00  0.00000000000E+00  0.45593999997E+02  0.45594000000E+02  0.51100000000E-03 0. -1.
         11   -1    0    0    0    0 -0.00000000000E+00 -0.00000000000E+00 -0.45593999997E+02  0.45594000000E+02  0.51100000000E-03 0.  1.
    9900012    2    1    2    0    0 -0.42743490107E+02  0.75226787255E+01  0.16308474701E+00  0.47787271454E+02  0.20000001865E+02 0.  0.
         12    1    1    2    0    0  0.42743490107E+02 -0.75226787255E+01 -0.16308474701E+00  0.43400728546E+02  0.00000000000E+00 0. -1.
         11    1    3    3    0    0  0.30508124892E+00 -0.52838807775E+00  0.15698063261E+01  0.16842092185E+01  0.51100000000E-03 0. -1.
        -11    1    3    3    0    0 -0.74884216408E+01  0.73609091825E+01 -0.80272208405E+00  0.10531087582E+02  0.51100000000E-03 0.  1.
         12    1    3    3    0    0 -0.35560149715E+02  0.69015762074E+00 -0.60399949499E+00  0.35571974653E+02  0.00000000000E+00 0. -1.
</event>
<event>
 7    1  0.2682317E-010  0.4778727E+02  0.7816164E-02  0.1312668E+00
        -11   -1    0    0    0    0  0.00000000000E+00  0.00000000000E+00  0.45593999997E+02  0.45594000000E+02  0.51100000000E-03 0.  1.
         11   -1    0    0    0    0 -0.00000000000E+00 -0.00000000000E+00 -0.45593999997E+02  0.45594000000E+02  0.51100000000E-03 0. -1.
    9900012    2    1    2    0    0  0.24570509630E+02 -0.15408956262E+02  0.32287416823E+02  0.47787272337E+02  0.20000005893E+02 0.  0.
         12    1    1    2    0    0 -0.24570509630E+02  0.15408956262E+02 -0.32287416823E+02  0.43400727663E+02  0.00000000000E+00 0. -1.
         11    1    3    3    0    0  0.12172410773E+02 -0.11836748986E+02  0.92011264250E+01  0.19311575242E+02  0.51100000000E-03 0. -1.
        -11    1    3    3    0    0  0.16212893176E+01  0.32388246517E+01  0.30891616670E+01  0.47604079911E+01  0.51100000000E-03 0.  1.
        -12    1    3    3    0    0  0.10776809539E+02 -0.68110319282E+01  0.19997128731E+02  0.23715289103E+02  0.00000000000E+00 0.  1.
</event>
<event>
 7    1  0.2682317E-010  0.4778727E+02  0.7816164E-02  0.1312668E+00
        -11   -1    0    0    0    0  0.00000000000E+00  0.00000000000E+00  0.45593999997E+02  0.45594000000E+02  0.51100000000E-03 0.  1.
         11   -1    0    0    0    0 -0.00000000000E+00 -0.00000000000E+00 -0.45593999997E+02  0.45594000000E+02  0.51100000000E-03 0. -1.
    9900012    2    1    2    0    0 -0.38140200187E+02  0.37848567588E+01  0.20362294220E+02  0.47787273775E+02  0.20000012448E+02 0.  0.
         12    1    1    2    0    0  0.38140200187E+02 -0.37848567588E+01 -0.20362294220E+02  0.43400726225E+02  0.00000000000E+00 0. -1.
         11    1    3    3    0    0 -0.86658400577E+01  0.66071285959E+01  0.77741785133E+01  0.13386141491E+02  0.51100000000E-03 0. -1.
        -11    1    3    3    0    0 -0.91379010605E+01  0.35774376261E+01  0.35179225597E+00  0.98195241133E+01  0.51100000000E-03 0.  1.
         12    1    3    3    0    0 -0.20336459069E+02 -0.63997094632E+01  0.12236323451E+02  0.24581608171E+02  0.00000000000E+00 0. -1.
</event>
<event>
 7    1  0.2682317E-010  0.4778727E+02  0.7816164E-02  0.1312668E+00
        -11   -1    0    0    0    0  0.00000000000E+00  0.00000000000E+00  0.45593999997E+02  0.45594000000E+02  0.51100000000E-03 0.  1.
         11   -1    0    0    0    0 -0.00000000000E+00 -0.00000000000E+00 -0.45593999997E+02  0.45594000000E+02  0.51100000000E-03 0. -1.
    9900012    2    1    2    0    0 -0.31307611292E+02 -0.29423956545E+02  0.61390501233E+01  0.47787266366E+02  0.19999978669E+02 0.  0.
         12    1    1    2    0    0  0.31307611292E+02  0.29423956545E+02 -0.61390501233E+01  0.43400733634E+02  0.00000000000E+00 0. -1.
         11    1    3    3    0    0 -0.18076159478E+02 -0.87110633458E+01  0.37192165502E+01  0.20407418702E+02  0.51100000000E-03 0. -1.
        -11    1    3    3    0    0 -0.77646561115E+01 -0.37940790408E+01 -0.23790236763E+01  0.89635190752E+01  0.51100000000E-03 0.  1.
         12    1    3    3    0    0 -0.54667957023E+01 -0.16918814158E+02  0.47988572495E+01  0.18416328588E+02  0.00000000000E+00 0. -1.
</event>
<event>
 7    1  0.2682317E-010  0.4778727E+02  0.7816164E-02  0.1312668E+00
        -11   -1    0    0    0    0  0.00000000000E+00  0.00000000000E+00  0.45593999997E+02  0.45594000000E+02  0.51100000000E-03 0. -1.
         11   -1    0    0    0    0 -0.00000000000E+00 -0.00000000000E+00 -0.45593999997E+02  0.45594000000E+02  0.51100000000E-03 0.  1.
    9900012    2    1    2    0    0 -0.18630405898E+02  0.39012714528E+02  0.38130403179E+01  0.47787271951E+02  0.20000004132E+02 0.  0.
         12    1    1    2    0    0  0.18630405898E+02 -0.39012714528E+02 -0.38130403179E+01  0.43400728049E+02  0.00000000000E+00 0. -1.
         11    1    3    3    0    0 -0.30433012662E+01  0.20409547962E+02  0.64499368486E+01  0.21619736729E+02  0.51100000000E-03 0. -1.
        -11    1    3    3    0    0 -0.30329384387E+00 -0.94697390783E+00  0.56945507175E+00  0.11458734999E+01  0.51100000000E-03 0.  1.
        -12    1    3    3    0    0 -0.15283810788E+02  0.19550140473E+02 -0.32063516025E+01  0.25021661722E+02  0.00000000000E+00 0.  1.
</event>
<event>
 7    1  0.2682317E-010  0.4778731E+02  0.7816164E-02  0.1312668E+00
        -11   -1    0    0    0    0  0.00000000000E+00  0.00000000000E+00  0.45593999997E+02  0.45594000000E+02  0.51100000000E-03 0.  1.
         11   -1    0    0    0    0 -0.00000000000E+00 -0.00000000000E+00 -0.45593999997E+02  0.45594000000E+02  0.51100000000E-03 0. -1.
    9900012    2    1    2    0    0  0.13202322028E+02 -0.22327876196E+02  0.34796331005E+02  0.47787308603E+02  0.20000171243E+02 0.  0.
         12    1    1    2    0    0 -0.13202322028E+02  0.22327876196E+02 -0.34796331005E+02  0.43400691397E+02  0.00000000000E+00 0. -1.
         11    1    3    3    0    0  0.19111538563E+01 -0.65038739610E-01 -0.12111271642E+01  0.22635300680E+01  0.51100000000E-03 0. -1.
        -11    1    3    3    0    0 -0.12137877544E+01 -0.36788663292E+01  0.12354863633E+02  0.12947972576E+02  0.51100000000E-03 0.  1.
         12    1    3    3    0    0  0.12504955926E+02 -0.18583971128E+02  0.23652594536E+02  0.32575805959E+02  0.00000000000E+00 0. -1.
</event>
<event>
 7    1  0.2682317E-010  0.4778727E+02  0.7816164E-02  0.1312668E+00
        -11   -1    0    0    0    0  0.00000000000E+00  0.00000000000E+00  0.45593999997E+02  0.45594000000E+02  0.51100000000E-03 0. -1.
         11   -1    0    0    0    0 -0.00000000000E+00 -0.00000000000E+00 -0.45593999997E+02  0.45594000000E+02  0.51100000000E-03 0.  1.
    9900012    2    1    2    0    0 -0.13854252050E+02 -0.37669091657E+02  0.16514320498E+02  0.47787267891E+02  0.19999985620E+02 0.  0.
         12    1    1    2    0    0  0.13854252050E+02  0.37669091657E+02 -0.16514320498E+02  0.43400732109E+02  0.00000000000E+00 0. -1.
         11    1    3    3    0    0 -0.40623325528E+01 -0.16221538194E+00  0.10284031079E+01  0.41936228745E+01  0.51100000000E-03 0. -1.
        -11    1    3    3    0    0 -0.94601195741E+01 -0.31272732754E+02  0.17461343416E+02  0.37045596100E+02  0.51100000000E-03 0.  1.
        -12    1    3    3    0    0 -0.33179992346E+00 -0.62341435208E+01 -0.19754260253E+01  0.65480489162E+01  0.00000000000E+00 0.  1.
</event>
<event>
 7    1  0.2682317E-010  0.4778727E+02  0.7816164E-02  0.1312668E+00
        -11   -1    0    0    0    0  0.00000000000E+00  0.00000000000E+00  0.45593999997E+02  0.45594000000E+02  0.51100000000E-03 0. -1.
         11   -1    0    0    0    0 -0.00000000000E+00 -0.00000000000E+00 -0.45593999997E+02  0.45594000000E+02  0.51100000000E-03 0.  1.
    9900012    2    1    2    0    0  0.32008262132E+02 -0.19929941206E+01 -0.29242470709E+02  0.47787274621E+02  0.20000016305E+02 0.  0.
         12    1    1    2    0    0 -0.32008262132E+02  0.19929941206E+01  0.29242470709E+02  0.43400725379E+02  0.00000000000E+00 0. -1.
         11    1    3    3    0    0  0.46860976701E+01  0.43232614773E+01 -0.50617469873E+00  0.63958044265E+01  0.51100000000E-03 0. -1.
        -11    1    3    3    0    0  0.14880779421E+02  0.12338653277E+01 -0.11592172541E+02  0.18903398750E+02  0.51100000000E-03 0.  1.
         12    1    3    3    0    0  0.12441385041E+02 -0.75501209256E+01 -0.17144123470E+02  0.22488071444E+02  0.00000000000E+00 0. -1.
</event>
<event>
 7    1  0.2682317E-010  0.4778726E+02  0.7816164E-02  0.1312668E+00
        -11   -1    0    0    0    0  0.00000000000E+00  0.00000000000E+00  0.45593999997E+02  0.45594000000E+02  0.51100000000E-03 0.  1.
         11   -1    0    0    0    0 -0.00000000000E+00 -0.00000000000E+00 -0.45593999997E+02  0.45594000000E+02  0.51100000000E-03 0. -1.
    9900012    2    1    2    0    0 -0.33666281954E+02 -0.64658937301E+01  0.26615741793E+02  0.47787262293E+02  0.19999960097E+02 0.  0.
         12    1    1    2    0    0  0.33666281954E+02  0.64658937301E+01 -0.26615741793E+02  0.43400737707E+02  0.00000000000E+00 0. -1.
         11    1    3    3    0    0 -0.18804360685E+02 -0.96954600967E+00  0.19189405949E+02  0.26884517872E+02  0.51100000000E-03 0. -1.
        -11    1    3    3    0    0 -0.11078163064E+02 -0.11393584043E+01  0.96328364946E+01  0.14724651902E+02  0.51100000000E-03 0.  1.
         12    1    3    3    0    0 -0.37837582045E+01 -0.43569893161E+01 -0.22065006505E+01  0.61780925189E+01  0.00000000000E+00 0. -1.
</event>
<event>
 7    1  0.2682317E-010  0.4778728E+02  0.7816164E-02  0.1312668E+00
        -11   -1    0    0    0    0  0.00000000000E+00  0.00000000000E+00  0.45593999997E+02  0.45594000000E+02  0.51100000000E-03 0. -1.
         11   -1    0    0    0    0 -0.00000000000E+00 -0.00000000000E+00 -0.45593999997E+02  0.45594000000E+02  0.51100000000E-03 0.  1.
    9900012    2    1    2    0    0 -0.23296158907E+02  0.32129680306E+01 -0.36477229004E+02  0.47787280891E+02  0.20000044893E+02 0.  0.
         12    1    1    2    0    0  0.23296158907E+02 -0.32129680306E+01  0.36477229004E+02  0.43400719109E+02  0.00000000000E+00 0. -1.
         11    1    3    3    0    0 -0.17415472774E+01 -0.13306892238E+01 -0.10582406065E+02  0.10806990290E+02  0.51100000000E-03 0. -1.
        -11    1    3    3    0    0 -0.36830740825E+01 -0.37011937001E+01 -0.11394339296E+02  0.12533747953E+02  0.51100000000E-03 0.  1.
        -12    1    3    3    0    0 -0.17871537547E+02  0.82448509544E+01 -0.14500483644E+02  0.24446542648E+02  0.00000000000E+00 0.  1.
</event>
<event>
 7    1  0.2682317E-010  0.4778727E+02  0.7816164E-02  0.1312668E+00
        -11   -1    0    0    0    0  0.00000000000E+00  0.00000000000E+00  0.45593999997E+02  0.45594000000E+02  0.51100000000E-03 0. -1.
         11   -1    0    0    0    0 -0.00000000000E+00 -0.00000000000E+00 -0.45593999997E+02  0.45594000000E+02  0.51100000000E-03 0.  1.
    9900012    2    1    2    0    0  0.17444068266E+02 -0.38098193211E+02 -0.11307319138E+02  0.47787270632E+02  0.19999998119E+02 0.  0.
         12    1    1    2    0    0 -0.17444068266E+02  0.38098193211E+02  0.11307319138E+02  0.43400729368E+02  0.00000000000E+00 0. -1.
         11    1    3    3    0    0  0.74759055341E+00 -0.54978410236E+01 -0.43111835341E+01  0.70264821413E+01  0.51100000000E-03 0. -1.
        -11    1    3    3    0    0  0.73325282325E+01 -0.11668535516E+02 -0.10809849748E+02  0.17514951990E+02  0.51100000000E-03 0.  1.
         12    1    3    3    0    0  0.93639494800E+01 -0.20931816672E+02  0.38137141446E+01  0.23245836501E+02  0.00000000000E+00 0. -1.
</event>
<event>
 7    1  0.2682317E-010  0.4778728E+02  0.7816164E-02  0.1312668E+00
        -11   -1    0    0    0    0  0.00000000000E+00  0.00000000000E+00  0.45593999997E+02  0.45594000000E+02  0.51100000000E-03 0.  1.
         11   -1    0    0    0    0 -0.00000000000E+00 -0.00000000000E+00 -0.45593999997E+02  0.45594000000E+02  0.51100000000E-03 0. -1.
    9900012    2    1    2    0    0 -0.20079952438E+02  0.29275132247E+02  0.24967672061E+02  0.47787279889E+02  0.20000040327E+02 0.  0.
         12    1    1    2    0    0  0.20079952438E+02 -0.29275132247E+02 -0.24967672061E+02  0.43400720111E+02  0.00000000000E+00 0. -1.
         11    1    3    3    0    0 -0.14764647558E+02  0.14579722306E+02  0.12438986725E+02  0.24192798743E+02  0.51100000000E-03 0. -1.
        -11    1    3    3    0    0 -0.81564082226E+01  0.47814822516E+01  0.42324729302E+01  0.10358735202E+02  0.51100000000E-03 0.  1.
         12    1    3    3    0    0  0.28411033416E+01  0.99139276888E+01  0.82962124059E+01  0.13235745944E+02  0.00000000000E+00 0. -1.
</event>
<event>
 7    1  0.2682317E-010  0.4778727E+02  0.7816164E-02  0.1312668E+00
        -11   -1    0    0    0    0  0.00000000000E+00  0.00000000000E+00  0.45593999997E+02  0.45594000000E+02  0.51100000000E-03 0. -1.
         11   -1    0    0    0    0 -0.00000000000E+00 -0.00000000000E+00 -0.45593999997E+02  0.45594000000E+02  0.51100000000E-03 0.  1.
    9900012    2    1    2    0    0  0.28601628603E+02  0.31034459654E+02  0.10120892052E+02  0.47787270736E+02  0.19999998592E+02 0.  0.
         12    1    1    2    0    0 -0.28601628603E+02 -0.31034459654E+02 -0.10120892052E+02  0.43400729264E+02  0.00000000000E+00 0. -1.
         11    1    3    3    0    0  0.63427237841E+01  0.65944668487E+00  0.17012879013E+01  0.65999542207E+01  0.51100000000E-03 0. -1.
        -11    1    3    3    0    0  0.20904814495E+02  0.20526395257E+02  0.10327792098E+02  0.31064569226E+02  0.51100000000E-03 0.  1.
        -12    1    3    3    0    0  0.13540903246E+01  0.98486177114E+01 -0.19081879479E+01  0.10122747289E+02  0.00000000000E+00 0.  1.
</event>
<event>
 7    1  0.2682317E-010  0.4778727E+02  0.7816164E-02  0.1312668E+00
        -11   -1    0    0    0    0  0.00000000000E+00  0.00000000000E+00  0.45593999997E+02  0.45594000000E+02  0.51100000000E-03 0.  1.
         11   -1    0    0    0    0 -0.00000000000E+00 -0.00000000000E+00 -0.45593999997E+02  0.45594000000E+02  0.51100000000E-03 0. -1.
    9900012    2    1    2    0    0  0.29908053248E+02 -0.19292697149E+02  0.24837944509E+02  0.47787270746E+02  0.19999998641E+02 0.  0.
         12    1    1    2    0    0 -0.29908053248E+02  0.19292697149E+02 -0.24837944509E+02  0.43400729254E+02  0.00000000000E+00 0. -1.
         11    1    3    3    0    0  0.54090068148E+01 -0.19435842267E+01  0.70938276706E+01  0.91300200246E+01  0.51100000000E-03 0. -1.
        -11    1    3    3    0    0  0.13265945070E+02 -0.15505743256E+02  0.39712257506E+01  0.20789035734E+02  0.51100000000E-03 0.  1.
        -12    1    3    3    0    0  0.11233101362E+02 -0.18433696665E+01  0.13772891087E+02  0.17868214988E+02  0.00000000000E+00 0.  1.
</event>
<event>
 7    1  0.2682317E-010  0.4778727E+02  0.7816164E-02  0.1312668E+00
        -11   -1    0    0    0    0  0.00000000000E+00  0.00000000000E+00  0.45593999997E+02  0.45594000000E+02  0.51100000000E-03 0.  1.
         11   -1    0    0    0    0 -0.00000000000E+00 -0.00000000000E+00 -0.45593999997E+02  0.45594000000E+02  0.51100000000E-03 0. -1.
    9900012    2    1    2    0    0  0.18020693348E+02  0.15999049490E+02  0.36095826308E+02  0.47787266709E+02  0.19999980235E+02 0.  0.
         12    1    1    2    0    0 -0.18020693348E+02 -0.15999049490E+02 -0.36095826308E+02  0.43400733291E+02  0.00000000000E+00 0. -1.
         11    1    3    3    0    0  0.62745768943E+01  0.21291464369E+01  0.28606051414E+01  0.72171075777E+01  0.51100000000E-03 0. -1.
        -11    1    3    3    0    0  0.73345551768E+01  0.13706934513E+02  0.14284843606E+02  0.21112378135E+02  0.51100000000E-03 0.  1.
        -12    1    3    3    0    0  0.44115612766E+01  0.16296853989E+00  0.18950377560E+02  0.19457780997E+02  0.00000000000E+00 0.  1.
</event>
<event>
 7    1  0.2682317E-010  0.4778727E+02  0.7816164E-02  0.1312668E+00
        -11   -1    0    0    0    0  0.00000000000E+00  0.00000000000E+00  0.45593999997E+02  0.45594000000E+02  0.51100000000E-03 0.  1.
         11   -1    0    0    0    0 -0.00000000000E+00 -0.00000000000E+00 -0.45593999997E+02  0.45594000000E+02  0.51100000000E-03 0. -1.
    9900012    2    1    2    0    0 -0.29548010600E+02 -0.28936603813E+02  0.13160973860E+02  0.47787271854E+02  0.20000003690E+02 0.  0.
         12    1    1    2    0    0  0.29548010600E+02  0.28936603813E+02 -0.13160973860E+02  0.43400728146E+02  0.00000000000E+00 0. -1.
         11    1    3    3    0    0 -0.96330237599E+01 -0.14018041090E+02  0.91320409948E+01  0.19305304860E+02  0.51100000000E-03 0. -1.
        -11    1    3    3    0    0 -0.87797244634E+00 -0.53446775451E+01  0.46873616280E+01  0.71629444344E+01  0.51100000000E-03 0.  1.
        -12    1    3    3    0    0 -0.19037014394E+02 -0.95738851784E+01 -0.65842876268E+00  0.21319022559E+02  0.00000000000E+00 0.  1.
</event>
<event>
 7    1  0.2682317E-010  0.4778726E+02  0.7816164E-02  0.1312668E+00
        -11   -1    0    0    0    0  0.00000000000E+00  0.00000000000E+00  0.45593999997E+02  0.45594000000E+02  0.51100000000E-03 0.  1.
         11   -1    0    0    0    0 -0.00000000000E+00 -0.00000000000E+00 -0.45593999997E+02  0.45594000000E+02  0.51100000000E-03 0. -1.
    9900012    2    1    2    0    0 -0.23749609841E+01 -0.98669671798E+01  0.42197469762E+02  0.47787263425E+02  0.19999965258E+02 0.  0.
         12    1    1    2    0    0  0.23749609841E+01  0.98669671798E+01 -0.42197469762E+02  0.43400736575E+02  0.00000000000E+00 0. -1.
         11    1    3    3    0    0 -0.26987268607E+01  0.12241371925E+01  0.17962940823E+01  0.34653010296E+01  0.51100000000E-03 0. -1.
        -11    1    3    3    0    0  0.18893212638E+01  0.23384522026E+01  0.17265320592E+02  0.17525101681E+02  0.51100000000E-03 0.  1.
        -12    1    3    3    0    0 -0.15655553872E+01 -0.13429556575E+02  0.23135855088E+02  0.26796860714E+02  0.00000000000E+00 0.  1.
</event>
<event>
 7    1  0.2682317E-010  0.4778727E+02  0.7816164E-02  0.1312668E+00
        -11   -1    0    0    0    0  0.00000000000E+00  0.00000000000E+00  0.45593999997E+02  0.45594000000E+02  0.51100000000E-03 0.  1.
         11   -1    0    0    0    0 -0.00000000000E+00 -0.00000000000E+00 -0.45593999997E+02  0.45594000000E+02  0.51100000000E-03 0. -1.
    9900012    2    1    2    0    0  0.21092958664E+02  0.27022415200E+02  0.26617658318E+02  0.47787267716E+02  0.19999984826E+02 0.  0.
         12    1    1    2    0    0 -0.21092958664E+02 -0.27022415200E+02 -0.26617658318E+02  0.43400732284E+02  0.00000000000E+00 0. -1.
         11    1    3    3    0    0  0.59812167110E+01  0.14804248233E+02  0.17959675854E+02  0.24031035686E+02  0.51100000000E-03 0. -1.
        -11    1    3    3    0    0  0.94226396791E+01  0.11632224822E+02  0.98425457827E+01  0.17915649599E+02  0.51100000000E-03 0.  1.
         12    1    3    3    0    0  0.56891022740E+01  0.58594214477E+00 -0.11845633185E+01  0.58405824313E+01  0.00000000000E+00 0. -1.
</event>
<event>
 7    1  0.2682317E-010  0.4778727E+02  0.7816164E-02  0.1312668E+00
        -11   -1    0    0    0    0  0.00000000000E+00  0.00000000000E+00  0.45593999997E+02  0.45594000000E+02  0.51100000000E-03 0. -1.
         11   -1    0    0    0    0 -0.00000000000E+00 -0.00000000000E+00 -0.45593999997E+02  0.45594000000E+02  0.51100000000E-03 0.  1.
    9900012    2    1    2    0    0  0.21497490011E+02  0.15545747702E+02 -0.34348371841E+02  0.47787274240E+02  0.20000014568E+02 0.  0.
         12    1    1    2    0    0 -0.21497490011E+02 -0.15545747702E+02  0.34348371841E+02  0.43400725760E+02  0.00000000000E+00 0. -1.
         11    1    3    3    0    0 -0.14460484078E+01  0.36316255567E+01 -0.16767429306E+01  0.42533783394E+01  0.51100000000E-03 0. -1.
        -11    1    3    3    0    0  0.11461856252E+01 -0.11889821654E-01 -0.94688124961E+01  0.95379396728E+01  0.51100000000E-03 0.  1.
         12    1    3    3    0    0  0.21797352794E+02  0.11926011967E+02 -0.23202816414E+02  0.33995956227E+02  0.00000000000E+00 0. -1.
</event>
<event>
 7    1  0.2682317E-010  0.4778727E+02  0.7816164E-02  0.1312668E+00
        -11   -1    0    0    0    0  0.00000000000E+00  0.00000000000E+00  0.45593999997E+02  0.45594000000E+02  0.51100000000E-03 0. -1.
         11   -1    0    0    0    0 -0.00000000000E+00 -0.00000000000E+00 -0.45593999997E+02  0.45594000000E+02  0.51100000000E-03 0.  1.
    9900012    2    1    2    0    0 -0.15895053197E+02 -0.39785620666E+02 -0.69336027396E+01  0.47787272185E+02  0.20000005202E+02 0.  0.
         12    1    1    2    0    0  0.15895053197E+02  0.39785620666E+02  0.69336027396E+01  0.43400727815E+02  0.00000000000E+00 0. -1.
         11    1    3    3    0    0 -0.98081082468E+01 -0.23240398045E+02  0.44877793838E+01  0.25621382724E+02  0.51100000000E-03 0. -1.
        -11    1    3    3    0    0 -0.55119968571E+01 -0.80554750934E+01 -0.30427737202E+01  0.10224053037E+02  0.51100000000E-03 0.  1.
        -12    1    3    3    0    0 -0.57494809281E+00 -0.84897475277E+01 -0.83786084032E+01  0.11941836424E+02  0.00000000000E+00 0.  1.
</event>
<event>
 7    1  0.2682317E-010  0.4778727E+02  0.7816164E-02  0.1312668E+00
        -11   -1    0    0    0    0  0.00000000000E+00  0.00000000000E+00  0.45593999997E+02  0.45594000000E+02  0.51100000000E-03 0. -1.
         11   -1    0    0    0    0 -0.00000000000E+00 -0.00000000000E+00 -0.45593999997E+02  0.45594000000E+02  0.51100000000E-03 0.  1.
    9900012    2    1    2    0    0 -0.12874817204E+02  0.29607858493E+02 -0.29004086809E+02  0.47787271271E+02  0.20000001034E+02 0.  0.
         12    1    1    2    0    0  0.12874817204E+02 -0.29607858493E+02  0.29004086809E+02  0.43400728729E+02  0.00000000000E+00 0. -1.
         11    1    3    3    0    0  0.90016220709E+00  0.80787946077E+01 -0.71837297913E+01  0.10848188249E+02  0.51100000000E-03 0. -1.
        -11    1    3    3    0    0 -0.10870969942E+02  0.23190757034E+02 -0.21735836109E+02  0.33592198067E+02  0.51100000000E-03 0.  1.
         12    1    3    3    0    0 -0.29040094692E+01 -0.16616931496E+01 -0.84520908410E-01  0.33468849554E+01  0.00000000000E+00 0. -1.
</event>
<event>
 7    1  0.2682317E-010  0.4778728E+02  0.7816164E-02  0.1312668E+00
        -11   -1    0    0    0    0  0.00000000000E+00  0.00000000000E+00  0.45593999997E+02  0.45594000000E+02  0.51100000000E-03 0.  1.
         11   -1    0    0    0    0 -0.00000000000E+00 -0.00000000000E+00 -0.45593999997E+02  0.45594000000E+02  0.51100000000E-03 0. -1.
    9900012    2    1    2    0    0 -0.33860531073E+02  0.25583592715E+02 -0.90866345041E+01  0.47787277571E+02  0.20000029757E+02 0.  0.
         12    1    1    2    0    0  0.33860531073E+02 -0.25583592715E+02  0.90866345041E+01  0.43400722429E+02  0.00000000000E+00 0. -1.
         11    1    3    3    0    0 -0.23726986156E+00 -0.15784072360E+01 -0.11102019560E+01  0.19442775096E+01  0.51100000000E-03 0. -1.
        -11    1    3    3    0    0 -0.38455386610E+01 -0.11300803154E+01 -0.13956729669E+01  0.42441904298E+01  0.51100000000E-03 0.  1.
        -12    1    3    3    0    0 -0.29777722551E+02  0.28292080266E+02 -0.65807595811E+01  0.41598809632E+02  0.00000000000E+00 0.  1.
</event>
<event>
 7    1  0.2682317E-010  0.4778726E+02  0.7816164E-02  0.1312668E+00
        -11   -1    0    0    0    0  0.00000000000E+00  0.00000000000E+00  0.45593999997E+02  0.45594000000E+02  0.51100000000E-03 0.  1.
         11   -1    0    0    0    0 -0.00000000000E+00 -0.00000000000E+00 -0.45593999997E+02  0.45594000000E+02  0.51100000000E-03 0. -1.
    9900012    2    1    2    0    0 -0.13150634493E+02  0.88666704058E+01  0.40398850682E+02  0.47787260742E+02  0.19999953028E+02 0.  0.
         12    1    1    2    0    0  0.13150634493E+02 -0.88666704058E+01 -0.40398850682E+02  0.43400739258E+02  0.00000000000E+00 0. -1.
         11    1    3    3    0    0 -0.53618359651E+01  0.93776524073E+00  0.10934714852E+02  0.12214609192E+02  0.51100000000E-03 0. -1.
        -11    1    3    3    0    0 -0.11894956525E+02  0.64665542637E+01  0.13877073237E+02  0.19387611422E+02  0.51100000000E-03 0.  1.
         12    1    3    3    0    0  0.41061579964E+01  0.14623509013E+01  0.15587062593E+02  0.16185040128E+02  0.00000000000E+00 0. -1.
</event>
<event>
 7    1  0.2682317E-010  0.4778727E+02  0.7816164E-02  0.1312668E+00
        -11   -1    0    0    0    0  0.00000000000E+00  0.00000000000E+00  0.45593999997E+02  0.45594000000E+02  0.51100000000E-03 0. -1.
         11   -1    0    0    0    0 -0.00000000000E+00 -0.00000000000E+00 -0.45593999997E+02  0.45594000000E+02  0.51100000000E-03 0.  1.
    9900012    2    1    2    0    0 -0.40160163449E+02  0.11871032865E+02 -0.11395739365E+02  0.47787273909E+02  0.20000013061E+02 0.  0.
         12    1    1    2    0    0  0.40160163449E+02 -0.11871032865E+02  0.11395739365E+02  0.43400726091E+02  0.00000000000E+00 0. -1.
         11    1    3    3    0    0 -0.15797517099E+02 -0.31507440472E+01 -0.43264291825E+01  0.16679530097E+02  0.51100000000E-03 0. -1.
        -11    1    3    3    0    0  0.47523388785E+00  0.23142786286E+01 -0.93913778534E+00  0.25423833031E+01  0.51100000000E-03 0.  1.
        -12    1    3    3    0    0 -0.24837880239E+02  0.12707498283E+02 -0.61301723968E+01  0.28565360509E+02  0.00000000000E+00 0.  1.
</event>
<event>
 7    1  0.2682317E-010  0.4778727E+02  0.7816164E-02  0.1312668E+00
        -11   -1    0    0    0    0  0.00000000000E+00  0.00000000000E+00  0.45593999997E+02  0.45594000000E+02  0.51100000000E-03 0.  1.
         11   -1    0    0    0    0 -0.00000000000E+00 -0.00000000000E+00 -0.45593999997E+02  0.45594000000E+02  0.51100000000E-03 0. -1.
    9900012    2    1    2    0    0  0.35136711725E+01 -0.12207821154E+02  0.41499959078E+02  0.47787269754E+02  0.19999994115E+02 0.  0.
         12    1    1    2    0    0 -0.35136711725E+01  0.12207821154E+02 -0.41499959078E+02  0.43400730246E+02  0.00000000000E+00 0. -1.
         11    1    3    3    0    0 -0.75906462832E-01 -0.52190035720E+01  0.14847728869E+02  0.15738450143E+02  0.51100000000E-03 0. -1.
        -11    1    3    3    0    0 -0.31689780791E+01 -0.95221204265E+01  0.19257221742E+02  0.21715289290E+02  0.51100000000E-03 0.  1.
         12    1    3    3    0    0  0.67585557145E+01  0.25333028446E+01  0.73950084667E+01  0.10333530320E+02  0.00000000000E+00 0. -1.
</event>
<event>
 7    1  0.2682317E-010  0.4778727E+02  0.7816164E-02  0.1312668E+00
        -11   -1    0    0    0    0  0.00000000000E+00  0.00000000000E+00  0.45593999997E+02  0.45594000000E+02  0.51100000000E-03 0.  1.
         11   -1    0    0    0    0 -0.00000000000E+00 -0.00000000000E+00 -0.45593999997E+02  0.45594000000E+02  0.51100000000E-03 0. -1.
    9900012    2    1    2    0    0 -0.24581202868E+02 -0.20452131798E+02  0.29344473297E+02  0.47787270253E+02  0.19999996391E+02 0.  0.
         12    1    1    2    0    0  0.24581202868E+02  0.20452131798E+02 -0.29344473297E+02  0.43400729747E+02  0.00000000000E+00 0. -1.
         11    1    3    3    0    0 -0.14469066239E+02 -0.11202437323E+02  0.16519680716E+02  0.24652552221E+02  0.51100000000E-03 0. -1.
        -11    1    3    3    0    0 -0.58587144095E+01 -0.43523767891E+01  0.14674761471E+02  0.16389519296E+02  0.51100000000E-03 0.  1.
         12    1    3    3    0    0 -0.42534222186E+01 -0.48973176860E+01 -0.18499688901E+01  0.67451987355E+01  0.00000000000E+00 0. -1.
</event>
<event>
 7    1  0.2682317E-010  0.4778727E+02  0.7816164E-02  0.1312668E+00
        -11   -1    0    0    0    0  0.00000000000E+00  0.00000000000E+00  0.45593999997E+02  0.45594000000E+02  0.51100000000E-03 0. -1.
         11   -1    0    0    0    0 -0.00000000000E+00 -0.00000000000E+00 -0.45593999997E+02  0.45594000000E+02  0.51100000000E-03 0.  1.
    9900012    2    1    2    0    0 -0.12443221407E+02 -0.18165968324E+01 -0.41539013554E+02  0.47787269245E+02  0.19999991797E+02 0.  0.
         12    1    1    2    0    0  0.12443221407E+02  0.18165968324E+01  0.41539013554E+02  0.43400730755E+02  0.00000000000E+00 0. -1.
         11    1    3    3    0    0 -0.91781329547E+00  0.12550805119E+00  0.66633577313E+00  0.11411122381E+01  0.51100000000E-03 0. -1.
        -11    1    3    3    0    0  0.66512029311E+00  0.92607041948E+00 -0.26657686602E+02  0.26682058516E+02  0.51100000000E-03 0.  1.
        -12    1    3    3    0    0 -0.12190528404E+02 -0.28681753031E+01 -0.15547662725E+02  0.19964098491E+02  0.00000000000E+00 0.  1.
</event>
<event>
 7    1  0.2682317E-010  0.4778727E+02  0.7816164E-02  0.1312668E+00
        -11   -1    0    0    0    0  0.00000000000E+00  0.00000000000E+00  0.45593999997E+02  0.45594000000E+02  0.51100000000E-03 0.  1.
         11   -1    0    0    0    0 -0.00000000000E+00 -0.00000000000E+00 -0.45593999997E+02  0.45594000000E+02  0.51100000000E-03 0. -1.
    9900012    2    1    2    0    0  0.84263727013E+01  0.45201013635E+01  0.42334243758E+02  0.47787271115E+02  0.20000000320E+02 0.  0.
         12    1    1    2    0    0 -0.84263727013E+01 -0.45201013635E+01 -0.42334243758E+02  0.43400728885E+02  0.00000000000E+00 0. -1.
         11    1    3    3    0    0  0.52154006252E+01  0.58611996556E+01  0.18119601242E+02  0.19745227639E+02  0.51100000000E-03 0. -1.
        -11    1    3    3    0    0  0.77309884561E+01  0.16527544706E+01  0.18729745313E+02  0.20329858327E+02  0.51100000000E-03 0.  1.
         12    1    3    3    0    0 -0.45200163800E+01 -0.29938527627E+01  0.54848972027E+01  0.77121851485E+01  0.00000000000E+00 0. -1.
</event>
<event>
 7    1  0.2682317E-010  0.4778727E+02  0.7816164E-02  0.1312668E+00
        -11   -1    0    0    0    0  0.00000000000E+00  0.00000000000E+00  0.45593999997E+02  0.45594000000E+02  0.51100000000E-03 0.  1.
         11   -1    0    0    0    0 -0.00000000000E+00 -0.00000000000E+00 -0.45593999997E+02  0.45594000000E+02  0.51100000000E-03 0. -1.
    9900012    2    1    2    0    0 -0.40169048901E+02 -0.10622676834E+02 -0.12539111528E+02  0.47787273386E+02  0.20000010675E+02 0.  0.
         12    1    1    2    0    0  0.40169048901E+02  0.10622676834E+02  0.12539111528E+02  0.43400726614E+02  0.00000000000E+00 0. -1.
         11    1    3    3    0    0 -0.20321941819E+00 -0.13618562516E+01 -0.43851553230E+01  0.45962526095E+01  0.51100000000E-03 0. -1.
        -11    1    3    3    0    0 -0.82967781936E+01 -0.63769689476E+01 -0.46541265991E+00  0.10474677587E+02  0.51100000000E-03 0.  1.
         12    1    3    3    0    0 -0.31669051289E+02 -0.28838516348E+01 -0.76885435446E+01  0.32716343189E+02  0.00000000000E+00 0. -1.
</event>
<event>
 7    1  0.2682317E-010  0.4778728E+02  0.7816164E-02  0.1312668E+00
        -11   -1    0    0    0    0  0.00000000000E+00  0.00000000000E+00  0.45593999997E+02  0.45594000000E+02  0.51100000000E-03 0.  1.
         11   -1    0    0    0    0 -0.00000000000E+00 -0.00000000000E+00 -0.45593999997E+02  0.45594000000E+02  0.51100000000E-03 0. -1.
    9900012    2    1    2    0    0 -0.35982074000E+02 -0.50606970906E+01  0.23733989984E+02  0.47787278982E+02  0.20000036189E+02 0.  0.
         12    1    1    2    0    0  0.35982074000E+02  0.50606970906E+01 -0.23733989984E+02  0.43400721018E+02  0.00000000000E+00 0. -1.
         11    1    3    3    0    0 -0.15310131809E+02 -0.53148747222E+01  0.89125381503E+01  0.18495441759E+02  0.51100000000E-03 0. -1.
        -11    1    3    3    0    0 -0.78274055947E+01 -0.65769704457E+01  0.90051783068E+01  0.13624171725E+02  0.51100000000E-03 0.  1.
        -12    1    3    3    0    0 -0.12844536596E+02  0.68311480773E+01  0.58162735267E+01  0.15667665498E+02  0.00000000000E+00 0.  1.
</event>
<event>
 7    1  0.2682317E-010  0.4778727E+02  0.7816164E-02  0.1312668E+00
        -11   -1    0    0    0    0  0.00000000000E+00  0.00000000000E+00  0.45593999997E+02  0.45594000000E+02  0.51100000000E-03 0.  1.
         11   -1    0    0    0    0 -0.00000000000E+00 -0.00000000000E+00 -0.45593999997E+02  0.45594000000E+02  0.51100000000E-03 0. -1.
    9900012    2    1    2    0    0  0.73336584777E+01  0.39814097446E+02  0.15642209409E+02  0.47787267088E+02  0.19999981959E+02 0.  0.
         12    1    1    2    0    0 -0.73336584777E+01 -0.39814097446E+02 -0.15642209409E+02  0.43400732912E+02  0.00000000000E+00 0. -1.
         11    1    3    3    0    0 -0.24509363346E+01  0.43393679496E+00  0.45349771478E+01  0.51731429567E+01  0.51100000000E-03 0. -1.
        -11    1    3    3    0    0  0.15967084768E+01  0.10922469012E+02  0.14956042554E+00  0.11039573174E+02  0.51100000000E-03 0.  1.
         12    1    3    3    0    0  0.81878863355E+01  0.28457691639E+02  0.10957671836E+02  0.31574550957E+02  0.00000000000E+00 0. -1.
</event>
<event>
 7    1  0.2682317E-010  0.4778727E+02  0.7816164E-02  0.1312668E+00
        -11   -1    0    0    0    0  0.00000000000E+00  0.00000000000E+00  0.45593999997E+02  0.45594000000E+02  0.51100000000E-03 0. -1.
         11   -1    0    0    0    0 -0.00000000000E+00 -0.00000000000E+00 -0.45593999997E+02  0.45594000000E+02  0.51100000000E-03 0.  1.
    9900012    2    1    2    0    0  0.12698980161E+02 -0.41359433759E+02  0.34287533779E+01  0.47787271807E+02  0.20000003476E+02 0.  0.
         12    1    1    2    0    0 -0.12698980161E+02  0.41359433759E+02 -0.34287533779E+01  0.43400728193E+02  0.00000000000E+00 0. -1.
         11    1    3    3    0    0  0.52874496904E+01 -0.14435438008E+02  0.39620480443E+01  0.15875667535E+02  0.51100000000E-03 0. -1.
        -11    1    3    3    0    0  0.85420527268E+01 -0.18506941362E+02  0.59424295149E+01  0.21231721837E+02  0.51100000000E-03 0.  1.
        -12    1    3    3    0    0 -0.11305222560E+01 -0.84170543882E+01 -0.64757241813E+01  0.10679882435E+02  0.00000000000E+00 0.  1.
</event>
<event>
 7    1  0.2682317E-010  0.4778727E+02  0.7816164E-02  0.1312668E+00
        -11   -1    0    0    0    0  0.00000000000E+00  0.00000000000E+00  0.45593999997E+02  0.45594000000E+02  0.51100000000E-03 0. -1.
         11   -1    0    0    0    0 -0.00000000000E+00 -0.00000000000E+00 -0.45593999997E+02  0.45594000000E+02  0.51100000000E-03 0.  1.
    9900012    2    1    2    0    0  0.30748352662E+02  0.15944562345E+02 -0.26152112766E+02  0.47787271182E+02  0.20000000626E+02 0.  0.
         12    1    1    2    0    0 -0.30748352662E+02 -0.15944562345E+02  0.26152112766E+02  0.43400728818E+02  0.00000000000E+00 0. -1.
         11    1    3    3    0    0  0.12821960061E+01  0.72863184112E+00 -0.76099511585E+00  0.16595314958E+01  0.51100000000E-03 0. -1.
        -11    1    3    3    0    0  0.27376921801E+02  0.19505850498E+02 -0.20949234455E+02  0.39608641424E+02  0.51100000000E-03 0.  1.
         12    1    3    3    0    0  0.20892348549E+01 -0.42899199936E+01 -0.44418831945E+01  0.65190982616E+01  0.00000000000E+00 0. -1.
</event>
<event>
 7    1  0.2682317E-010  0.4778727E+02  0.7816164E-02  0.1312668E+00
        -11   -1    0    0    0    0  0.00000000000E+00  0.00000000000E+00  0.45593999997E+02  0.45594000000E+02  0.51100000000E-03 0. -1.
         11   -1    0    0    0    0 -0.00000000000E+00 -0.00000000000E+00 -0.45593999997E+02  0.45594000000E+02  0.51100000000E-03 0.  1.
    9900012    2    1    2    0    0 -0.20945037536E+02  0.15876265290E+00 -0.38011886456E+02  0.47787270572E+02  0.19999997845E+02 0.  0.
         12    1    1    2    0    0  0.20945037536E+02 -0.15876265290E+00  0.38011886456E+02  0.43400729428E+02  0.00000000000E+00 0. -1.
         11    1    3    3    0    0 -0.10794421897E+02  0.58951904451E+00 -0.19443846780E+02  0.22247027996E+02  0.51100000000E-03 0. -1.
        -11    1    3    3    0    0 -0.17210600639E+01  0.35563765951E+01 -0.15072390880E+02  0.15581618316E+02  0.51100000000E-03 0.  1.
         12    1    3    3    0    0 -0.84295555750E+01 -0.39871329867E+01 -0.34956487952E+01  0.99586242596E+01  0.00000000000E+00 0. -1.
</event>
<event>
 7    1  0.2682317E-010  0.4778727E+02  0.7816164E-02  0.1312668E+00
        -11   -1    0    0    0    0  0.00000000000E+00  0.00000000000E+00  0.45593999997E+02  0.45594000000E+02  0.51100000000E-03 0.  1.
         11   -1    0    0    0    0 -0.00000000000E+00 -0.00000000000E+00 -0.45593999997E+02  0.45594000000E+02  0.51100000000E-03 0. -1.
    9900012    2    1    2    0    0 -0.28957184983E+02  0.24294595019E+01  0.32236664753E+02  0.47787269706E+02  0.19999993900E+02 0.  0.
         12    1    1    2    0    0  0.28957184983E+02 -0.24294595019E+01 -0.32236664753E+02  0.43400730294E+02  0.00000000000E+00 0. -1.
         11    1    3    3    0    0 -0.14538168339E+00 -0.68053807809E+00  0.21621938817E+01  0.22714203822E+01  0.51100000000E-03 0. -1.
        -11    1    3    3    0    0 -0.21023993021E+02 -0.38647107167E+01  0.11682780043E+02  0.24360451992E+02  0.51100000000E-03 0.  1.
         12    1    3    3    0    0 -0.77878102788E+01  0.69747082967E+01  0.18391690828E+02  0.21155397332E+02  0.00000000000E+00 0. -1.
</event>
<event>
 7    1  0.2682317E-010  0.4778727E+02  0.7816164E-02  0.1312668E+00
        -11   -1    0    0    0    0  0.00000000000E+00  0.00000000000E+00  0.45593999997E+02  0.45594000000E+02  0.51100000000E-03 0.  1.
         11   -1    0    0    0    0 -0.00000000000E+00 -0.00000000000E+00 -0.45593999997E+02  0.45594000000E+02  0.51100000000E-03 0. -1.
    9900012    2    1    2    0    0  0.32801753792E+02  0.75705081298E+01  0.27392616243E+02  0.47787273395E+02  0.20000010718E+02 0.  0.
         12    1    1    2    0    0 -0.32801753792E+02 -0.75705081298E+01 -0.27392616243E+02  0.43400726605E+02  0.00000000000E+00 0. -1.
         11    1    3    3    0    0  0.20859052887E+02  0.12632298164E+02  0.16849581325E+02  0.29640908140E+02  0.51100000000E-03 0. -1.
        -11    1    3    3    0    0  0.56440102840E+01  0.92462189404E+00  0.22855790951E+01  0.61590299394E+01  0.51100000000E-03 0.  1.
        -12    1    3    3    0    0  0.62986906209E+01 -0.59864119281E+01  0.82574558229E+01  0.11987335316E+02  0.00000000000E+00 0.  1.
</event>
<event>
 7    1  0.2682317E-010  0.4778727E+02  0.7816164E-02  0.1312668E+00
        -11   -1    0    0    0    0  0.00000000000E+00  0.00000000000E+00  0.45593999997E+02  0.45594000000E+02  0.51100000000E-03 0. -1.
         11   -1    0    0    0    0 -0.00000000000E+00 -0.00000000000E+00 -0.45593999997E+02  0.45594000000E+02  0.51100000000E-03 0.  1.
    9900012    2    1    2    0    0  0.25441026383E+02 -0.33916389063E+02 -0.92766240700E+01  0.47787273916E+02  0.20000013092E+02 0.  0.
         12    1    1    2    0    0 -0.25441026383E+02  0.33916389063E+02  0.92766240700E+01  0.43400726084E+02  0.00000000000E+00 0. -1.
         11    1    3    3    0    0  0.27586667400E+01 -0.13229122907E+02 -0.64311666097E+01  0.14965956010E+02  0.51100000000E-03 0. -1.
        -11    1    3    3    0    0  0.16104241257E+02 -0.18230893236E+02 -0.61055029064E+01  0.25079657506E+02  0.51100000000E-03 0.  1.
         12    1    3    3    0    0  0.65781183864E+01 -0.24563729202E+01  0.32600454462E+01  0.77416603994E+01  0.00000000000E+00 0. -1.
</event>
<event>
 7    1  0.2682317E-010  0.4778727E+02  0.7816164E-02  0.1312668E+00
        -11   -1    0    0    0    0  0.00000000000E+00  0.00000000000E+00  0.45593999997E+02  0.45594000000E+02  0.51100000000E-03 0. -1.
         11   -1    0    0    0    0 -0.00000000000E+00 -0.00000000000E+00 -0.45593999997E+02  0.45594000000E+02  0.51100000000E-03 0.  1.
    9900012    2    1    2    0    0 -0.36336182838E+01 -0.35465880382E+02 -0.24750587541E+02  0.47787269168E+02  0.19999991445E+02 0.  0.
         12    1    1    2    0    0  0.36336182838E+01  0.35465880382E+02  0.24750587541E+02  0.43400730832E+02  0.00000000000E+00 0. -1.
         11    1    3    3    0    0  0.18512261594E+01 -0.13950019874E+02 -0.17156456543E+02  0.22189504144E+02  0.51100000000E-03 0. -1.
        -11    1    3    3    0    0 -0.52749801542E+01 -0.82995556575E+01 -0.75197123359E+01  0.12379584549E+02  0.51100000000E-03 0.  1.
        -12    1    3    3    0    0 -0.20986428907E+00 -0.13216304851E+02 -0.74418662005E-01  0.13218180475E+02  0.00000000000E+00 0.  1.
</event>
<event>
 7    1  0.2682317E-010  0.4778727E+02  0.7816164E-02  0.1312668E+00
        -11   -1    0    0    0    0  0.00000000000E+00  0.00000000000E+00  0.45593999997E+02  0.45594000000E+02  0.51100000000E-03 0.  1.
         11   -1    0    0    0    0 -0.00000000000E+00 -0.00000000000E+00 -0.45593999997E+02  0.45594000000E+02  0.51100000000E-03 0. -1.
    9900012    2    1    2    0    0  0.30697545390E+02  0.11735889892E+00  0.30680128009E+02  0.47787270504E+02  0.19999997537E+02 0.  0.
         12    1    1    2    0    0 -0.30697545390E+02 -0.11735889892E+00 -0.30680128009E+02  0.43400729496E+02  0.00000000000E+00 0. -1.
         11    1    3    3    0    0  0.96108813059E+00 -0.36524671713E+01  0.16377936841E+00  0.37803479701E+01  0.51100000000E-03 0. -1.
        -11    1    3    3    0    0 -0.11202756627E+00  0.98574318332E+00  0.35461270554E+01  0.36822896618E+01  0.51100000000E-03 0.  1.
        -12    1    3    3    0    0  0.29848484826E+02  0.27840828869E+01  0.26970221585E+02  0.40324632872E+02  0.00000000000E+00 0.  1.
</event>
<event>
 7    1  0.2682317E-010  0.4778728E+02  0.7816164E-02  0.1312668E+00
        -11   -1    0    0    0    0  0.00000000000E+00  0.00000000000E+00  0.45593999997E+02  0.45594000000E+02  0.51100000000E-03 0.  1.
         11   -1    0    0    0    0 -0.00000000000E+00 -0.00000000000E+00 -0.45593999997E+02  0.45594000000E+02  0.51100000000E-03 0. -1.
    9900012    2    1    2    0    0  0.25335233997E+02  0.34630782801E+02  0.65159451120E+01  0.47787277198E+02  0.20000028055E+02 0.  0.
         12    1    1    2    0    0 -0.25335233997E+02 -0.34630782801E+02 -0.65159451120E+01  0.43400722802E+02  0.00000000000E+00 0. -1.
         11    1    3    3    0    0  0.16940478983E+02  0.11173532169E+02 -0.73228601603E+00  0.20306744997E+02  0.51100000000E-03 0. -1.
        -11    1    3    3    0    0  0.23974125080E+01  0.79877653335E+01 -0.18725844809E+01  0.85474297105E+01  0.51100000000E-03 0.  1.
        -12    1    3    3    0    0  0.59973425058E+01  0.15469485298E+02  0.91208156089E+01  0.18933102490E+02  0.00000000000E+00 0.  1.
</event>
<event>
 7    1  0.2682317E-010  0.4778728E+02  0.7816164E-02  0.1312668E+00
        -11   -1    0    0    0    0  0.00000000000E+00  0.00000000000E+00  0.45593999997E+02  0.45594000000E+02  0.51100000000E-03 0.  1.
         11   -1    0    0    0    0 -0.00000000000E+00 -0.00000000000E+00 -0.45593999997E+02  0.45594000000E+02  0.51100000000E-03 0. -1.
    9900012    2    1    2    0    0 -0.30288097231E+02  0.42109831903E+01  0.30798078585E+02  0.47787275837E+02  0.20000021853E+02 0.  0.
         12    1    1    2    0    0  0.30288097231E+02 -0.42109831903E+01 -0.30798078585E+02  0.43400724163E+02  0.00000000000E+00 0. -1.
         11    1    3    3    0    0 -0.54693297064E+01  0.14925813914E+01  0.15507230199E+02  0.16511073719E+02  0.51100000000E-03 0. -1.
        -11    1    3    3    0    0 -0.14448026110E+02  0.62016614485E+01  0.12220377083E+02  0.19913404518E+02  0.51100000000E-03 0.  1.
        -12    1    3    3    0    0 -0.10370741415E+02 -0.34832596496E+01  0.30704713031E+01  0.11362797600E+02  0.00000000000E+00 0.  1.
</event>
<event>
 7    1  0.2682317E-010  0.4778723E+02  0.7816164E-02  0.1312668E+00
        -11   -1    0    0    0    0  0.00000000000E+00  0.00000000000E+00  0.45593999997E+02  0.45594000000E+02  0.51100000000E-03 0.  1.
         11   -1    0    0    0    0 -0.00000000000E+00 -0.00000000000E+00 -0.45593999997E+02  0.45594000000E+02  0.51100000000E-03 0. -1.
    9900012    2    1    2    0    0 -0.37466588290E+01  0.17918856014E+00  0.43238379349E+02  0.47787228006E+02  0.19999803771E+02 0.  0.
         12    1    1    2    0    0  0.37466588290E+01 -0.17918856014E+00 -0.43238379349E+02  0.43400771994E+02  0.00000000000E+00 0. -1.
         11    1    3    3    0    0  0.52923164673E+01  0.18280287957E+01  0.21461818493E+02  0.22180170336E+02  0.51100000000E-03 0. -1.
        -11    1    3    3    0    0 -0.20881954412E+01  0.34643516274E+01  0.11486089854E+02  0.12177542971E+02  0.51100000000E-03 0.  1.
        -12    1    3    3    0    0 -0.69507798552E+01 -0.51131918630E+01  0.10290471002E+02  0.13429514699E+02  0.00000000000E+00 0.  1.
</event>
<event>
 7    1  0.2682317E-010  0.4778729E+02  0.7816164E-02  0.1312668E+00
        -11   -1    0    0    0    0  0.00000000000E+00  0.00000000000E+00  0.45593999997E+02  0.45594000000E+02  0.51100000000E-03 0.  1.
         11   -1    0    0    0    0 -0.00000000000E+00 -0.00000000000E+00 -0.45593999997E+02  0.45594000000E+02  0.51100000000E-03 0. -1.
    9900012    2    1    2    0    0  0.31327124195E+02  0.27104573444E+02  0.12945082669E+02  0.47787288287E+02  0.20000078615E+02 0.  0.
         12    1    1    2    0    0 -0.31327124195E+02 -0.27104573444E+02 -0.12945082669E+02  0.43400711713E+02  0.00000000000E+00 0. -1.
         11    1    3    3    0    0  0.65980858348E+00  0.66703882814E+01 -0.26851297351E+00  0.67083177228E+01  0.51100000000E-03 0. -1.
        -11    1    3    3    0    0  0.50737036659E+01  0.60438984305E+01  0.80387643007E+01  0.11264675267E+02  0.51100000000E-03 0.  1.
         12    1    3    3    0    0  0.25593611946E+02  0.14390286732E+02  0.51748313417E+01  0.29814295297E+02  0.00000000000E+00 0. -1.
</event>
<event>
 7    1  0.2682317E-010  0.4778727E+02  0.7816164E-02  0.1312668E+00
        -11   -1    0    0    0    0  0.00000000000E+00  0.00000000000E+00  0.45593999997E+02  0.45594000000E+02  0.51100000000E-03 0.  1.
         11   -1    0    0    0    0 -0.00000000000E+00 -0.00000000000E+00 -0.45593999997E+02  0.45594000000E+02  0.51100000000E-03 0. -1.
    9900012    2    1    2    0    0  0.43100036875E+02  0.14811321789E+01 -0.48801990585E+01  0.47787271043E+02  0.19999999995E+02 0.  0.
         12    1    1    2    0    0 -0.43100036875E+02 -0.14811321789E+01  0.48801990585E+01  0.43400728957E+02  0.00000000000E+00 0. -1.
         11    1    3    3    0    0  0.14714473004E+02  0.22498887122E+01 -0.17621532589E+01  0.14989426252E+02  0.51100000000E-03 0. -1.
        -11    1    3    3    0    0  0.23011175117E+02  0.19855794634E+01  0.40242254002E+01  0.23444638969E+02  0.51100000000E-03 0.  1.
         12    1    3    3    0    0  0.53743887545E+01 -0.27543359967E+01 -0.71422711998E+01  0.93532058225E+01  0.00000000000E+00 0. -1.
</event>
<event>
 7    1  0.2682317E-010  0.4778727E+02  0.7816164E-02  0.1312668E+00
        -11   -1    0    0    0    0  0.00000000000E+00  0.00000000000E+00  0.45593999997E+02  0.45594000000E+02  0.51100000000E-03 0.  1.
         11   -1    0    0    0    0 -0.00000000000E+00 -0.00000000000E+00 -0.45593999997E+02  0.45594000000E+02  0.51100000000E-03 0. -1.
    9900012    2    1    2    0    0  0.30223382258E+00 -0.83143435634E+01  0.42595817216E+02  0.47787270761E+02  0.19999998708E+02 0.  0.
         12    1    1    2    0    0 -0.30223382258E+00  0.83143435634E+01 -0.42595817216E+02  0.43400729239E+02  0.00000000000E+00 0. -1.
         11    1    3    3    0    0  0.25788504984E+01 -0.34844476157E+01  0.70672926226E+01  0.82908666829E+01  0.51100000000E-03 0. -1.
        -11    1    3    3    0    0  0.26952562503E+01 -0.16829392257E+01 -0.29653797749E+00  0.31913360408E+01  0.51100000000E-03 0.  1.
         12    1    3    3    0    0 -0.49718729261E+01 -0.31469567221E+01  0.35825062571E+02  0.36305068037E+02  0.00000000000E+00 0. -1.
</event>
<event>
 7    1  0.2682317E-010  0.4778726E+02  0.7816164E-02  0.1312668E+00
        -11   -1    0    0    0    0  0.00000000000E+00  0.00000000000E+00  0.45593999997E+02  0.45594000000E+02  0.51100000000E-03 0. -1.
         11   -1    0    0    0    0 -0.00000000000E+00 -0.00000000000E+00 -0.45593999997E+02  0.45594000000E+02  0.51100000000E-03 0.  1.
    9900012    2    1    2    0    0  0.17453672343E+02 -0.80284500670E+01 -0.38917065116E+02  0.47787255237E+02  0.19999927927E+02 0.  0.
         12    1    1    2    0    0 -0.17453672343E+02  0.80284500670E+01  0.38917065116E+02  0.43400744763E+02  0.00000000000E+00 0. -1.
         11    1    3    3    0    0  0.76743136893E+01 -0.23176274830E+01 -0.10247871605E+02  0.13010970773E+02  0.51100000000E-03 0. -1.
        -11    1    3    3    0    0  0.58466293760E+01 -0.10323427825E+02 -0.25047402516E+02  0.27715133234E+02  0.51100000000E-03 0.  1.
         12    1    3    3    0    0  0.39327292774E+01  0.46126052413E+01 -0.36217909952E+01  0.70611512301E+01  0.00000000000E+00 0. -1.
</event>
<event>
 7    1  0.2682317E-010  0.4778727E+02  0.7816164E-02  0.1312668E+00
        -11   -1    0    0    0    0  0.00000000000E+00  0.00000000000E+00  0.45593999997E+02  0.45594000000E+02  0.51100000000E-03 0. -1.
         11   -1    0    0    0    0 -0.00000000000E+00 -0.00000000000E+00 -0.45593999997E+02  0.45594000000E+02  0.51100000000E-03 0.  1.
    9900012    2    1    2    0    0  0.39822033475E+02  0.16243274269E+02 -0.58296668893E+01  0.47787270454E+02  0.19999997309E+02 0.  0.
         12    1    1    2    0    0 -0.39822033475E+02 -0.16243274269E+02  0.58296668893E+01  0.43400729546E+02  0.00000000000E+00 0. -1.
         11    1    3    3    0    0  0.30962231349E+01 -0.93027853978E+00 -0.24910687870E+01  0.40813526955E+01  0.51100000000E-03 0. -1.
        -11    1    3    3    0    0  0.22947986066E+02  0.90141432913E+01  0.57183552263E+01  0.25309374360E+02  0.51100000000E-03 0.  1.
        -12    1    3    3    0    0  0.13777824274E+02  0.81594095175E+01 -0.90569533287E+01  0.18396543398E+02  0.00000000000E+00 0.  1.
</event>
<event>
 7    1  0.2682317E-010  0.4778727E+02  0.7816164E-02  0.1312668E+00
        -11   -1    0    0    0    0  0.00000000000E+00  0.00000000000E+00  0.45593999997E+02  0.45594000000E+02  0.51100000000E-03 0.  1.
         11   -1    0    0    0    0 -0.00000000000E+00 -0.00000000000E+00 -0.45593999997E+02  0.45594000000E+02  0.51100000000E-03 0. -1.
    9900012    2    1    2    0    0  0.16260624642E+02  0.19874560854E+02  0.34988814495E+02  0.47787271634E+02  0.20000002690E+02 0.  0.
         12    1    1    2    0    0 -0.16260624642E+02 -0.19874560854E+02 -0.34988814495E+02  0.43400728366E+02  0.00000000000E+00 0. -1.
         11    1    3    3    0    0 -0.10470199486E+01  0.30061069138E+01  0.46570232974E+01  0.56409924485E+01  0.51100000000E-03 0. -1.
        -11    1    3    3    0    0 -0.56181978604E+00  0.10086965880E+02  0.93692758990E+01  0.13778456128E+02  0.51100000000E-03 0.  1.
        -12    1    3    3    0    0  0.17869464376E+02  0.67814880602E+01  0.20962515299E+02  0.28367823058E+02  0.00000000000E+00 0.  1.
</event>
<event>
 7    1  0.2682317E-010  0.4778728E+02  0.7816164E-02  0.1312668E+00
        -11   -1    0    0    0    0  0.00000000000E+00  0.00000000000E+00  0.45593999997E+02  0.45594000000E+02  0.51100000000E-03 0. -1.
         11   -1    0    0    0    0 -0.00000000000E+00 -0.00000000000E+00 -0.45593999997E+02  0.45594000000E+02  0.51100000000E-03 0.  1.
    9900012    2    1    2    0    0 -0.98429178598E+01 -0.13670974714E+02 -0.39998053847E+02  0.47787275430E+02  0.20000019997E+02 0.  0.
         12    1    1    2    0    0  0.98429178598E+01  0.13670974714E+02  0.39998053847E+02  0.43400724570E+02  0.00000000000E+00 0. -1.
         11    1    3    3    0    0 -0.75837245157E+01 -0.12981847211E+02 -0.16943552084E+02  0.22652266819E+02  0.51100000000E-03 0. -1.
        -11    1    3    3    0    0  0.76297250471E+00 -0.48273794214E+01 -0.11457191303E+02  0.12456040781E+02  0.51100000000E-03 0.  1.
        -12    1    3    3    0    0 -0.30221658489E+01  0.41382519178E+01 -0.11597310459E+02  0.12678967830E+02  0.00000000000E+00 0.  1.
</event>
<event>
 7    1  0.2682317E-010  0.4778727E+02  0.7816164E-02  0.1312668E+00
        -11   -1    0    0    0    0  0.00000000000E+00  0.00000000000E+00  0.45593999997E+02  0.45594000000E+02  0.51100000000E-03 0. -1.
         11   -1    0    0    0    0 -0.00000000000E+00 -0.00000000000E+00 -0.45593999997E+02  0.45594000000E+02  0.51100000000E-03 0.  1.
    9900012    2    1    2    0    0  0.24761571701E+02 -0.14131552430E+02 -0.32722878141E+02  0.47787274649E+02  0.20000016434E+02 0.  0.
         12    1    1    2    0    0 -0.24761571701E+02  0.14131552430E+02  0.32722878141E+02  0.43400725351E+02  0.00000000000E+00 0. -1.
         11    1    3    3    0    0  0.12335050529E+02 -0.84971546778E+01 -0.89089764123E+01  0.17427706968E+02  0.51100000000E-03 0. -1.
        -11    1    3    3    0    0  0.14944242776E+02 -0.46384608751E+01 -0.17419023290E+02  0.23415125114E+02  0.51100000000E-03 0.  1.
        -12    1    3    3    0    0 -0.25177216038E+01 -0.99593687695E+00 -0.63948784382E+01  0.69444425677E+01  0.00000000000E+00 0.  1.
</event>
<event>
 7    1  0.2682317E-010  0.4778727E+02  0.7816164E-02  0.1312668E+00
        -11   -1    0    0    0    0  0.00000000000E+00  0.00000000000E+00  0.45593999997E+02  0.45594000000E+02  0.51100000000E-03 0. -1.
         11   -1    0    0    0    0 -0.00000000000E+00 -0.00000000000E+00 -0.45593999997E+02  0.45594000000E+02  0.51100000000E-03 0.  1.
    9900012    2    1    2    0    0 -0.11598149032E+02 -0.35551951104E+02 -0.22026461216E+02  0.47787270951E+02  0.19999999576E+02 0.  0.
         12    1    1    2    0    0  0.11598149032E+02  0.35551951104E+02  0.22026461216E+02  0.43400729049E+02  0.00000000000E+00 0. -1.
         11    1    3    3    0    0  0.19087727708E+01 -0.11722283855E+02 -0.33314088142E+01  0.12335057244E+02  0.51100000000E-03 0. -1.
        -11    1    3    3    0    0 -0.67916563639E+01 -0.21261670004E+02 -0.10871496268E+02  0.24826893460E+02  0.51100000000E-03 0.  1.
         12    1    3    3    0    0 -0.67152654392E+01 -0.25679972444E+01 -0.78235561336E+01  0.10625320247E+02  0.00000000000E+00 0. -1.
</event>
<event>
 7    1  0.2682317E-010  0.4778733E+02  0.7816164E-02  0.1312668E+00
        -11   -1    0    0    0    0  0.00000000000E+00  0.00000000000E+00  0.45593999997E+02  0.45594000000E+02  0.51100000000E-03 0.  1.
         11   -1    0    0    0    0 -0.00000000000E+00 -0.00000000000E+00 -0.45593999997E+02  0.45594000000E+02  0.51100000000E-03 0. -1.
    9900012    2    1    2    0    0 -0.17841313443E+02  0.33910623646E+01  0.39418356308E+02  0.47787325082E+02  0.20000246377E+02 0.  0.
         12    1    1    2    0    0  0.17841313443E+02 -0.33910623646E+01 -0.39418356308E+02  0.43400674918E+02  0.00000000000E+00 0. -1.
         11    1    3    3    0    0 -0.15919355691E+02  0.56507328074E+01  0.19907587740E+02  0.26108786199E+02  0.51100000000E-03 0. -1.
        -11    1    3    3    0    0 -0.26320138852E+01 -0.86280823314E+00  0.77341689236E+00  0.28757797359E+01  0.51100000000E-03 0.  1.
        -12    1    3    3    0    0  0.71005613290E+00 -0.13968622097E+01  0.18737351675E+02  0.18802759147E+02  0.00000000000E+00 0.  1.
</event>
<event>
 7    1  0.2682317E-010  0.4778727E+02  0.7816164E-02  0.1312668E+00
        -11   -1    0    0    0    0  0.00000000000E+00  0.00000000000E+00  0.45593999997E+02  0.45594000000E+02  0.51100000000E-03 0.  1.
         11   -1    0    0    0    0 -0.00000000000E+00 -0.00000000000E+00 -0.45593999997E+02  0.45594000000E+02  0.51100000000E-03 0. -1.
    9900012    2    1    2    0    0 -0.17593825161E+02  0.29771335486E+02  0.26224952988E+02  0.47787271209E+02  0.20000000749E+02 0.  0.
         12    1    1    2    0    0  0.17593825161E+02 -0.29771335486E+02 -0.26224952988E+02  0.43400728791E+02  0.00000000000E+00 0. -1.
         11    1    3    3    0    0 -0.71859347908E+01  0.45516333802E+01  0.40817346698E+01  0.94348070155E+01  0.51100000000E-03 0. -1.
        -11    1    3    3    0    0 -0.38046176333E+01  0.84784428826E-01 -0.55738543341E+00  0.38461646503E+01  0.51100000000E-03 0.  1.
        -12    1    3    3    0    0 -0.66032727374E+01  0.25134917677E+02  0.22700603751E+02  0.34506299543E+02  0.00000000000E+00 0.  1.
</event>
<event>
 7    1  0.2682317E-010  0.4778727E+02  0.7816164E-02  0.1312668E+00
        -11   -1    0    0    0    0  0.00000000000E+00  0.00000000000E+00  0.45593999997E+02  0.45594000000E+02  0.51100000000E-03 0.  1.
         11   -1    0    0    0    0 -0.00000000000E+00 -0.00000000000E+00 -0.45593999997E+02  0.45594000000E+02  0.51100000000E-03 0. -1.
    9900012    2    1    2    0    0  0.13017816491E+02 -0.93048813563E+01  0.40343263184E+02  0.47787271347E+02  0.20000001381E+02 0.  0.
         12    1    1    2    0    0 -0.13017816491E+02  0.93048813563E+01 -0.40343263184E+02  0.43400728653E+02  0.00000000000E+00 0. -1.
         11    1    3    3    0    0  0.25367602708E+01 -0.79434863066E+01  0.21830596637E+02  0.23368976811E+02  0.51100000000E-03 0. -1.
        -11    1    3    3    0    0 -0.74055150642E+00 -0.14058642822E+01  0.10524508311E+02  0.10643784401E+02  0.51100000000E-03 0.  1.
        -12    1    3    3    0    0  0.11221607727E+02  0.44469232573E-01  0.79881582355E+01  0.13774510136E+02  0.00000000000E+00 0.  1.
</event>
<event>
 7    1  0.2682317E-010  0.4778727E+02  0.7816164E-02  0.1312668E+00
        -11   -1    0    0    0    0  0.00000000000E+00  0.00000000000E+00  0.45593999997E+02  0.45594000000E+02  0.51100000000E-03 0. -1.
         11   -1    0    0    0    0 -0.00000000000E+00 -0.00000000000E+00 -0.45593999997E+02  0.45594000000E+02  0.51100000000E-03 0.  1.
    9900012    2    1    2    0    0  0.27939170239E+02 -0.89397327764E+01 -0.31986051705E+02  0.47787267755E+02  0.19999985002E+02 0.  0.
         12    1    1    2    0    0 -0.27939170239E+02  0.89397327764E+01  0.31986051705E+02  0.43400732245E+02  0.00000000000E+00 0. -1.
         11    1    3    3    0    0  0.14385224661E+01  0.51587491325E+01 -0.37270406529E+01  0.65247890224E+01  0.51100000000E-03 0. -1.
        -11    1    3    3    0    0  0.52092689158E+01 -0.35511212025E+01 -0.57459572179E+01  0.85301212795E+01  0.51100000000E-03 0.  1.
         12    1    3    3    0    0  0.21291378857E+02 -0.10547360706E+02 -0.22513053834E+02  0.32732357453E+02  0.00000000000E+00 0. -1.
</event>
<event>
 7    1  0.2682317E-010  0.4778727E+02  0.7816164E-02  0.1312668E+00
        -11   -1    0    0    0    0  0.00000000000E+00  0.00000000000E+00  0.45593999997E+02  0.45594000000E+02  0.51100000000E-03 0.  1.
         11   -1    0    0    0    0 -0.00000000000E+00 -0.00000000000E+00 -0.45593999997E+02  0.45594000000E+02  0.51100000000E-03 0. -1.
    9900012    2    1    2    0    0 -0.30958524805E+02  0.28844226817E+02  0.96542116713E+01  0.47787268650E+02  0.19999989081E+02 0.  0.
         12    1    1    2    0    0  0.30958524805E+02 -0.28844226817E+02 -0.96542116713E+01  0.43400731350E+02  0.00000000000E+00 0. -1.
         11    1    3    3    0    0 -0.96399322556E+00 -0.22924034241E+01  0.15947525871E+01  0.29542566701E+01  0.51100000000E-03 0. -1.
        -11    1    3    3    0    0  0.31234301754E-01  0.91847135906E+00 -0.91718742904E+00  0.12983829405E+01  0.51100000000E-03 0.  1.
        -12    1    3    3    0    0 -0.30025765881E+02  0.30218158882E+02  0.89766465132E+01  0.43534629039E+02  0.00000000000E+00 0.  1.
</event>
<event>
 7    1  0.2682317E-010  0.4778727E+02  0.7816164E-02  0.1312668E+00
        -11   -1    0    0    0    0  0.00000000000E+00  0.00000000000E+00  0.45593999997E+02  0.45594000000E+02  0.51100000000E-03 0.  1.
         11   -1    0    0    0    0 -0.00000000000E+00 -0.00000000000E+00 -0.45593999997E+02  0.45594000000E+02  0.51100000000E-03 0. -1.
    9900012    2    1    2    0    0 -0.21685433528E+02  0.12757743750E+02  0.35363894300E+02  0.47787273359E+02  0.20000010553E+02 0.  0.
         12    1    1    2    0    0  0.21685433528E+02 -0.12757743750E+02 -0.35363894300E+02  0.43400726641E+02  0.00000000000E+00 0. -1.
         11    1    3    3    0    0 -0.94361971598E+01  0.66230051584E+01  0.22641832200E+02  0.25407844848E+02  0.51100000000E-03 0.  1.
        -11    1    3    3    0    0 -0.88275279857E+01  0.46965310534E+01  0.14997940902E+02  0.18025562011E+02  0.51100000000E-03 0. -1.
         12    1    3    3    0    0 -0.34217083826E+01  0.14382075383E+01 -0.22758788017E+01  0.43538664999E+01  0.00000000000E+00 0. -1.
</event>
<event>
 7    1  0.2682317E-010  0.4778726E+02  0.7816164E-02  0.1312668E+00
        -11   -1    0    0    0    0  0.00000000000E+00  0.00000000000E+00  0.45593999997E+02  0.45594000000E+02  0.51100000000E-03 0.  1.
         11   -1    0    0    0    0 -0.00000000000E+00 -0.00000000000E+00 -0.45593999997E+02  0.45594000000E+02  0.51100000000E-03 0. -1.
    9900012    2    1    2    0    0 -0.19891076560E+02  0.17586319874E+02  0.34332065963E+02  0.47787258915E+02  0.19999944698E+02 0.  0.
         12    1    1    2    0    0  0.19891076560E+02 -0.17586319874E+02 -0.34332065963E+02  0.43400741085E+02  0.00000000000E+00 0. -1.
         11    1    3    3    0    0 -0.14635913704E+02  0.16481560125E+02  0.21718774987E+02  0.30944417611E+02  0.51100000000E-03 0. -1.
        -11    1    3    3    0    0 -0.32429742577E+01  0.11741492367E+01 -0.57947322682E+00  0.34973272577E+01  0.51100000000E-03 0.  1.
        -12    1    3    3    0    0 -0.20121885987E+01 -0.69389487829E-01  0.13192764203E+02  0.13345514046E+02  0.00000000000E+00 0.  1.
</event>
<event>
 7    1  0.2682317E-010  0.4778727E+02  0.7816164E-02  0.1312668E+00
        -11   -1    0    0    0    0  0.00000000000E+00  0.00000000000E+00  0.45593999997E+02  0.45594000000E+02  0.51100000000E-03 0. -1.
         11   -1    0    0    0    0 -0.00000000000E+00 -0.00000000000E+00 -0.45593999997E+02  0.45594000000E+02  0.51100000000E-03 0.  1.
    9900012    2    1    2    0    0 -0.40849510956E+02  0.92685787787E+01 -0.11359323452E+02  0.47787270430E+02  0.19999997199E+02 0.  0.
         12    1    1    2    0    0  0.40849510956E+02 -0.92685787787E+01  0.11359323452E+02  0.43400729570E+02  0.00000000000E+00 0. -1.
         11    1    3    3    0    0 -0.85985304929E+01  0.14529614989E+01 -0.60169107842E+00  0.87411587429E+01  0.51100000000E-03 0. -1.
        -11    1    3    3    0    0 -0.15038258068E+02  0.29895937052E+01 -0.14134416739E+02  0.20853503615E+02  0.51100000000E-03 0.  1.
        -12    1    3    3    0    0 -0.17212722395E+02  0.48260235747E+01  0.33767843652E+01  0.18192608072E+02  0.00000000000E+00 0.  1.
</event>
<event>
 7    1  0.2682317E-010  0.4778727E+02  0.7816164E-02  0.1312668E+00
        -11   -1    0    0    0    0  0.00000000000E+00  0.00000000000E+00  0.45593999997E+02  0.45594000000E+02  0.51100000000E-03 0.  1.
         11   -1    0    0    0    0 -0.00000000000E+00 -0.00000000000E+00 -0.45593999997E+02  0.45594000000E+02  0.51100000000E-03 0. -1.
    9900012    2    1    2    0    0 -0.79157438504E+01  0.38333284587E+02  0.18748959864E+02  0.47787271851E+02  0.20000003676E+02 0.  0.
         12    1    1    2    0    0  0.79157438504E+01 -0.38333284587E+02 -0.18748959864E+02  0.43400728149E+02  0.00000000000E+00 0. -1.
         11    1    3    3    0    0 -0.29538047503E+01  0.50254396723E+01  0.36467897543E+01  0.68759786341E+01  0.51100000000E-03 0. -1.
        -11    1    3    3    0    0 -0.58793925073E+01  0.19149055507E+01  0.48998335206E+01  0.78893908709E+01  0.51100000000E-03 0.  1.
        -12    1    3    3    0    0  0.91745340719E+00  0.31392939364E+02  0.10202336589E+02  0.33021902346E+02  0.00000000000E+00 0.  1.
</event>
<event>
 7    1  0.2682317E-010  0.4778727E+02  0.7816164E-02  0.1312668E+00
        -11   -1    0    0    0    0  0.00000000000E+00  0.00000000000E+00  0.45593999997E+02  0.45594000000E+02  0.51100000000E-03 0.  1.
         11   -1    0    0    0    0 -0.00000000000E+00 -0.00000000000E+00 -0.45593999997E+02  0.45594000000E+02  0.51100000000E-03 0. -1.
    9900012    2    1    2    0    0  0.66833734409E+01  0.14111357652E+02  0.40494758771E+02  0.47787269784E+02  0.19999994253E+02 0.  0.
         12    1    1    2    0    0 -0.66833734409E+01 -0.14111357652E+02 -0.40494758771E+02  0.43400730216E+02  0.00000000000E+00 0. -1.
         11    1    3    3    0    0 -0.30551437198E+01 -0.14117461761E+01  0.11268773185E+02  0.11760619872E+02  0.51100000000E-03 0. -1.
        -11    1    3    3    0    0  0.39429116135E+01  0.75778450024E+01  0.22620710762E+02  0.24179885081E+02  0.51100000000E-03 0.  1.
        -12    1    3    3    0    0  0.57956055472E+01  0.79452588257E+01  0.66052748241E+01  0.11846764831E+02  0.00000000000E+00 0.  1.
</event>
<event>
 7    1  0.2682317E-010  0.4778727E+02  0.7816164E-02  0.1312668E+00
        -11   -1    0    0    0    0  0.00000000000E+00  0.00000000000E+00  0.45593999997E+02  0.45594000000E+02  0.51100000000E-03 0.  1.
         11   -1    0    0    0    0 -0.00000000000E+00 -0.00000000000E+00 -0.45593999997E+02  0.45594000000E+02  0.51100000000E-03 0. -1.
    9900012    2    1    2    0    0  0.66868547059E+01 -0.41166249773E+02  0.12010377773E+02  0.47787270508E+02  0.19999997553E+02 0.  0.
         12    1    1    2    0    0 -0.66868547059E+01  0.41166249773E+02 -0.12010377773E+02  0.43400729492E+02  0.00000000000E+00 0. -1.
         11    1    3    3    0    0  0.96055802699E+00 -0.33981790390E+00 -0.14167818107E+01  0.17451128592E+01  0.51100000000E-03 0. -1.
        -11    1    3    3    0    0  0.29808111075E+01 -0.53821747483E+01  0.79807062296E+01  0.10076939618E+02  0.51100000000E-03 0.  1.
         12    1    3    3    0    0  0.27454855714E+01 -0.35444257120E+02  0.54464533545E+01  0.35965218031E+02  0.00000000000E+00 0. -1.
</event>
<event>
 7    1  0.2682317E-010  0.4778727E+02  0.7816164E-02  0.1312668E+00
        -11   -1    0    0    0    0  0.00000000000E+00  0.00000000000E+00  0.45593999997E+02  0.45594000000E+02  0.51100000000E-03 0.  1.
         11   -1    0    0    0    0 -0.00000000000E+00 -0.00000000000E+00 -0.45593999997E+02  0.45594000000E+02  0.51100000000E-03 0. -1.
    9900012    2    1    2    0    0 -0.15418659515E+02  0.40567799175E+02 -0.37679079387E+00  0.47787270024E+02  0.19999995347E+02 0.  0.
         12    1    1    2    0    0  0.15418659515E+02 -0.40567799175E+02  0.37679079387E+00  0.43400729976E+02  0.00000000000E+00 0. -1.
         11    1    3    3    0    0 -0.37394308634E+01  0.74293081524E+01  0.15102158436E+01  0.84533256746E+01  0.51100000000E-03 0. -1.
        -11    1    3    3    0    0 -0.11805542724E+02  0.33412343997E+02  0.19451045749E+01  0.35489984537E+02  0.51100000000E-03 0.  1.
         12    1    3    3    0    0  0.12631407216E+00 -0.27385297402E+00 -0.38321112123E+01  0.38439598124E+01  0.00000000000E+00 0. -1.
</event>
<event>
 7    1  0.2682317E-010  0.4778727E+02  0.7816164E-02  0.1312668E+00
        -11   -1    0    0    0    0  0.00000000000E+00  0.00000000000E+00  0.45593999997E+02  0.45594000000E+02  0.51100000000E-03 0.  1.
         11   -1    0    0    0    0 -0.00000000000E+00 -0.00000000000E+00 -0.45593999997E+02  0.45594000000E+02  0.51100000000E-03 0. -1.
    9900012    2    1    2    0    0  0.40186679580E+02  0.16004780208E+02  0.35357240737E+01  0.47787267864E+02  0.19999985501E+02 0.  0.
         12    1    1    2    0    0 -0.40186679580E+02 -0.16004780208E+02 -0.35357240737E+01  0.43400732136E+02  0.00000000000E+00 0. -1.
         11    1    3    3    0    0  0.94041917852E+00  0.45079818080E+01 -0.37562138475E+01  0.59426787681E+01  0.51100000000E-03 0. -1.
        -11    1    3    3    0    0  0.75651760855E+01  0.22060707133E+00  0.16583799348E+01  0.77479533397E+01  0.51100000000E-03 0.  1.
        -12    1    3    3    0    0  0.31681084316E+02  0.11276191329E+02  0.56335579863E+01  0.34096635757E+02  0.00000000000E+00 0.  1.
</event>
<event>
 7    1  0.2682317E-010  0.4778728E+02  0.7816164E-02  0.1312668E+00
        -11   -1    0    0    0    0  0.00000000000E+00  0.00000000000E+00  0.45593999997E+02  0.45594000000E+02  0.51100000000E-03 0. -1.
         11   -1    0    0    0    0 -0.00000000000E+00 -0.00000000000E+00 -0.45593999997E+02  0.45594000000E+02  0.51100000000E-03 0.  1.
    9900012    2    1    2    0    0  0.93086259064E+01  0.54057626764E+01 -0.42044617839E+02  0.47787277936E+02  0.20000031423E+02 0.  0.
         12    1    1    2    0    0 -0.93086259064E+01 -0.54057626764E+01  0.42044617839E+02  0.43400722064E+02  0.00000000000E+00 0. -1.
         11    1    3    3    0    0 -0.20418467001E+01 -0.25905783512E+01 -0.54179779301E+01  0.63430843643E+01  0.51100000000E-03 0. -1.
        -11    1    3    3    0    0  0.59502535663E+00  0.31169837986E+01 -0.23790928148E+02  0.24001622978E+02  0.51100000000E-03 0.  1.
         12    1    3    3    0    0  0.10755447250E+02  0.48793572290E+01 -0.12835711762E+02  0.17442570594E+02  0.00000000000E+00 0. -1.
</event>
<event>
 7    1  0.2682317E-010  0.4778727E+02  0.7816164E-02  0.1312668E+00
        -11   -1    0    0    0    0  0.00000000000E+00  0.00000000000E+00  0.45593999997E+02  0.45594000000E+02  0.51100000000E-03 0.  1.
         11   -1    0    0    0    0 -0.00000000000E+00 -0.00000000000E+00 -0.45593999997E+02  0.45594000000E+02  0.51100000000E-03 0. -1.
    9900012    2    1    2    0    0 -0.10460339166E+02 -0.23248965473E+02  0.35123923076E+02  0.47787273470E+02  0.20000011059E+02 0.  0.
         12    1    1    2    0    0  0.10460339166E+02  0.23248965473E+02 -0.35123923076E+02  0.43400726530E+02  0.00000000000E+00 0. -1.
         11    1    3    3    0    0 -0.43718933722E+01 -0.56917114677E+01  0.24655665206E+01  0.75886790431E+01  0.51100000000E-03 0. -1.
        -11    1    3    3    0    0  0.19860799986E+01 -0.27240774610E+01 -0.67546218367E-01  0.33718947978E+01  0.51100000000E-03 0.  1.
        -12    1    3    3    0    0 -0.80745257928E+01 -0.14833176545E+02  0.32725902774E+02  0.36826699629E+02  0.00000000000E+00 0.  1.
</event>
<event>
 7    1  0.2682317E-010  0.4778727E+02  0.7816164E-02  0.1312668E+00
        -11   -1    0    0    0    0  0.00000000000E+00  0.00000000000E+00  0.45593999997E+02  0.45594000000E+02  0.51100000000E-03 0.  1.
         11   -1    0    0    0    0 -0.00000000000E+00 -0.00000000000E+00 -0.45593999997E+02  0.45594000000E+02  0.51100000000E-03 0. -1.
    9900012    2    1    2    0    0  0.91767849721E+01  0.29949764750E+02  0.30040326881E+02  0.47787273853E+02  0.20000012805E+02 0.  0.
         12    1    1    2    0    0 -0.91767849721E+01 -0.29949764750E+02 -0.30040326881E+02  0.43400726147E+02  0.00000000000E+00 0. -1.
         11    1    3    3    0    0 -0.17779368185E+01 -0.13220917128E+01 -0.91989121869E+00  0.23989968618E+01  0.51100000000E-03 0. -1.
        -11    1    3    3    0    0  0.26399304778E+01  0.68181467438E+01  0.78868842311E+01  0.10754501434E+02  0.51100000000E-03 0.  1.
         12    1    3    3    0    0  0.83147913127E+01  0.24453709719E+02  0.23073333868E+02  0.34633775558E+02  0.00000000000E+00 0. -1.
</event>
<event>
 7    1  0.2682317E-010  0.4778727E+02  0.7816164E-02  0.1312668E+00
        -11   -1    0    0    0    0  0.00000000000E+00  0.00000000000E+00  0.45593999997E+02  0.45594000000E+02  0.51100000000E-03 0. -1.
         11   -1    0    0    0    0 -0.00000000000E+00 -0.00000000000E+00 -0.45593999997E+02  0.45594000000E+02  0.51100000000E-03 0.  1.
    9900012    2    1    2    0    0  0.19138440367E+02  0.22504368489E+02 -0.31794601328E+02  0.47787272191E+02  0.20000005228E+02 0.  0.
         12    1    1    2    0    0 -0.19138440367E+02 -0.22504368489E+02  0.31794601328E+02  0.43400727809E+02  0.00000000000E+00 0. -1.
         11    1    3    3    0    0  0.25266576428E+01  0.65162691498E+01 -0.11571960450E+01  0.70841277109E+01  0.51100000000E-03 0. -1.
        -11    1    3    3    0    0  0.18731979475E+01  0.41393469643E+01  0.17896838105E+00  0.45469873305E+01  0.51100000000E-03 0.  1.
        -12    1    3    3    0    0  0.14738584776E+02  0.11848752375E+02 -0.30816373664E+02  0.36156157150E+02  0.00000000000E+00 0.  1.
</event>
<event>
 7    1  0.2682317E-010  0.4778727E+02  0.7816164E-02  0.1312668E+00
        -11   -1    0    0    0    0  0.00000000000E+00  0.00000000000E+00  0.45593999997E+02  0.45594000000E+02  0.51100000000E-03 0.  1.
         11   -1    0    0    0    0 -0.00000000000E+00 -0.00000000000E+00 -0.45593999997E+02  0.45594000000E+02  0.51100000000E-03 0. -1.
    9900012    2    1    2    0    0 -0.15424495111E+02  0.39981779956E+02  0.68677013468E+01  0.47787273052E+02  0.20000009151E+02 0.  0.
         12    1    1    2    0    0  0.15424495111E+02 -0.39981779956E+02 -0.68677013468E+01  0.43400726948E+02  0.00000000000E+00 0. -1.
         11    1    3    3    0    0 -0.22116134274E+01 -0.17021576310E+01  0.11594017838E+00  0.27932090754E+01  0.51100000000E-03 0. -1.
        -11    1    3    3    0    0  0.40646851906E+00  0.78231040558E+01  0.26374569706E+01  0.82657336794E+01  0.51100000000E-03 0.  1.
        -12    1    3    3    0    0 -0.13619350203E+02  0.33860833531E+02  0.41143041978E+01  0.36728330297E+02  0.00000000000E+00 0.  1.
</event>
<event>
 7    1  0.2682317E-010  0.4778727E+02  0.7816164E-02  0.1312668E+00
        -11   -1    0    0    0    0  0.00000000000E+00  0.00000000000E+00  0.45593999997E+02  0.45594000000E+02  0.51100000000E-03 0.  1.
         11   -1    0    0    0    0 -0.00000000000E+00 -0.00000000000E+00 -0.45593999997E+02  0.45594000000E+02  0.51100000000E-03 0. -1.
    9900012    2    1    2    0    0 -0.69204571163E+01  0.82127704597E+01  0.42050933567E+02  0.47787270292E+02  0.19999996569E+02 0.  0.
         12    1    1    2    0    0  0.69204571163E+01 -0.82127704597E+01 -0.42050933567E+02  0.43400729708E+02  0.00000000000E+00 0. -1.
         11    1    3    3    0    0 -0.27442371943E+01  0.41607902409E+01  0.45207235939E+01  0.67290382137E+01  0.51100000000E-03 0.  1.
        -11    1    3    3    0    0 -0.19768441373E+01  0.37254688877E+00 -0.10303330415E+01  0.22601527305E+01  0.51100000000E-03 0. -1.
        -12    1    3    3    0    0 -0.21993757846E+01  0.36794333300E+01  0.38560543015E+02  0.38798079348E+02  0.00000000000E+00 0.  1.
</event>
<event>
 7    1  0.2682317E-010  0.4778727E+02  0.7816164E-02  0.1312668E+00
        -11   -1    0    0    0    0  0.00000000000E+00  0.00000000000E+00  0.45593999997E+02  0.45594000000E+02  0.51100000000E-03 0.  1.
         11   -1    0    0    0    0 -0.00000000000E+00 -0.00000000000E+00 -0.45593999997E+02  0.45594000000E+02  0.51100000000E-03 0. -1.
    9900012    2    1    2    0    0 -0.29206676688E+02 -0.31989197118E+02  0.26990080182E+01  0.47787270286E+02  0.19999996543E+02 0.  0.
         12    1    1    2    0    0  0.29206676688E+02  0.31989197118E+02 -0.26990080182E+01  0.43400729714E+02  0.00000000000E+00 0. -1.
         11    1    3    3    0    0  0.18988444569E+01 -0.18265430856E+01  0.20794412108E-01  0.26348249627E+01  0.51100000000E-03 0. -1.
        -11    1    3    3    0    0 -0.49471299039E+01 -0.73321712331E+01  0.53372217379E+01  0.10330574302E+02  0.51100000000E-03 0.  1.
        -12    1    3    3    0    0 -0.26158391241E+02 -0.22830482800E+02 -0.26590081318E+01  0.34821871021E+02  0.00000000000E+00 0.  1.
</event>
<event>
 7    1  0.2682317E-010  0.4778727E+02  0.7816164E-02  0.1312668E+00
        -11   -1    0    0    0    0  0.00000000000E+00  0.00000000000E+00  0.45593999997E+02  0.45594000000E+02  0.51100000000E-03 0. -1.
         11   -1    0    0    0    0 -0.00000000000E+00 -0.00000000000E+00 -0.45593999997E+02  0.45594000000E+02  0.51100000000E-03 0.  1.
    9900012    2    1    2    0    0 -0.52368273858E+01  0.26331028977E+02 -0.34100966480E+02  0.47787270019E+02  0.19999995324E+02 0.  0.
         12    1    1    2    0    0  0.52368273858E+01 -0.26331028977E+02  0.34100966480E+02  0.43400729981E+02  0.00000000000E+00 0. -1.
         11    1    3    3    0    0 -0.60290293906E+01  0.31437425066E+01 -0.51404749533E+00  0.68188384223E+01  0.51100000000E-03 0. -1.
        -11    1    3    3    0    0 -0.33406027016E+00  0.70900036431E+01 -0.77752924177E+01  0.10527816505E+02  0.51100000000E-03 0.  1.
         12    1    3    3    0    0  0.11262622750E+01  0.16097282827E+02 -0.25811626567E+02  0.30440615091E+02  0.00000000000E+00 0. -1.
</event>
<event>
 7    1  0.2682317E-010  0.4778726E+02  0.7816164E-02  0.1312668E+00
        -11   -1    0    0    0    0  0.00000000000E+00  0.00000000000E+00  0.45593999997E+02  0.45594000000E+02  0.51100000000E-03 0.  1.
         11   -1    0    0    0    0 -0.00000000000E+00 -0.00000000000E+00 -0.45593999997E+02  0.45594000000E+02  0.51100000000E-03 0. -1.
    9900012    2    1    2    0    0 -0.35565908574E+02 -0.27772692743E+01  0.24717952295E+02  0.47787259880E+02  0.19999949095E+02 0.  0.
         12    1    1    2    0    0  0.35565908574E+02  0.27772692743E+01 -0.24717952295E+02  0.43400740120E+02  0.00000000000E+00 0. -1.
         11    1    3    3    0    0 -0.47814036335E+01  0.40335862988E+00  0.79647117809E+01  0.92984489516E+01  0.51100000000E-03 0. -1.
        -11    1    3    3    0    0 -0.11588572678E+02 -0.74662662135E+01  0.11945962355E+02  0.18241331221E+02  0.51100000000E-03 0.  1.
        -12    1    3    3    0    0 -0.19195932263E+02  0.42856383093E+01  0.48072781590E+01  0.20247479707E+02  0.00000000000E+00 0.  1.
</event>
<event>
 7    1  0.2682317E-010  0.4778727E+02  0.7816164E-02  0.1312668E+00
        -11   -1    0    0    0    0  0.00000000000E+00  0.00000000000E+00  0.45593999997E+02  0.45594000000E+02  0.51100000000E-03 0. -1.
         11   -1    0    0    0    0 -0.00000000000E+00 -0.00000000000E+00 -0.45593999997E+02  0.45594000000E+02  0.51100000000E-03 0.  1.
    9900012    2    1    2    0    0 -0.18725570667E+02  0.18015345281E+02 -0.34762385041E+02  0.47787273322E+02  0.20000010385E+02 0.  0.
         12    1    1    2    0    0  0.18725570667E+02 -0.18015345281E+02  0.34762385041E+02  0.43400726678E+02  0.00000000000E+00 0. -1.
         11    1    3    3    0    0 -0.31673055274E+01  0.15566393732E+00 -0.48359815506E+01  0.57829727117E+01  0.51100000000E-03 0. -1.
        -11    1    3    3    0    0  0.26254189914E+01  0.21768619826E+01  0.27356909704E+00  0.34214606945E+01  0.51100000000E-03 0.  1.
        -12    1    3    3    0    0 -0.18183684131E+02  0.15682819361E+02 -0.30199972588E+02  0.38582839916E+02  0.00000000000E+00 0.  1.
</event>
<event>
 7    1  0.2682317E-010  0.4778727E+02  0.7816164E-02  0.1312668E+00
        -11   -1    0    0    0    0  0.00000000000E+00  0.00000000000E+00  0.45593999997E+02  0.45594000000E+02  0.51100000000E-03 0.  1.
         11   -1    0    0    0    0 -0.00000000000E+00 -0.00000000000E+00 -0.45593999997E+02  0.45594000000E+02  0.51100000000E-03 0. -1.
    9900012    2    1    2    0    0 -0.18162015827E+02 -0.33347664870E+02 -0.21016599869E+02  0.47787273725E+02  0.20000012220E+02 0.  0.
         12    1    1    2    0    0  0.18162015827E+02  0.33347664870E+02  0.21016599869E+02  0.43400726275E+02  0.00000000000E+00 0. -1.
         11    1    3    3    0    0 -0.40642888757E+01 -0.62842251613E+01 -0.24775032717E+01  0.78833972795E+01  0.51100000000E-03 0. -1.
        -11    1    3    3    0    0 -0.17606923661E+02 -0.17560081824E+02 -0.15602009168E+02  0.29356139474E+02  0.51100000000E-03 0.  1.
         12    1    3    3    0    0  0.35091967106E+01 -0.95033578850E+01 -0.29370874290E+01  0.10547736971E+02  0.00000000000E+00 0. -1.
</event>
<event>
 7    1  0.2682317E-010  0.4778728E+02  0.7816164E-02  0.1312668E+00
        -11   -1    0    0    0    0  0.00000000000E+00  0.00000000000E+00  0.45593999997E+02  0.45594000000E+02  0.51100000000E-03 0. -1.
         11   -1    0    0    0    0 -0.00000000000E+00 -0.00000000000E+00 -0.45593999997E+02  0.45594000000E+02  0.51100000000E-03 0.  1.
    9900012    2    1    2    0    0 -0.37827656857E+02 -0.19653630965E+02 -0.81501960783E+01  0.47787279620E+02  0.20000039101E+02 0.  0.
         12    1    1    2    0    0  0.37827656857E+02  0.19653630965E+02  0.81501960783E+01  0.43400720380E+02  0.00000000000E+00 0. -1.
         11    1    3    3    0    0 -0.96004381691E+01 -0.37981826155E+01  0.30638906753E+01  0.10769495371E+02  0.51100000000E-03 0. -1.
        -11    1    3    3    0    0 -0.22350562099E+02 -0.12690527971E+02 -0.21924748992E+01  0.25795427362E+02  0.51100000000E-03 0.  1.
         12    1    3    3    0    0 -0.58766565881E+01 -0.31649203782E+01 -0.90216118544E+01  0.11222356887E+02  0.00000000000E+00 0. -1.
</event>
<event>
 7    1  0.2682317E-010  0.4778727E+02  0.7816164E-02  0.1312668E+00
        -11   -1    0    0    0    0  0.00000000000E+00  0.00000000000E+00  0.45593999997E+02  0.45594000000E+02  0.51100000000E-03 0.  1.
         11   -1    0    0    0    0 -0.00000000000E+00 -0.00000000000E+00 -0.45593999997E+02  0.45594000000E+02  0.51100000000E-03 0. -1.
    9900012    2    1    2    0    0  0.17312035512E+02 -0.25837435195E+02  0.30271169032E+02  0.47787270679E+02  0.19999998336E+02 0.  0.
         12    1    1    2    0    0 -0.17312035512E+02  0.25837435195E+02 -0.30271169032E+02  0.43400729321E+02  0.00000000000E+00 0. -1.
         11    1    3    3    0    0  0.27308091824E+00 -0.40817564635E+01  0.15609752147E+01  0.43785788673E+01  0.51100000000E-03 0. -1.
        -11    1    3    3    0    0 -0.19804529532E+00  0.26616472821E+01  0.22717205891E+01  0.35048969870E+01  0.51100000000E-03 0.  1.
        -12    1    3    3    0    0  0.17236999889E+02 -0.24417326013E+02  0.26438473228E+02  0.39903794825E+02  0.00000000000E+00 0.  1.
</event>
<event>
 7    1  0.2682317E-010  0.4778727E+02  0.7816164E-02  0.1312668E+00
        -11   -1    0    0    0    0  0.00000000000E+00  0.00000000000E+00  0.45593999997E+02  0.45594000000E+02  0.51100000000E-03 0. -1.
         11   -1    0    0    0    0 -0.00000000000E+00 -0.00000000000E+00 -0.45593999997E+02  0.45594000000E+02  0.51100000000E-03 0.  1.
    9900012    2    1    2    0    0 -0.12905565673E+02 -0.38465025121E+01 -0.41258627988E+02  0.47787267398E+02  0.19999983375E+02 0.  0.
         12    1    1    2    0    0  0.12905565673E+02  0.38465025121E+01  0.41258627988E+02  0.43400732602E+02  0.00000000000E+00 0. -1.
         11    1    3    3    0    0 -0.87758256163E+01  0.41680558756E+01 -0.11724352848E+02  0.15226564123E+02  0.51100000000E-03 0. -1.
        -11    1    3    3    0    0 -0.36533099528E+01  0.52422558205E+00 -0.32416889731E+01  0.49122330698E+01  0.51100000000E-03 0.  1.
        -12    1    3    3    0    0 -0.47643010360E+00 -0.85387839698E+01 -0.26292586167E+02  0.27648470205E+02  0.00000000000E+00 0.  1.
</event>
<event>
 7    1  0.2682317E-010  0.4778727E+02  0.7816164E-02  0.1312668E+00
        -11   -1    0    0    0    0  0.00000000000E+00  0.00000000000E+00  0.45593999997E+02  0.45594000000E+02  0.51100000000E-03 0.  1.
         11   -1    0    0    0    0 -0.00000000000E+00 -0.00000000000E+00 -0.45593999997E+02  0.45594000000E+02  0.51100000000E-03 0. -1.
    9900012    2    1    2    0    0 -0.12331977411E+02 -0.35563483224E+02  0.21605189980E+02  0.47787271436E+02  0.20000001784E+02 0.  0.
         12    1    1    2    0    0  0.12331977411E+02  0.35563483224E+02 -0.21605189980E+02  0.43400728564E+02  0.00000000000E+00 0. -1.
         11    1    3    3    0    0 -0.12351967742E+02 -0.23857045534E+02  0.14696678841E+02  0.30622248414E+02  0.51100000000E-03 0.  1.
        -11    1    3    3    0    0 -0.33477918544E+01 -0.50872500315E+01 -0.11593521150E+01  0.61993484150E+01  0.51100000000E-03 0. -1.
         12    1    3    3    0    0  0.33677821860E+01 -0.66191876584E+01  0.80678632533E+01  0.10965674607E+02  0.00000000000E+00 0. -1.
</event>
<event>
 7    1  0.2682317E-010  0.4778727E+02  0.7816164E-02  0.1312668E+00
        -11   -1    0    0    0    0  0.00000000000E+00  0.00000000000E+00  0.45593999997E+02  0.45594000000E+02  0.51100000000E-03 0.  1.
         11   -1    0    0    0    0 -0.00000000000E+00 -0.00000000000E+00 -0.45593999997E+02  0.45594000000E+02  0.51100000000E-03 0. -1.
    9900012    2    1    2    0    0 -0.14936478894E+02 -0.35795023432E+02  0.19474116668E+02  0.47787270464E+02  0.19999997355E+02 0.  0.
         12    1    1    2    0    0  0.14936478894E+02  0.35795023432E+02 -0.19474116668E+02  0.43400729536E+02  0.00000000000E+00 0. -1.
         11    1    3    3    0    0 -0.35773235449E+01 -0.96560279557E+00  0.41201125645E+01  0.55412056729E+01  0.51100000000E-03 0. -1.
        -11    1    3    3    0    0 -0.63144021501E+01 -0.95237184176E+01  0.11400363593E+02  0.16141287970E+02  0.51100000000E-03 0.  1.
        -12    1    3    3    0    0 -0.50447531990E+01 -0.25305702219E+02  0.39536405101E+01  0.26104776822E+02  0.00000000000E+00 0.  1.
</event>
<event>
 7    1  0.2682317E-010  0.4778732E+02  0.7816164E-02  0.1312668E+00
        -11   -1    0    0    0    0  0.00000000000E+00  0.00000000000E+00  0.45593999997E+02  0.45594000000E+02  0.51100000000E-03 0. -1.
         11   -1    0    0    0    0 -0.00000000000E+00 -0.00000000000E+00 -0.45593999997E+02  0.45594000000E+02  0.51100000000E-03 0.  1.
    9900012    2    1    2    0    0 -0.17266219896E+02  0.17036864883E+02 -0.35989474658E+02  0.47787315665E+02  0.20000203444E+02 0.  0.
         12    1    1    2    0    0  0.17266219896E+02 -0.17036864883E+02  0.35989474658E+02  0.43400684335E+02  0.00000000000E+00 0. -1.
         11    1    3    3    0    0 -0.10858409401E+02  0.58503628964E+01 -0.12311682330E+02  0.17427258040E+02  0.51100000000E-03 0. -1.
        -11    1    3    3    0    0 -0.83079203760E+00  0.37027363348E+01  0.10434524684E+01  0.39356403659E+01  0.51100000000E-03 0.  1.
         12    1    3    3    0    0 -0.55770184574E+01  0.74837656517E+01 -0.24721244797E+02  0.26424417259E+02  0.00000000000E+00 0. -1.
</event>
<event>
 7    1  0.2682317E-010  0.4778727E+02  0.7816164E-02  0.1312668E+00
        -11   -1    0    0    0    0  0.00000000000E+00  0.00000000000E+00  0.45593999997E+02  0.45594000000E+02  0.51100000000E-03 0. -1.
         11   -1    0    0    0    0 -0.00000000000E+00 -0.00000000000E+00 -0.45593999997E+02  0.45594000000E+02  0.51100000000E-03 0.  1.
    9900012    2    1    2    0    0  0.25737123273E+02  0.27985986114E+02 -0.20928649642E+02  0.47787270640E+02  0.19999998157E+02 0.  0.
         12    1    1    2    0    0 -0.25737123273E+02 -0.27985986114E+02  0.20928649642E+02  0.43400729360E+02  0.00000000000E+00 0. -1.
         11    1    3    3    0    0 -0.15704094307E-01 -0.25100914520E+00  0.25079144036E+00  0.35517434765E+00  0.51100000000E-03 0. -1.
        -11    1    3    3    0    0  0.90208546003E+01  0.19267311195E+02 -0.36363919459E+01  0.21583059214E+02  0.51100000000E-03 0.  1.
         12    1    3    3    0    0  0.16731972767E+02  0.89696840645E+01 -0.17543049136E+02  0.25849037078E+02  0.00000000000E+00 0. -1.
</event>
<event>
 7    1  0.2682317E-010  0.4778727E+02  0.7816164E-02  0.1312668E+00
        -11   -1    0    0    0    0  0.00000000000E+00  0.00000000000E+00  0.45593999997E+02  0.45594000000E+02  0.51100000000E-03 0.  1.
         11   -1    0    0    0    0 -0.00000000000E+00 -0.00000000000E+00 -0.45593999997E+02  0.45594000000E+02  0.51100000000E-03 0. -1.
    9900012    2    1    2    0    0  0.39244872542E+01  0.15275979181E+02  0.40433477038E+02  0.47787271832E+02  0.20000003589E+02 0.  0.
         12    1    1    2    0    0 -0.39244872542E+01 -0.15275979181E+02 -0.40433477038E+02  0.43400728168E+02  0.00000000000E+00 0. -1.
         11    1    3    3    0    0 -0.26891765408E+01  0.13744889380E+01  0.76822630504E+01  0.82545778902E+01  0.51100000000E-03 0. -1.
        -11    1    3    3    0    0  0.60554951174E+01 -0.17290474576E+01  0.71116215632E+01  0.94991466852E+01  0.51100000000E-03 0.  1.
        -12    1    3    3    0    0  0.55816867759E+00  0.15630537701E+02  0.25639592425E+02  0.30033547256E+02  0.00000000000E+00 0.  1.
</event>
<event>
 7    1  0.2682317E-010  0.4778727E+02  0.7816164E-02  0.1312668E+00
        -11   -1    0    0    0    0  0.00000000000E+00  0.00000000000E+00  0.45593999997E+02  0.45594000000E+02  0.51100000000E-03 0. -1.
         11   -1    0    0    0    0 -0.00000000000E+00 -0.00000000000E+00 -0.45593999997E+02  0.45594000000E+02  0.51100000000E-03 0.  1.
    9900012    2    1    2    0    0  0.49000312474E+01  0.29304355715E+02 -0.31636489272E+02  0.47787273928E+02  0.20000013149E+02 0.  0.
         12    1    1    2    0    0 -0.49000312474E+01 -0.29304355715E+02  0.31636489272E+02  0.43400726072E+02  0.00000000000E+00 0. -1.
         11    1    3    3    0    0 -0.10013607757E+01  0.14512953342E+02 -0.13272933816E+02  0.19692620711E+02  0.51100000000E-03 0. -1.
        -11    1    3    3    0    0  0.48988672042E+01  0.16471423398E+02 -0.10832850172E+02  0.20313968882E+02  0.51100000000E-03 0.  1.
         12    1    3    3    0    0  0.10025248188E+01 -0.16800210246E+01 -0.75307052840E+01  0.77806843356E+01  0.00000000000E+00 0. -1.
</event>
<event>
 7    1  0.2682317E-010  0.4778727E+02  0.7816164E-02  0.1312668E+00
        -11   -1    0    0    0    0  0.00000000000E+00  0.00000000000E+00  0.45593999997E+02  0.45594000000E+02  0.51100000000E-03 0. -1.
         11   -1    0    0    0    0 -0.00000000000E+00 -0.00000000000E+00 -0.45593999997E+02  0.45594000000E+02  0.51100000000E-03 0.  1.
    9900012    2    1    2    0    0  0.40278888071E+02 -0.10274891190E+02 -0.12476423667E+02  0.47787270043E+02  0.19999995436E+02 0.  0.
         12    1    1    2    0    0 -0.40278888071E+02  0.10274891190E+02  0.12476423667E+02  0.43400729957E+02  0.00000000000E+00 0. -1.
         11    1    3    3    0    0  0.15531977489E+02  0.34144022642E+01  0.10037518318E+01  0.15934490439E+02  0.51100000000E-03 0. -1.
        -11    1    3    3    0    0  0.74586875312E+00 -0.17967856741E+01 -0.17285807936E+01  0.26024509173E+01  0.51100000000E-03 0.  1.
        -12    1    3    3    0    0  0.24001041829E+02 -0.11892507780E+02 -0.11751594705E+02  0.29250328687E+02  0.00000000000E+00 0.  1.
</event>
<event>
 7    1  0.2682317E-010  0.4778727E+02  0.7816164E-02  0.1312668E+00
        -11   -1    0    0    0    0  0.00000000000E+00  0.00000000000E+00  0.45593999997E+02  0.45594000000E+02  0.51100000000E-03 0.  1.
         11   -1    0    0    0    0 -0.00000000000E+00 -0.00000000000E+00 -0.45593999997E+02  0.45594000000E+02  0.51100000000E-03 0. -1.
    9900012    2    1    2    0    0 -0.12021276970E+02 -0.12916258730E+02  0.39652016587E+02  0.47787271216E+02  0.20000000780E+02 0.  0.
         12    1    1    2    0    0  0.12021276970E+02  0.12916258730E+02 -0.39652016587E+02  0.43400728784E+02  0.00000000000E+00 0. -1.
         11    1    3    3    0    0 -0.75290628731E+01  0.22328756152E+01  0.24065627327E+02  0.25314559845E+02  0.51100000000E-03 0. -1.
        -11    1    3    3    0    0 -0.25767435746E+01 -0.33079455492E+01  0.39343598925E+01  0.57498955843E+01  0.51100000000E-03 0.  1.
         12    1    3    3    0    0 -0.19154705225E+01 -0.11841188796E+02  0.11652029368E+02  0.16722815786E+02  0.00000000000E+00 0. -1.
</event>
<event>
 7    1  0.2682317E-010  0.4778727E+02  0.7816164E-02  0.1312668E+00
        -11   -1    0    0    0    0  0.00000000000E+00  0.00000000000E+00  0.45593999997E+02  0.45594000000E+02  0.51100000000E-03 0.  1.
         11   -1    0    0    0    0 -0.00000000000E+00 -0.00000000000E+00 -0.45593999997E+02  0.45594000000E+02  0.51100000000E-03 0. -1.
    9900012    2    1    2    0    0 -0.48177922028E+01  0.43104450062E+02 -0.15552305922E+01  0.47787268681E+02  0.19999989225E+02 0.  0.
         12    1    1    2    0    0  0.48177922028E+01 -0.43104450062E+02  0.15552305922E+01  0.43400731319E+02  0.00000000000E+00 0. -1.
         11    1    3    3    0    0 -0.54734681090E-02  0.56382511007E+00  0.16560116522E+01  0.17493723352E+01  0.51100000000E-03 0. -1.
        -11    1    3    3    0    0  0.13083187805E+00  0.34171135441E+02  0.33122332366E+01  0.34331538031E+02  0.51100000000E-03 0.  1.
        -12    1    3    3    0    0 -0.49431506127E+01  0.83694895109E+01 -0.65234754811E+01  0.11706358315E+02  0.00000000000E+00 0.  1.
</event>
<event>
 7    1  0.2682317E-010  0.4778726E+02  0.7816164E-02  0.1312668E+00
        -11   -1    0    0    0    0  0.00000000000E+00  0.00000000000E+00  0.45593999997E+02  0.45594000000E+02  0.51100000000E-03 0.  1.
         11   -1    0    0    0    0 -0.00000000000E+00 -0.00000000000E+00 -0.45593999997E+02  0.45594000000E+02  0.51100000000E-03 0. -1.
    9900012    2    1    2    0    0 -0.28424386925E+01  0.28489851716E+01  0.43213743827E+02  0.47787264640E+02  0.19999970800E+02 0.  0.
         12    1    1    2    0    0  0.28424386925E+01 -0.28489851716E+01 -0.43213743827E+02  0.43400735360E+02  0.00000000000E+00 0. -1.
         11    1    3    3    0    0  0.11669186516E+01  0.98557137580E+00  0.39382266077E+01  0.42240595582E+01  0.51100000000E-03 0. -1.
        -11    1    3    3    0    0  0.47023009203E+01  0.23432809491E+01  0.31314420548E+02  0.31752094956E+02  0.51100000000E-03 0.  1.
         12    1    3    3    0    0 -0.87116582644E+01 -0.47986715330E+00  0.79610966712E+01  0.11811110126E+02  0.00000000000E+00 0. -1.
</event>
<event>
 7    1  0.2682317E-010  0.4778727E+02  0.7816164E-02  0.1312668E+00
        -11   -1    0    0    0    0  0.00000000000E+00  0.00000000000E+00  0.45593999997E+02  0.45594000000E+02  0.51100000000E-03 0. -1.
         11   -1    0    0    0    0 -0.00000000000E+00 -0.00000000000E+00 -0.45593999997E+02  0.45594000000E+02  0.51100000000E-03 0.  1.
    9900012    2    1    2    0    0  0.39842101335E+02  0.98338282456E+00 -0.17183226679E+02  0.47787270056E+02  0.19999995496E+02 0.  0.
         12    1    1    2    0    0 -0.39842101335E+02 -0.98338282456E+00  0.17183226679E+02  0.43400729944E+02  0.00000000000E+00 0. -1.
         11    1    3    3    0    0  0.81639287905E+01 -0.32132465386E+01 -0.60291607272E+01  0.10645443436E+02  0.51100000000E-03 0. -1.
        -11    1    3    3    0    0  0.24206178198E+02  0.70661641310E+01 -0.13757227669E+02  0.28725094462E+02  0.51100000000E-03 0.  1.
         12    1    3    3    0    0  0.74719943464E+01 -0.28695347679E+01  0.26031617175E+01  0.84167321583E+01  0.00000000000E+00 0. -1.
</event>
<event>
 7    1  0.2682317E-010  0.4778727E+02  0.7816164E-02  0.1312668E+00
        -11   -1    0    0    0    0  0.00000000000E+00  0.00000000000E+00  0.45593999997E+02  0.45594000000E+02  0.51100000000E-03 0.  1.
         11   -1    0    0    0    0 -0.00000000000E+00 -0.00000000000E+00 -0.45593999997E+02  0.45594000000E+02  0.51100000000E-03 0. -1.
    9900012    2    1    2    0    0  0.43611877701E+01  0.37998536827E+02 -0.20511335657E+02  0.47787266709E+02  0.19999980232E+02 0.  0.
         12    1    1    2    0    0 -0.43611877701E+01 -0.37998536827E+02  0.20511335657E+02  0.43400733291E+02  0.00000000000E+00 0. -1.
         11    1    3    3    0    0 -0.16877834949E+00  0.38320702085E+01 -0.40259191205E+01  0.55606899967E+01  0.51100000000E-03 0.  1.
        -11    1    3    3    0    0  0.98423239712E+01  0.30307331938E+02 -0.11129506013E+02  0.33753097854E+02  0.51100000000E-03 0. -1.
         12    1    3    3    0    0 -0.53123578515E+01  0.38591346805E+01 -0.53559105235E+01  0.84734788582E+01  0.00000000000E+00 0. -1.
</event>
<event>
 7    1  0.2682317E-010  0.4778727E+02  0.7816164E-02  0.1312668E+00
        -11   -1    0    0    0    0  0.00000000000E+00  0.00000000000E+00  0.45593999997E+02  0.45594000000E+02  0.51100000000E-03 0.  1.
         11   -1    0    0    0    0 -0.00000000000E+00 -0.00000000000E+00 -0.45593999997E+02  0.45594000000E+02  0.51100000000E-03 0. -1.
    9900012    2    1    2    0    0 -0.14303057448E+02 -0.15011973044E+02  0.38127240177E+02  0.47787271544E+02  0.20000002277E+02 0.  0.
         12    1    1    2    0    0  0.14303057448E+02  0.15011973044E+02 -0.38127240177E+02  0.43400728456E+02  0.00000000000E+00 0. -1.
         11    1    3    3    0    0  0.32508727353E+01 -0.55798433258E+01  0.45010589999E+01  0.78716172076E+01  0.51100000000E-03 0. -1.
        -11    1    3    3    0    0 -0.15360033523E+01 -0.23773613674E+01  0.12142920030E+01  0.30798796566E+01  0.51100000000E-03 0.  1.
        -12    1    3    3    0    0 -0.16017926831E+02 -0.70547683506E+01  0.32411889174E+02  0.36835774680E+02  0.00000000000E+00 0.  1.
</event>
<event>
 7    1  0.2682317E-010  0.4778727E+02  0.7816164E-02  0.1312668E+00
        -11   -1    0    0    0    0  0.00000000000E+00  0.00000000000E+00  0.45593999997E+02  0.45594000000E+02  0.51100000000E-03 0. -1.
         11   -1    0    0    0    0 -0.00000000000E+00 -0.00000000000E+00 -0.45593999997E+02  0.45594000000E+02  0.51100000000E-03 0.  1.
    9900012    2    1    2    0    0  0.16786784027E+02  0.10961643872E+02 -0.38492461062E+02  0.47787270594E+02  0.19999997948E+02 0.  0.
         12    1    1    2    0    0 -0.16786784027E+02 -0.10961643872E+02  0.38492461062E+02  0.43400729406E+02  0.00000000000E+00 0. -1.
         11    1    3    3    0    0  0.28944103065E+01 -0.15138506242E+01 -0.40577147232E+00  0.32915050484E+01  0.51100000000E-03 0. -1.
        -11    1    3    3    0    0  0.15073535252E+02  0.95441279105E+01 -0.23143164050E+02  0.29221702295E+02  0.51100000000E-03 0.  1.
        -12    1    3    3    0    0 -0.11811615306E+01  0.29313665854E+01 -0.14943525540E+02  0.15274063251E+02  0.00000000000E+00 0.  1.
</event>
<event>
 7    1  0.2682317E-010  0.4778727E+02  0.7816164E-02  0.1312668E+00
        -11   -1    0    0    0    0  0.00000000000E+00  0.00000000000E+00  0.45593999997E+02  0.45594000000E+02  0.51100000000E-03 0.  1.
         11   -1    0    0    0    0 -0.00000000000E+00 -0.00000000000E+00 -0.45593999997E+02  0.45594000000E+02  0.51100000000E-03 0. -1.
    9900012    2    1    2    0    0 -0.17153198666E+02 -0.79271844288E+01  0.39071096596E+02  0.47787273432E+02  0.20000010885E+02 0.  0.
         12    1    1    2    0    0  0.17153198666E+02  0.79271844288E+01 -0.39071096596E+02  0.43400726568E+02  0.00000000000E+00 0. -1.
         11    1    3    3    0    0  0.21597096399E+00  0.34500410282E+01  0.50785105458E+01  0.61433456828E+01  0.51100000000E-03 0. -1.
        -11    1    3    3    0    0 -0.34770641430E+01  0.95736458738E+00  0.93805534048E+00  0.37264554325E+01  0.51100000000E-03 0.  1.
        -12    1    3    3    0    0 -0.13892105487E+02 -0.12334590044E+02  0.33054530709E+02  0.37917472316E+02  0.00000000000E+00 0.  1.
</event>
<event>
 7    1  0.2682317E-010  0.4778726E+02  0.7816164E-02  0.1312668E+00
        -11   -1    0    0    0    0  0.00000000000E+00  0.00000000000E+00  0.45593999997E+02  0.45594000000E+02  0.51100000000E-03 0.  1.
         11   -1    0    0    0    0 -0.00000000000E+00 -0.00000000000E+00 -0.45593999997E+02  0.45594000000E+02  0.51100000000E-03 0. -1.
    9900012    2    1    2    0    0  0.35718149632E+02  0.23506904165E+02  0.74339184746E+01  0.47787263826E+02  0.19999967087E+02 0.  0.
         12    1    1    2    0    0 -0.35718149632E+02 -0.23506904165E+02 -0.74339184746E+01  0.43400736174E+02  0.00000000000E+00 0. -1.
         11    1    3    3    0    0  0.59501054672E+01  0.10040806314E+02 -0.15461887191E+01  0.11773370219E+02  0.51100000000E-03 0. -1.
        -11    1    3    3    0    0  0.72311132264E+01  0.75291131075E+01  0.71155934406E+01  0.12633614406E+02  0.51100000000E-03 0.  1.
        -12    1    3    3    0    0  0.22536930939E+02  0.59369847437E+01  0.18645137531E+01  0.23380279201E+02  0.00000000000E+00 0.  1.
</event>
<event>
 7    1  0.2682317E-010  0.4778727E+02  0.7816164E-02  0.1312668E+00
        -11   -1    0    0    0    0  0.00000000000E+00  0.00000000000E+00  0.45593999997E+02  0.45594000000E+02  0.51100000000E-03 0. -1.
         11   -1    0    0    0    0 -0.00000000000E+00 -0.00000000000E+00 -0.45593999997E+02  0.45594000000E+02  0.51100000000E-03 0.  1.
    9900012    2    1    2    0    0  0.94394989208E+01  0.41487843311E+02  0.85602482935E+01  0.47787272663E+02  0.20000007382E+02 0.  0.
         12    1    1    2    0    0 -0.94394989208E+01 -0.41487843311E+02 -0.85602482935E+01  0.43400727337E+02  0.00000000000E+00 0. -1.
         11    1    3    3    0    0  0.13762519165E+01  0.14051844288E+02  0.95586958943E+01  0.17050427112E+02  0.51100000000E-03 0. -1.
        -11    1    3    3    0    0  0.57782738252E+01  0.36740920059E+01 -0.89200660730E-01  0.68480185080E+01  0.51100000000E-03 0.  1.
        -12    1    3    3    0    0  0.22849731791E+01  0.23761907017E+02 -0.90924694003E+00  0.23888827044E+02  0.00000000000E+00 0.  1.
</event>
<event>
 7    1  0.2682317E-010  0.4778727E+02  0.7816164E-02  0.1312668E+00
        -11   -1    0    0    0    0  0.00000000000E+00  0.00000000000E+00  0.45593999997E+02  0.45594000000E+02  0.51100000000E-03 0.  1.
         11   -1    0    0    0    0 -0.00000000000E+00 -0.00000000000E+00 -0.45593999997E+02  0.45594000000E+02  0.51100000000E-03 0. -1.
    9900012    2    1    2    0    0  0.31325559041E+02  0.16192569498E+02 -0.25300855963E+02  0.47787271104E+02  0.20000000274E+02 0.  0.
         12    1    1    2    0    0 -0.31325559041E+02 -0.16192569498E+02  0.25300855963E+02  0.43400728896E+02  0.00000000000E+00 0. -1.
         11    1    3    3    0    0  0.94643495177E+00  0.28524281044E+01  0.53591334637E+00  0.30527509863E+01  0.51100000000E-03 0. -1.
        -11    1    3    3    0    0  0.20509341744E+02  0.14053160570E+02 -0.24217291816E+02  0.34707371609E+02  0.51100000000E-03 0.  1.
        -12    1    3    3    0    0  0.98697823449E+01 -0.71301917597E+00 -0.16194774932E+01  0.10027148510E+02  0.00000000000E+00 0.  1.
</event>
<event>
 7    1  0.2682317E-010  0.4778727E+02  0.7816164E-02  0.1312668E+00
        -11   -1    0    0    0    0  0.00000000000E+00  0.00000000000E+00  0.45593999997E+02  0.45594000000E+02  0.51100000000E-03 0. -1.
         11   -1    0    0    0    0 -0.00000000000E+00 -0.00000000000E+00 -0.45593999997E+02  0.45594000000E+02  0.51100000000E-03 0.  1.
    9900012    2    1    2    0    0  0.34344471666E+02 -0.25116937561E+02 -0.85568706018E+01  0.47787270502E+02  0.19999997527E+02 0.  0.
         12    1    1    2    0    0 -0.34344471666E+02  0.25116937561E+02  0.85568706018E+01  0.43400729498E+02  0.00000000000E+00 0. -1.
         11    1    3    3    0    0  0.30405993753E+00 -0.22655947770E+00 -0.24696168180E+01  0.24985574100E+01  0.51100000000E-03 0. -1.
        -11    1    3    3    0    0  0.12543000982E+02 -0.10099305781E+02  0.51079823381E+01  0.16894210095E+02  0.51100000000E-03 0.  1.
        -12    1    3    3    0    0  0.21497410746E+02 -0.14791072303E+02 -0.11195236122E+02  0.28394502997E+02  0.00000000000E+00 0.  1.
</event>
<event>
 7    1  0.2682317E-010  0.4778727E+02  0.7816164E-02  0.1312668E+00
        -11   -1    0    0    0    0  0.00000000000E+00  0.00000000000E+00  0.45593999997E+02  0.45594000000E+02  0.51100000000E-03 0. -1.
         11   -1    0    0    0    0 -0.00000000000E+00 -0.00000000000E+00 -0.45593999997E+02  0.45594000000E+02  0.51100000000E-03 0.  1.
    9900012    2    1    2    0    0  0.72953077830E+01  0.35622724235E+02 -0.23694377598E+02  0.47787268124E+02  0.19999986686E+02 0.  0.
         12    1    1    2    0    0 -0.72953077830E+01 -0.35622724235E+02  0.23694377598E+02  0.43400731876E+02  0.00000000000E+00 0. -1.
         11    1    3    3    0    0  0.27977056443E+01  0.10083811344E+02 -0.64803356616E+01  0.12308743179E+02  0.51100000000E-03 0. -1.
        -11    1    3    3    0    0 -0.12050887099E+01  0.21611438008E+02 -0.18454208754E+02  0.28444055839E+02  0.51100000000E-03 0.  1.
         12    1    3    3    0    0  0.57026908486E+01  0.39274748832E+01  0.12401668176E+01  0.70344691064E+01  0.00000000000E+00 0. -1.
</event>
<event>
 7    1  0.2682317E-010  0.4778727E+02  0.7816164E-02  0.1312668E+00
        -11   -1    0    0    0    0  0.00000000000E+00  0.00000000000E+00  0.45593999997E+02  0.45594000000E+02  0.51100000000E-03 0.  1.
         11   -1    0    0    0    0 -0.00000000000E+00 -0.00000000000E+00 -0.45593999997E+02  0.45594000000E+02  0.51100000000E-03 0. -1.
    9900012    2    1    2    0    0  0.17507402566E+02 -0.38261682169E+02  0.10637558033E+02  0.47787272957E+02  0.20000008719E+02 0.  0.
         12    1    1    2    0    0 -0.17507402566E+02  0.38261682169E+02 -0.10637558033E+02  0.43400727043E+02  0.00000000000E+00 0. -1.
         11    1    3    3    0    0  0.24503102704E+01  0.26415902474E+00  0.16834374142E+01  0.29845874422E+01  0.51100000000E-03 0. -1.
        -11    1    3    3    0    0 -0.25209358895E+01 -0.80867275123E+01 -0.22616961335E+00  0.84735725979E+01  0.51100000000E-03 0.  1.
        -12    1    3    3    0    0  0.17578028185E+02 -0.30439113681E+02  0.91802902319E+01  0.36329112917E+02  0.00000000000E+00 0.  1.
</event>
<event>
 7    1  0.2682317E-010  0.4778727E+02  0.7816164E-02  0.1312668E+00
        -11   -1    0    0    0    0  0.00000000000E+00  0.00000000000E+00  0.45593999997E+02  0.45594000000E+02  0.51100000000E-03 0.  1.
         11   -1    0    0    0    0 -0.00000000000E+00 -0.00000000000E+00 -0.45593999997E+02  0.45594000000E+02  0.51100000000E-03 0. -1.
    9900012    2    1    2    0    0 -0.34172759292E+02 -0.21397357480E+02  0.16062342203E+02  0.47787271644E+02  0.20000002734E+02 0.  0.
         12    1    1    2    0    0  0.34172759292E+02  0.21397357480E+02 -0.16062342203E+02  0.43400728356E+02  0.00000000000E+00 0. -1.
         11    1    3    3    0    0 -0.99730650917E+01 -0.80193910671E+01 -0.47226140543E+00  0.12806080255E+02  0.51100000000E-03 0. -1.
        -11    1    3    3    0    0 -0.16373521424E+02 -0.43481939989E+01  0.35010692342E+01  0.17299031213E+02  0.51100000000E-03 0.  1.
        -12    1    3    3    0    0 -0.78261727764E+01 -0.90297724139E+01  0.13033534374E+02  0.17682160175E+02  0.00000000000E+00 0.  1.
</event>
<event>
 7    1  0.2682317E-010  0.4778727E+02  0.7816164E-02  0.1312668E+00
        -11   -1    0    0    0    0  0.00000000000E+00  0.00000000000E+00  0.45593999997E+02  0.45594000000E+02  0.51100000000E-03 0.  1.
         11   -1    0    0    0    0 -0.00000000000E+00 -0.00000000000E+00 -0.45593999997E+02  0.45594000000E+02  0.51100000000E-03 0. -1.
    9900012    2    1    2    0    0  0.14848718881E+01  0.53101212071E+01  0.43049056193E+02  0.47787268775E+02  0.19999989654E+02 0.  0.
         12    1    1    2    0    0 -0.14848718881E+01 -0.53101212071E+01 -0.43049056193E+02  0.43400731225E+02  0.00000000000E+00 0. -1.
         11    1    3    3    0    0  0.65495226168E+00 -0.39350480959E+01  0.48660054484E+01  0.62921836644E+01  0.51100000000E-03 0.  1.
        -11    1    3    3    0    0  0.94450193162E-01  0.37283791040E+01  0.95041347244E+00  0.38487683240E+01  0.51100000000E-03 0. -1.
        -12    1    3    3    0    0  0.73546943322E+00  0.55167901990E+01  0.37232637272E+02  0.37646316787E+02  0.00000000000E+00 0.  1.
</event>
<event>
 7    1  0.2682317E-010  0.4778727E+02  0.7816164E-02  0.1312668E+00
        -11   -1    0    0    0    0  0.00000000000E+00  0.00000000000E+00  0.45593999997E+02  0.45594000000E+02  0.51100000000E-03 0. -1.
         11   -1    0    0    0    0 -0.00000000000E+00 -0.00000000000E+00 -0.45593999997E+02  0.45594000000E+02  0.51100000000E-03 0.  1.
    9900012    2    1    2    0    0  0.39747409443E+02  0.16657876355E+02 -0.51265636299E+01  0.47787273546E+02  0.20000011404E+02 0.  0.
         12    1    1    2    0    0 -0.39747409443E+02 -0.16657876355E+02  0.51265636299E+01  0.43400726454E+02  0.00000000000E+00 0. -1.
         11    1    3    3    0    0  0.15967579593E+02  0.89065929855E+01  0.70828353932E+01  0.19607589197E+02  0.51100000000E-03 0. -1.
        -11    1    3    3    0    0  0.66033272260E+01  0.46837488655E+00 -0.44334179166E+01  0.79673395919E+01  0.51100000000E-03 0.  1.
        -12    1    3    3    0    0  0.17176502624E+02  0.72829084834E+01 -0.77759811064E+01  0.20212344756E+02  0.00000000000E+00 0.  1.
</event>
<event>
 7    1  0.2682317E-010  0.4778727E+02  0.7816164E-02  0.1312668E+00
        -11   -1    0    0    0    0  0.00000000000E+00  0.00000000000E+00  0.45593999997E+02  0.45594000000E+02  0.51100000000E-03 0. -1.
         11   -1    0    0    0    0 -0.00000000000E+00 -0.00000000000E+00 -0.45593999997E+02  0.45594000000E+02  0.51100000000E-03 0.  1.
    9900012    2    1    2    0    0 -0.40059255560E+02 -0.57829538817E+01 -0.15666416709E+02  0.47787272770E+02  0.20000007866E+02 0.  0.
         12    1    1    2    0    0  0.40059255560E+02  0.57829538817E+01  0.15666416709E+02  0.43400727230E+02  0.00000000000E+00 0. -1.
         11    1    3    3    0    0 -0.63323945889E+01  0.39941868761E+00 -0.45371942813E+00  0.63611805585E+01  0.51100000000E-03 0. -1.
        -11    1    3    3    0    0 -0.30074032428E+02 -0.10676515382E+02 -0.95135979221E+01  0.33300810093E+02  0.51100000000E-03 0.  1.
        -12    1    3    3    0    0 -0.36528285432E+01  0.44941428130E+01 -0.56990993587E+01  0.81252821176E+01  0.00000000000E+00 0.  1.
</event>
<event>
 7    1  0.2682317E-010  0.4778727E+02  0.7816164E-02  0.1312668E+00
        -11   -1    0    0    0    0  0.00000000000E+00  0.00000000000E+00  0.45593999997E+02  0.45594000000E+02  0.51100000000E-03 0. -1.
         11   -1    0    0    0    0 -0.00000000000E+00 -0.00000000000E+00 -0.45593999997E+02  0.45594000000E+02  0.51100000000E-03 0.  1.
    9900012    2    1    2    0    0  0.90721599423E+01  0.36633383742E+02 -0.21431623073E+02  0.47787270076E+02  0.19999995586E+02 0.  0.
         12    1    1    2    0    0 -0.90721599423E+01 -0.36633383742E+02  0.21431623073E+02  0.43400729924E+02  0.00000000000E+00 0. -1.
         11    1    3    3    0    0  0.18938963378E+01  0.62910750989E+01 -0.62345921744E+01  0.90572959034E+01  0.51100000000E-03 0.  1.
        -11    1    3    3    0    0  0.74255081576E+01  0.45406316919E+01  0.15556358147E+00  0.87051540968E+01  0.51100000000E-03 0. -1.
        -12    1    3    3    0    0 -0.24724455315E+00  0.25801676951E+02 -0.15352594480E+02  0.30024820076E+02  0.00000000000E+00 0.  1.
</event>
<event>
 7    1  0.2682317E-010  0.4778721E+02  0.7816164E-02  0.1312668E+00
        -11   -1    0    0    0    0  0.00000000000E+00  0.00000000000E+00  0.45593999997E+02  0.45594000000E+02  0.51100000000E-03 0.  1.
         11   -1    0    0    0    0 -0.00000000000E+00 -0.00000000000E+00 -0.45593999997E+02  0.45594000000E+02  0.51100000000E-03 0. -1.
    9900012    2    1    2    0    0 -0.25414288042E+02 -0.91341257366E+00  0.35169707911E+02  0.47787208374E+02  0.19999714259E+02 0.  0.
         12    1    1    2    0    0  0.25414288042E+02  0.91341257366E+00 -0.35169707911E+02  0.43400791626E+02  0.00000000000E+00 0. -1.
         11    1    3    3    0    0 -0.13762941143E+01 -0.29297868405E+01  0.69768748379E+01  0.76912040140E+01  0.51100000000E-03 0. -1.
        -11    1    3    3    0    0 -0.15857051209E+02  0.20633621107E+01  0.27594664798E+02  0.31893087995E+02  0.51100000000E-03 0.  1.
         12    1    3    3    0    0 -0.81809427182E+01 -0.46987843844E-01  0.59816827524E+00  0.82029163656E+01  0.00000000000E+00 0. -1.
</event>
<event>
 7    1  0.2682317E-010  0.4778726E+02  0.7816164E-02  0.1312668E+00
        -11   -1    0    0    0    0  0.00000000000E+00  0.00000000000E+00  0.45593999997E+02  0.45594000000E+02  0.51100000000E-03 0. -1.
         11   -1    0    0    0    0 -0.00000000000E+00 -0.00000000000E+00 -0.45593999997E+02  0.45594000000E+02  0.51100000000E-03 0.  1.
    9900012    2    1    2    0    0  0.27199003117E+02 -0.16147863944E+02 -0.29716739136E+02  0.47787264230E+02  0.19999968932E+02 0.  0.
         12    1    1    2    0    0 -0.27199003117E+02  0.16147863944E+02  0.29716739136E+02  0.43400735770E+02  0.00000000000E+00 0. -1.
         11    1    3    3    0    0  0.37337409581E+01 -0.28846178002E-01  0.11888137016E+01  0.39185369619E+01  0.51100000000E-03 0. -1.
        -11    1    3    3    0    0  0.13093114277E+00 -0.51151899977E+01 -0.71971180857E+01  0.88306749842E+01  0.51100000000E-03 0.  1.
        -12    1    3    3    0    0  0.23334331016E+02 -0.11003827768E+02 -0.23708434751E+02  0.35038052284E+02  0.00000000000E+00 0.  1.
</event>
<event>
 7    1  0.2682317E-010  0.4778726E+02  0.7816164E-02  0.1312668E+00
        -11   -1    0    0    0    0  0.00000000000E+00  0.00000000000E+00  0.45593999997E+02  0.45594000000E+02  0.51100000000E-03 0. -1.
         11   -1    0    0    0    0 -0.00000000000E+00 -0.00000000000E+00 -0.45593999997E+02  0.45594000000E+02  0.51100000000E-03 0.  1.
    9900012    2    1    2    0    0  0.80640097288E+01  0.31449167735E+02 -0.28801835690E+02  0.47787261029E+02  0.19999954336E+02 0.  0.
         12    1    1    2    0    0 -0.80640097288E+01 -0.31449167735E+02  0.28801835690E+02  0.43400738971E+02  0.00000000000E+00 0. -1.
         11    1    3    3    0    0 -0.38251106078E+01  0.24314699663E+01 -0.64436993820E+00  0.45780705802E+01  0.51100000000E-03 0. -1.
        -11    1    3    3    0    0  0.54227997922E+01  0.45108243991E+01 -0.90174154539E+01  0.11448496673E+02  0.51100000000E-03 0.  1.
         12    1    3    3    0    0  0.64663205444E+01  0.24506873369E+02 -0.19140050298E+02  0.31760693776E+02  0.00000000000E+00 0. -1.
</event>
<event>
 7    1  0.2682317E-010  0.4778724E+02  0.7816164E-02  0.1312668E+00
        -11   -1    0    0    0    0  0.00000000000E+00  0.00000000000E+00  0.45593999997E+02  0.45594000000E+02  0.51100000000E-03 0.  1.
         11   -1    0    0    0    0 -0.00000000000E+00 -0.00000000000E+00 -0.45593999997E+02  0.45594000000E+02  0.51100000000E-03 0. -1.
    9900012    2    1    2    0    0 -0.42088495995E+02 -0.13990839743E+01 -0.10498901309E+02  0.47787241253E+02  0.19999864168E+02 0.  0.
         12    1    1    2    0    0  0.42088495995E+02  0.13990839743E+01  0.10498901309E+02  0.43400758747E+02  0.00000000000E+00 0. -1.
         11    1    3    3    0    0 -0.38289804271E+01 -0.14955782169E+01  0.83796289088E+00  0.41952386561E+01  0.51100000000E-03 0.  1.
        -11    1    3    3    0    0 -0.32028792746E+01 -0.45553519800E+01  0.18221383081E+01  0.58591685063E+01  0.51100000000E-03 0. -1.
         12    1    3    3    0    0 -0.35056636294E+02  0.46518462226E+01 -0.13159002508E+02  0.37732834091E+02  0.00000000000E+00 0. -1.
</event>
<event>
 7    1  0.2682317E-010  0.4778727E+02  0.7816164E-02  0.1312668E+00
        -11   -1    0    0    0    0  0.00000000000E+00  0.00000000000E+00  0.45593999997E+02  0.45594000000E+02  0.51100000000E-03 0. -1.
         11   -1    0    0    0    0 -0.00000000000E+00 -0.00000000000E+00 -0.45593999997E+02  0.45594000000E+02  0.51100000000E-03 0.  1.
    9900012    2    1    2    0    0 -0.37667137906E+02  0.18720501537E+02  0.10693583940E+02  0.47787271973E+02  0.20000004233E+02 0.  0.
         12    1    1    2    0    0  0.37667137906E+02 -0.18720501537E+02 -0.10693583940E+02  0.43400728027E+02  0.00000000000E+00 0. -1.
         11    1    3    3    0    0 -0.13415521136E+02  0.80922864101E+01 -0.43951102605E+00  0.15673368397E+02  0.51100000000E-03 0. -1.
        -11    1    3    3    0    0 -0.13652570069E+02  0.12887264960E+02  0.41675898342E+01  0.19231304504E+02  0.51100000000E-03 0.  1.
         12    1    3    3    0    0 -0.10599046701E+02 -0.22590498328E+01  0.69655051318E+01  0.12882599072E+02  0.00000000000E+00 0. -1.
</event>
<event>
 7    1  0.2682317E-010  0.4778727E+02  0.7816164E-02  0.1312668E+00
        -11   -1    0    0    0    0  0.00000000000E+00  0.00000000000E+00  0.45593999997E+02  0.45594000000E+02  0.51100000000E-03 0.  1.
         11   -1    0    0    0    0 -0.00000000000E+00 -0.00000000000E+00 -0.45593999997E+02  0.45594000000E+02  0.51100000000E-03 0. -1.
    9900012    2    1    2    0    0 -0.29366142769E+02  0.20846796491E+02  0.24221141802E+02  0.47787274485E+02  0.20000015686E+02 0.  0.
         12    1    1    2    0    0  0.29366142769E+02 -0.20846796491E+02 -0.24221141802E+02  0.43400725515E+02  0.00000000000E+00 0. -1.
         11    1    3    3    0    0 -0.19396645390E+02  0.37495873376E+01  0.85279886433E+01  0.21517803051E+02  0.51100000000E-03 0. -1.
        -11    1    3    3    0    0 -0.26503733945E+01  0.51928214125E+01  0.91250188038E+01  0.10828473659E+02  0.51100000000E-03 0.  1.
        -12    1    3    3    0    0 -0.73191239848E+01  0.11904387741E+02  0.65681343545E+01  0.15440997775E+02  0.00000000000E+00 0.  1.
</event>
<event>
 7    1  0.2682317E-010  0.4778727E+02  0.7816164E-02  0.1312668E+00
        -11   -1    0    0    0    0  0.00000000000E+00  0.00000000000E+00  0.45593999997E+02  0.45594000000E+02  0.51100000000E-03 0. -1.
         11   -1    0    0    0    0 -0.00000000000E+00 -0.00000000000E+00 -0.45593999997E+02  0.45594000000E+02  0.51100000000E-03 0.  1.
    9900012    2    1    2    0    0 -0.62378876818E+01  0.24565238870E+02 -0.35231533697E+02  0.47787272240E+02  0.20000005452E+02 0.  0.
         12    1    1    2    0    0  0.62378876818E+01 -0.24565238870E+02  0.35231533697E+02  0.43400727760E+02  0.00000000000E+00 0. -1.
         11    1    3    3    0    0  0.35951760341E+01  0.46224268752E+01 -0.13534557929E+02  0.14747080373E+02  0.51100000000E-03 0.  1.
        -11    1    3    3    0    0 -0.33809860923E+01  0.10046048437E+01 -0.81434176940E+01  0.88744323676E+01  0.51100000000E-03 0. -1.
        -12    1    3    3    0    0 -0.64520776236E+01  0.18938207151E+02 -0.13553558074E+02  0.24165759500E+02  0.00000000000E+00 0.  1.
</event>
<event>
 7    1  0.2682317E-010  0.4778727E+02  0.7816164E-02  0.1312668E+00
        -11   -1    0    0    0    0  0.00000000000E+00  0.00000000000E+00  0.45593999997E+02  0.45594000000E+02  0.51100000000E-03 0.  1.
         11   -1    0    0    0    0 -0.00000000000E+00 -0.00000000000E+00 -0.45593999997E+02  0.45594000000E+02  0.51100000000E-03 0. -1.
    9900012    2    1    2    0    0 -0.27189831320E+02  0.33597899508E+02 -0.39392757333E+01  0.47787266459E+02  0.19999979093E+02 0.  0.
         12    1    1    2    0    0  0.27189831320E+02 -0.33597899508E+02  0.39392757333E+01  0.43400733541E+02  0.00000000000E+00 0. -1.
         11    1    3    3    0    0 -0.14232383059E+00 -0.71833270076E+00  0.13650835064E+01  0.15491001202E+01  0.51100000000E-03 0. -1.
        -11    1    3    3    0    0 -0.92033478652E+01  0.15782521460E+02  0.43123403855E+01  0.18771943837E+02  0.51100000000E-03 0.  1.
         12    1    3    3    0    0 -0.17844159625E+02  0.18533710749E+02 -0.96166996253E+01  0.27466222502E+02  0.00000000000E+00 0. -1.
</event>
<event>
 7    1  0.2682317E-010  0.4778725E+02  0.7816164E-02  0.1312668E+00
        -11   -1    0    0    0    0  0.00000000000E+00  0.00000000000E+00  0.45593999997E+02  0.45594000000E+02  0.51100000000E-03 0. -1.
         11   -1    0    0    0    0 -0.00000000000E+00 -0.00000000000E+00 -0.45593999997E+02  0.45594000000E+02  0.51100000000E-03 0.  1.
    9900012    2    1    2    0    0  0.11992996004E+02  0.13753153902E+02 -0.39378214838E+02  0.47787251167E+02  0.19999909370E+02 0.  0.
         12    1    1    2    0    0 -0.11992996004E+02 -0.13753153902E+02  0.39378214838E+02  0.43400748833E+02  0.00000000000E+00 0. -1.
         11    1    3    3    0    0  0.13832630365E+01 -0.21508727899E+01  0.78276602304E-01  0.25584756935E+01  0.51100000000E-03 0. -1.
        -11    1    3    3    0    0 -0.19248363380E+01  0.38805873768E+01 -0.11806332429E+02  0.12575907085E+02  0.51100000000E-03 0.  1.
        -12    1    3    3    0    0  0.12534569305E+02  0.12023439316E+02 -0.27650159011E+02  0.32652868388E+02  0.00000000000E+00 0.  1.
</event>
<event>
 7    1  0.2682317E-010  0.4778727E+02  0.7816164E-02  0.1312668E+00
        -11   -1    0    0    0    0  0.00000000000E+00  0.00000000000E+00  0.45593999997E+02  0.45594000000E+02  0.51100000000E-03 0.  1.
         11   -1    0    0    0    0 -0.00000000000E+00 -0.00000000000E+00 -0.45593999997E+02  0.45594000000E+02  0.51100000000E-03 0. -1.
    9900012    2    1    2    0    0 -0.45057173344E+01 -0.42281194843E+02  0.86961161186E+01  0.47787270034E+02  0.19999995394E+02 0.  0.
         12    1    1    2    0    0  0.45057173344E+01  0.42281194843E+02 -0.86961161186E+01  0.43400729966E+02  0.00000000000E+00 0. -1.
         11    1    3    3    0    0 -0.21515444824E+01 -0.42548294798E+01 -0.20207498563E+01  0.51784310177E+01  0.51100000000E-03 0. -1.
        -11    1    3    3    0    0 -0.69198785769E+01 -0.14372570140E+02 -0.66388168802E+00  0.15965469962E+02  0.51100000000E-03 0.  1.
         12    1    3    3    0    0  0.45657057249E+01 -0.23653795223E+02  0.11380747663E+02  0.26643369055E+02  0.00000000000E+00 0. -1.
</event>
<event>
 7    1  0.2682317E-010  0.4778727E+02  0.7816164E-02  0.1312668E+00
        -11   -1    0    0    0    0  0.00000000000E+00  0.00000000000E+00  0.45593999997E+02  0.45594000000E+02  0.51100000000E-03 0. -1.
         11   -1    0    0    0    0 -0.00000000000E+00 -0.00000000000E+00 -0.45593999997E+02  0.45594000000E+02  0.51100000000E-03 0.  1.
    9900012    2    1    2    0    0 -0.30078768861E+02  0.11268157650E+02 -0.29187658432E+02  0.47787272843E+02  0.20000008201E+02 0.  0.
         12    1    1    2    0    0  0.30078768861E+02 -0.11268157650E+02  0.29187658432E+02  0.43400727157E+02  0.00000000000E+00 0. -1.
         11    1    3    3    0    0 -0.18174549745E+02  0.88005886909E+01 -0.14451206349E+02  0.24831471663E+02  0.51100000000E-03 0. -1.
        -11    1    3    3    0    0 -0.14087346639E+02  0.39579954624E+01 -0.13902193702E+02  0.20183905801E+02  0.51100000000E-03 0.  1.
         12    1    3    3    0    0  0.21831275232E+01 -0.14904265036E+01 -0.83425838091E+00  0.27718953788E+01  0.00000000000E+00 0. -1.
</event>
<event>
 7    1  0.2682317E-010  0.4778727E+02  0.7816164E-02  0.1312668E+00
        -11   -1    0    0    0    0  0.00000000000E+00  0.00000000000E+00  0.45593999997E+02  0.45594000000E+02  0.51100000000E-03 0. -1.
         11   -1    0    0    0    0 -0.00000000000E+00 -0.00000000000E+00 -0.45593999997E+02  0.45594000000E+02  0.51100000000E-03 0.  1.
    9900012    2    1    2    0    0  0.39571856411E+02  0.11926920772E+01 -0.17783959811E+02  0.47787267739E+02  0.19999984929E+02 0.  0.
         12    1    1    2    0    0 -0.39571856411E+02 -0.11926920772E+01  0.17783959811E+02  0.43400732261E+02  0.00000000000E+00 0. -1.
         11    1    3    3    0    0  0.24728579102E+01 -0.13034929725E+01 -0.40867319490E+01  0.49513128014E+01  0.51100000000E-03 0. -1.
        -11    1    3    3    0    0  0.32384629480E+02  0.14430057063E+01 -0.17361167175E+02  0.36773042000E+02  0.51100000000E-03 0.  1.
         12    1    3    3    0    0  0.47143690213E+01  0.10531793434E+01  0.36639393127E+01  0.60629129374E+01  0.00000000000E+00 0. -1.
</event>
<event>
 7    1  0.2682317E-010  0.4778727E+02  0.7816164E-02  0.1312668E+00
        -11   -1    0    0    0    0  0.00000000000E+00  0.00000000000E+00  0.45593999997E+02  0.45594000000E+02  0.51100000000E-03 0.  1.
         11   -1    0    0    0    0 -0.00000000000E+00 -0.00000000000E+00 -0.45593999997E+02  0.45594000000E+02  0.51100000000E-03 0. -1.
    9900012    2    1    2    0    0 -0.76627584060E+01  0.42544153896E+02 -0.38600992493E+01  0.47787271166E+02  0.20000000552E+02 0.  0.
         12    1    1    2    0    0  0.76627584060E+01 -0.42544153896E+02  0.38600992493E+01  0.43400728834E+02  0.00000000000E+00 0. -1.
         11    1    3    3    0    0 -0.46689095036E+01  0.15347768481E+02 -0.14123751363E+01  0.16104270151E+02  0.51100000000E-03 0. -1.
        -11    1    3    3    0    0 -0.64494190163E+01  0.23877273229E+02 -0.63140840704E+01  0.25526199098E+02  0.51100000000E-03 0.  1.
         12    1    3    3    0    0  0.34555701139E+01  0.33191121861E+01  0.38663599574E+01  0.61568019163E+01  0.00000000000E+00 0. -1.
</event>
<event>
 7    1  0.2682317E-010  0.4778727E+02  0.7816164E-02  0.1312668E+00
        -11   -1    0    0    0    0  0.00000000000E+00  0.00000000000E+00  0.45593999997E+02  0.45594000000E+02  0.51100000000E-03 0. -1.
         11   -1    0    0    0    0 -0.00000000000E+00 -0.00000000000E+00 -0.45593999997E+02  0.45594000000E+02  0.51100000000E-03 0.  1.
    9900012    2    1    2    0    0 -0.16193785908E+02 -0.34246560666E+02  0.21179178098E+02  0.47787271845E+02  0.20000003650E+02 0.  0.
         12    1    1    2    0    0  0.16193785908E+02  0.34246560666E+02 -0.21179178098E+02  0.43400728155E+02  0.00000000000E+00 0. -1.
         11    1    3    3    0    0 -0.18069340043E+01 -0.33717283261E+01  0.51913689502E+01  0.64485559809E+01  0.51100000000E-03 0. -1.
        -11    1    3    3    0    0 -0.10814913480E+02 -0.19858429494E+02  0.18816389553E+02  0.29417275395E+02  0.51100000000E-03 0.  1.
         12    1    3    3    0    0 -0.35719384236E+01 -0.11016402846E+02 -0.28285804055E+01  0.11921440470E+02  0.00000000000E+00 0. -1.
</event>
<event>
 7    1  0.2682317E-010  0.4778727E+02  0.7816164E-02  0.1312668E+00
        -11   -1    0    0    0    0  0.00000000000E+00  0.00000000000E+00  0.45593999997E+02  0.45594000000E+02  0.51100000000E-03 0.  1.
         11   -1    0    0    0    0 -0.00000000000E+00 -0.00000000000E+00 -0.45593999997E+02  0.45594000000E+02  0.51100000000E-03 0. -1.
    9900012    2    1    2    0    0 -0.27276293262E+02  0.58156985106E+01  0.33253638992E+02  0.47787273860E+02  0.20000012838E+02 0.  0.
         12    1    1    2    0    0  0.27276293262E+02 -0.58156985106E+01 -0.33253638992E+02  0.43400726140E+02  0.00000000000E+00 0. -1.
         11    1    3    3    0    0 -0.11729316019E+02  0.38800127403E+01  0.12019910920E+02  0.17236867811E+02  0.51100000000E-03 0.  1.
        -11    1    3    3    0    0 -0.12493956234E+02 -0.33764484150E+01  0.20683341253E+02  0.24398769476E+02  0.51100000000E-03 0. -1.
         12    1    3    3    0    0 -0.30530210093E+01  0.53121341854E+01  0.55038681840E+00  0.61516365738E+01  0.00000000000E+00 0. -1.
</event>
<event>
 7    1  0.2682317E-010  0.4778727E+02  0.7816164E-02  0.1312668E+00
        -11   -1    0    0    0    0  0.00000000000E+00  0.00000000000E+00  0.45593999997E+02  0.45594000000E+02  0.51100000000E-03 0.  1.
         11   -1    0    0    0    0 -0.00000000000E+00 -0.00000000000E+00 -0.45593999997E+02  0.45594000000E+02  0.51100000000E-03 0. -1.
    9900012    2    1    2    0    0 -0.10656183154E+02  0.10205385437E+02  0.40815672950E+02  0.47787270862E+02  0.19999999169E+02 0.  0.
         12    1    1    2    0    0  0.10656183154E+02 -0.10205385437E+02 -0.40815672950E+02  0.43400729138E+02  0.00000000000E+00 0. -1.
         11    1    3    3    0    0  0.76536032762E+00  0.93674452261E+01  0.26783404125E+02  0.28384600460E+02  0.51100000000E-03 0. -1.
        -11    1    3    3    0    0 -0.40565084940E+01  0.36156299800E+01  0.46175538301E+01  0.71309077227E+01  0.51100000000E-03 0.  1.
        -12    1    3    3    0    0 -0.73650349879E+01 -0.27776897690E+01  0.94147149945E+01  0.12271762679E+02  0.00000000000E+00 0.  1.
</event>
<event>
 7    1  0.2682317E-010  0.4778727E+02  0.7816164E-02  0.1312668E+00
        -11   -1    0    0    0    0  0.00000000000E+00  0.00000000000E+00  0.45593999997E+02  0.45594000000E+02  0.51100000000E-03 0. -1.
         11   -1    0    0    0    0 -0.00000000000E+00 -0.00000000000E+00 -0.45593999997E+02  0.45594000000E+02  0.51100000000E-03 0.  1.
    9900012    2    1    2    0    0 -0.34048715281E+02  0.19123489497E+02 -0.18936744616E+02  0.47787272362E+02  0.20000006008E+02 0.  0.
         12    1    1    2    0    0  0.34048715281E+02 -0.19123489497E+02  0.18936744616E+02  0.43400727638E+02  0.00000000000E+00 0. -1.
         11    1    3    3    0    0 -0.71474550339E+01  0.10036355024E+02 -0.57097176918E+01  0.13579963624E+02  0.51100000000E-03 0. -1.
        -11    1    3    3    0    0 -0.25315876211E+01  0.45633096010E+01 -0.68550419815E+01  0.86153543878E+01  0.51100000000E-03 0.  1.
        -12    1    3    3    0    0 -0.24369672626E+02  0.45238248718E+01 -0.63719849423E+01  0.25591954351E+02  0.00000000000E+00 0.  1.
</event>
<event>
 7    1  0.2682317E-010  0.4778727E+02  0.7816164E-02  0.1312668E+00
        -11   -1    0    0    0    0  0.00000000000E+00  0.00000000000E+00  0.45593999997E+02  0.45594000000E+02  0.51100000000E-03 0. -1.
         11   -1    0    0    0    0 -0.00000000000E+00 -0.00000000000E+00 -0.45593999997E+02  0.45594000000E+02  0.51100000000E-03 0.  1.
    9900012    2    1    2    0    0  0.10519823750E+02  0.17321344594E+02 -0.38378737225E+02  0.47787272572E+02  0.20000006963E+02 0.  0.
         12    1    1    2    0    0 -0.10519823750E+02 -0.17321344594E+02  0.38378737225E+02  0.43400727428E+02  0.00000000000E+00 0. -1.
         11    1    3    3    0    0  0.16348444449E+01  0.12078031540E+00 -0.31174419910E+01  0.35221795911E+01  0.51100000000E-03 0. -1.
        -11    1    3    3    0    0 -0.17205108546E+01 -0.10777617867E+01  0.10246328206E+01  0.22741153770E+01  0.51100000000E-03 0.  1.
        -12    1    3    3    0    0  0.10605490159E+02  0.18278326066E+02 -0.36285928055E+02  0.41990977604E+02  0.00000000000E+00 0.  1.
</event>
<event>
 7    1  0.2682317E-010  0.4778727E+02  0.7816164E-02  0.1312668E+00
        -11   -1    0    0    0    0  0.00000000000E+00  0.00000000000E+00  0.45593999997E+02  0.45594000000E+02  0.51100000000E-03 0.  1.
         11   -1    0    0    0    0 -0.00000000000E+00 -0.00000000000E+00 -0.45593999997E+02  0.45594000000E+02  0.51100000000E-03 0. -1.
    9900012    2    1    2    0    0 -0.27549885321E+01  0.41238829097E+02 -0.13243566673E+02  0.47787273677E+02  0.20000012004E+02 0.  0.
         12    1    1    2    0    0  0.27549885321E+01 -0.41238829097E+02  0.13243566673E+02  0.43400726323E+02  0.00000000000E+00 0. -1.
         11    1    3    3    0    0 -0.99510693934E+00  0.20001015600E+02 -0.10430282289E+02  0.22579230539E+02  0.51100000000E-03 0. -1.
        -11    1    3    3    0    0 -0.44007351809E+01  0.16150748493E+02 -0.69649191874E+01  0.18130726586E+02  0.51100000000E-03 0.  1.
        -12    1    3    3    0    0  0.26408535882E+01  0.50870650048E+01  0.41516348030E+01  0.70773165518E+01  0.00000000000E+00 0.  1.
</event>
<event>
 7    1  0.2682317E-010  0.4778727E+02  0.7816164E-02  0.1312668E+00
        -11   -1    0    0    0    0  0.00000000000E+00  0.00000000000E+00  0.45593999997E+02  0.45594000000E+02  0.51100000000E-03 0. -1.
         11   -1    0    0    0    0 -0.00000000000E+00 -0.00000000000E+00 -0.45593999997E+02  0.45594000000E+02  0.51100000000E-03 0.  1.
    9900012    2    1    2    0    0  0.42257294710E+02 -0.98208333131E+01 -0.12229784449E+01  0.47787269598E+02  0.19999993404E+02 0.  0.
         12    1    1    2    0    0 -0.42257294710E+02  0.98208333131E+01  0.12229784449E+01  0.43400730402E+02  0.00000000000E+00 0. -1.
         11    1    3    3    0    0  0.28047989478E+01  0.46650348151E+01  0.75581358918E+00  0.54955164823E+01  0.51100000000E-03 0. -1.
        -11    1    3    3    0    0  0.61838892019E+01 -0.38482744723E+01 -0.98393346527E+00  0.73496821292E+01  0.51100000000E-03 0.  1.
         12    1    3    3    0    0  0.33268606560E+02 -0.10637593656E+02 -0.99485856878E+00  0.34942070986E+02  0.00000000000E+00 0. -1.
</event>
<event>
 7    1  0.2682317E-010  0.4778728E+02  0.7816164E-02  0.1312668E+00
        -11   -1    0    0    0    0  0.00000000000E+00  0.00000000000E+00  0.45593999997E+02  0.45594000000E+02  0.51100000000E-03 0. -1.
         11   -1    0    0    0    0 -0.00000000000E+00 -0.00000000000E+00 -0.45593999997E+02  0.45594000000E+02  0.51100000000E-03 0.  1.
    9900012    2    1    2    0    0  0.26717969801E+02  0.34182830581E+02  0.11432225099E+01  0.47787276798E+02  0.20000026231E+02 0.  0.
         12    1    1    2    0    0 -0.26717969801E+02 -0.34182830581E+02 -0.11432225099E+01  0.43400723202E+02  0.00000000000E+00 0. -1.
         11    1    3    3    0    0  0.20573179007E+02  0.20333994663E+02 -0.63362932922E+00  0.28933173344E+02  0.51100000000E-03 0.  1.
        -11    1    3    3    0    0  0.65889535361E+01  0.26096678666E+01  0.26643017987E+01  0.75712072624E+01  0.51100000000E-03 0. -1.
         12    1    3    3    0    0 -0.44416274197E+00  0.11239168051E+02 -0.88744995951E+00  0.11282896191E+02  0.00000000000E+00 0. -1.
</event>
<event>
 7    1  0.2682317E-010  0.4778727E+02  0.7816164E-02  0.1312668E+00
        -11   -1    0    0    0    0  0.00000000000E+00  0.00000000000E+00  0.45593999997E+02  0.45594000000E+02  0.51100000000E-03 0. -1.
         11   -1    0    0    0    0 -0.00000000000E+00 -0.00000000000E+00 -0.45593999997E+02  0.45594000000E+02  0.51100000000E-03 0.  1.
    9900012    2    1    2    0    0 -0.20984124732E+01 -0.17923862556E+02 -0.39470939695E+02  0.47787271155E+02  0.20000000506E+02 0.  0.
         12    1    1    2    0    0  0.20984124732E+01  0.17923862556E+02  0.39470939695E+02  0.43400728845E+02  0.00000000000E+00 0. -1.
         11    1    3    3    0    0 -0.12962857881E+01 -0.10232426024E+02 -0.17306362357E+02  0.20146788267E+02  0.51100000000E-03 0. -1.
        -11    1    3    3    0    0  0.33176338101E+01 -0.20190955283E+01 -0.19896744233E+02  0.20272243887E+02  0.51100000000E-03 0.  1.
         12    1    3    3    0    0 -0.41197604952E+01 -0.56723410033E+01 -0.22678331045E+01  0.73682390017E+01  0.00000000000E+00 0. -1.
</event>
<event>
 7    1  0.2682317E-010  0.4778727E+02  0.7816164E-02  0.1312668E+00
        -11   -1    0    0    0    0  0.00000000000E+00  0.00000000000E+00  0.45593999997E+02  0.45594000000E+02  0.51100000000E-03 0.  1.
         11   -1    0    0    0    0 -0.00000000000E+00 -0.00000000000E+00 -0.45593999997E+02  0.45594000000E+02  0.51100000000E-03 0. -1.
    9900012    2    1    2    0    0  0.95327243541E+00  0.15498445215E+02  0.40527930637E+02  0.47787266202E+02  0.19999977922E+02 0.  0.
         12    1    1    2    0    0 -0.95327243541E+00 -0.15498445215E+02 -0.40527930637E+02  0.43400733798E+02  0.00000000000E+00 0. -1.
         11    1    3    3    0    0  0.53798686761E+01  0.13473329578E+01  0.31029435016E+01  0.63550414402E+01  0.51100000000E-03 0. -1.
        -11    1    3    3    0    0  0.27965174145E+01  0.67126115719E+01  0.17997147117E+02  0.19410743632E+02  0.51100000000E-03 0.  1.
        -12    1    3    3    0    0 -0.72231136552E+01  0.74385006858E+01  0.19427840019E+02  0.22021481130E+02  0.00000000000E+00 0.  1.
</event>
<event>
 7    1  0.2682317E-010  0.4778727E+02  0.7816164E-02  0.1312668E+00
        -11   -1    0    0    0    0  0.00000000000E+00  0.00000000000E+00  0.45593999997E+02  0.45594000000E+02  0.51100000000E-03 0.  1.
         11   -1    0    0    0    0 -0.00000000000E+00 -0.00000000000E+00 -0.45593999997E+02  0.45594000000E+02  0.51100000000E-03 0. -1.
    9900012    2    1    2    0    0  0.68609033841E+01 -0.27061903773E+02  0.33229575356E+02  0.47787270635E+02  0.19999998133E+02 0.  0.
         12    1    1    2    0    0 -0.68609033841E+01  0.27061903773E+02 -0.33229575356E+02  0.43400729365E+02  0.00000000000E+00 0. -1.
         11    1    3    3    0    0  0.26611910222E+01 -0.15232082294E+02  0.99227225611E+01  0.18372770394E+02  0.51100000000E-03 0. -1.
        -11    1    3    3    0    0  0.46486874871E+01 -0.75381464436E+01  0.41549732833E+01  0.97825227014E+01  0.51100000000E-03 0.  1.
        -12    1    3    3    0    0 -0.44897512515E+00 -0.42916750356E+01  0.19151879512E+02  0.19631977539E+02  0.00000000000E+00 0.  1.
</event>
<event>
 7    1  0.2682317E-010  0.4778729E+02  0.7816164E-02  0.1312668E+00
        -11   -1    0    0    0    0  0.00000000000E+00  0.00000000000E+00  0.45593999997E+02  0.45594000000E+02  0.51100000000E-03 0. -1.
         11   -1    0    0    0    0 -0.00000000000E+00 -0.00000000000E+00 -0.45593999997E+02  0.45594000000E+02  0.51100000000E-03 0.  1.
    9900012    2    1    2    0    0  0.38348222252E+02 -0.13204946025E+02 -0.15448786102E+02  0.47787288699E+02  0.20000080493E+02 0.  0.
         12    1    1    2    0    0 -0.38348222252E+02  0.13204946025E+02  0.15448786102E+02  0.43400711301E+02  0.00000000000E+00 0. -1.
         11    1    3    3    0    0  0.16387995063E+02 -0.95303753619E+00 -0.14668125357E+02  0.22014280921E+02  0.51100000000E-03 0. -1.
        -11    1    3    3    0    0  0.10249576093E+02 -0.46413871495E+01 -0.29680383904E+01  0.11636388482E+02  0.51100000000E-03 0.  1.
         12    1    3    3    0    0  0.11710651097E+02 -0.76105213389E+01  0.21873776448E+01  0.14136619296E+02  0.00000000000E+00 0. -1.
</event>
<event>
 7    1  0.2682317E-010  0.4778727E+02  0.7816164E-02  0.1312668E+00
        -11   -1    0    0    0    0  0.00000000000E+00  0.00000000000E+00  0.45593999997E+02  0.45594000000E+02  0.51100000000E-03 0.  1.
         11   -1    0    0    0    0 -0.00000000000E+00 -0.00000000000E+00 -0.45593999997E+02  0.45594000000E+02  0.51100000000E-03 0. -1.
    9900012    2    1    2    0    0  0.37896652214E+02  0.12185520907E+02  0.17291041025E+02  0.47787271106E+02  0.20000000281E+02 0.  0.
         12    1    1    2    0    0 -0.37896652214E+02 -0.12185520907E+02 -0.17291041025E+02  0.43400728894E+02  0.00000000000E+00 0. -1.
         11    1    3    3    0    0  0.76452231946E+01  0.39432428239E+01 -0.13812054200E+01  0.87124239071E+01  0.51100000000E-03 0. -1.
        -11    1    3    3    0    0  0.14871258962E+02  0.31803424974E+00  0.19305989377E+01  0.14999423370E+02  0.51100000000E-03 0.  1.
         12    1    3    3    0    0  0.15380170057E+02  0.79242438330E+01  0.16741647507E+02  0.24075423829E+02  0.00000000000E+00 0. -1.
</event>
<event>
 7    1  0.2682317E-010  0.4778727E+02  0.7816164E-02  0.1312668E+00
        -11   -1    0    0    0    0  0.00000000000E+00  0.00000000000E+00  0.45593999997E+02  0.45594000000E+02  0.51100000000E-03 0. -1.
         11   -1    0    0    0    0 -0.00000000000E+00 -0.00000000000E+00 -0.45593999997E+02  0.45594000000E+02  0.51100000000E-03 0.  1.
    9900012    2    1    2    0    0  0.87725105507E+01  0.27986347845E+02 -0.31991103005E+02  0.47787270991E+02  0.19999999756E+02 0.  0.
         12    1    1    2    0    0 -0.87725105507E+01 -0.27986347845E+02  0.31991103005E+02  0.43400729009E+02  0.00000000000E+00 0. -1.
         11    1    3    3    0    0  0.75859474078E+01  0.61022737926E+01 -0.83869171403E+01  0.12850086494E+02  0.51100000000E-03 0. -1.
        -11    1    3    3    0    0  0.16836994658E+01  0.13824936761E+02 -0.52470320200E+01  0.14882710291E+02  0.51100000000E-03 0.  1.
         12    1    3    3    0    0 -0.49713632286E+00  0.80591372912E+01 -0.18357153845E+02  0.20054474206E+02  0.00000000000E+00 0. -1.
</event>
<event>
 7    1  0.2682317E-010  0.4778725E+02  0.7816164E-02  0.1312668E+00
        -11   -1    0    0    0    0  0.00000000000E+00  0.00000000000E+00  0.45593999997E+02  0.45594000000E+02  0.51100000000E-03 0.  1.
         11   -1    0    0    0    0 -0.00000000000E+00 -0.00000000000E+00 -0.45593999997E+02  0.45594000000E+02  0.51100000000E-03 0. -1.
    9900012    2    1    2    0    0 -0.36070896393E+02 -0.18378269497E+02  0.15644639020E+02  0.47787250164E+02  0.19999904797E+02 0.  0.
         12    1    1    2    0    0  0.36070896393E+02  0.18378269497E+02 -0.15644639020E+02  0.43400749836E+02  0.00000000000E+00 0. -1.
         11    1    3    3    0    0 -0.22836263710E+02 -0.57344258600E+01  0.67737302175E+01  0.24500244927E+02  0.51100000000E-03 0. -1.
        -11    1    3    3    0    0 -0.11175771973E+02 -0.84754642955E+01  0.89449344171E+00  0.14054589748E+02  0.51100000000E-03 0.  1.
         12    1    3    3    0    0 -0.20588607104E+01 -0.41683793413E+01  0.79764153604E+01  0.92324154888E+01  0.00000000000E+00 0. -1.
</event>
<event>
 7    1  0.2682317E-010  0.4778727E+02  0.7816164E-02  0.1312668E+00
        -11   -1    0    0    0    0  0.00000000000E+00  0.00000000000E+00  0.45593999997E+02  0.45594000000E+02  0.51100000000E-03 0.  1.
         11   -1    0    0    0    0 -0.00000000000E+00 -0.00000000000E+00 -0.45593999997E+02  0.45594000000E+02  0.51100000000E-03 0. -1.
    9900012    2    1    2    0    0 -0.19869591698E+02  0.15196479407E+02  0.35466743607E+02  0.47787267717E+02  0.19999984829E+02 0.  0.
         12    1    1    2    0    0  0.19869591698E+02 -0.15196479407E+02 -0.35466743607E+02  0.43400732283E+02  0.00000000000E+00 0. -1.
         11    1    3    3    0    0 -0.67974733811E+01  0.41461367070E+01  0.21267209412E+01  0.82413006366E+01  0.51100000000E-03 0. -1.
        -11    1    3    3    0    0 -0.69120848002E+01  0.85514848984E+01  0.86891434217E+01  0.14014493352E+02  0.51100000000E-03 0.  1.
        -12    1    3    3    0    0 -0.61600335166E+01  0.24988578017E+01  0.24650879244E+02  0.25531473728E+02  0.00000000000E+00 0.  1.
</event>
<event>
 7    1  0.2682317E-010  0.4778726E+02  0.7816164E-02  0.1312668E+00
        -11   -1    0    0    0    0  0.00000000000E+00  0.00000000000E+00  0.45593999997E+02  0.45594000000E+02  0.51100000000E-03 0.  1.
         11   -1    0    0    0    0 -0.00000000000E+00 -0.00000000000E+00 -0.45593999997E+02  0.45594000000E+02  0.51100000000E-03 0. -1.
    9900012    2    1    2    0    0  0.27587052118E+02 -0.11327042981E+02  0.31532153459E+02  0.47787262114E+02  0.19999959284E+02 0.  0.
         12    1    1    2    0    0 -0.27587052118E+02  0.11327042981E+02 -0.31532153459E+02  0.43400737886E+02  0.00000000000E+00 0. -1.
         11    1    3    3    0    0  0.54910707229E+01 -0.62961353066E+01  0.14293860377E+02  0.16556195886E+02  0.51100000000E-03 0. -1.
        -11    1    3    3    0    0  0.13155651645E+02 -0.88117836119E+01  0.13572496364E+02  0.20855007994E+02  0.51100000000E-03 0.  1.
        -12    1    3    3    0    0  0.89403297498E+01  0.37808759381E+01  0.36657967184E+01  0.10376058234E+02  0.00000000000E+00 0.  1.
</event>
<event>
 7    1  0.2682317E-010  0.4778726E+02  0.7816164E-02  0.1312668E+00
        -11   -1    0    0    0    0  0.00000000000E+00  0.00000000000E+00  0.45593999997E+02  0.45594000000E+02  0.51100000000E-03 0.  1.
         11   -1    0    0    0    0 -0.00000000000E+00 -0.00000000000E+00 -0.45593999997E+02  0.45594000000E+02  0.51100000000E-03 0. -1.
    9900012    2    1    2    0    0 -0.29959037364E+02  0.13339667510E+02  0.28427687005E+02  0.47787262247E+02  0.19999959889E+02 0.  0.
         12    1    1    2    0    0  0.29959037364E+02 -0.13339667510E+02 -0.28427687005E+02  0.43400737753E+02  0.00000000000E+00 0. -1.
         11    1    3    3    0    0 -0.16118050505E+02  0.59726079735E+01  0.19971685302E+02  0.26350176700E+02  0.51100000000E-03 0.  1.
        -11    1    3    3    0    0 -0.66499846207E+01 -0.20584388949E+01  0.62968307512E+01  0.93866684138E+01  0.51100000000E-03 0. -1.
        -12    1    3    3    0    0 -0.71910022385E+01  0.94254984316E+01  0.21591709520E+01  0.12050417133E+02  0.00000000000E+00 0.  1.
</event>
<event>
 7    1  0.2682317E-010  0.4778728E+02  0.7816164E-02  0.1312668E+00
        -11   -1    0    0    0    0  0.00000000000E+00  0.00000000000E+00  0.45593999997E+02  0.45594000000E+02  0.51100000000E-03 0.  1.
         11   -1    0    0    0    0 -0.00000000000E+00 -0.00000000000E+00 -0.45593999997E+02  0.45594000000E+02  0.51100000000E-03 0. -1.
    9900012    2    1    2    0    0 -0.31610677942E+02 -0.76106950359E+01  0.28748302574E+02  0.47787279502E+02  0.20000038562E+02 0.  0.
         12    1    1    2    0    0  0.31610677942E+02  0.76106950359E+01 -0.28748302574E+02  0.43400720498E+02  0.00000000000E+00 0. -1.
         11    1    3    3    0    0 -0.39864164197E+01 -0.30659450098E+01 -0.36602396385E+00  0.50423713150E+01  0.51100000000E-03 0. -1.
        -11    1    3    3    0    0 -0.56738692392E+01 -0.56804105279E+01  0.13767665955E+02  0.15937643553E+02  0.51100000000E-03 0.  1.
        -12    1    3    3    0    0 -0.21950392283E+02  0.11356605018E+01  0.15346660582E+02  0.26807264634E+02  0.00000000000E+00 0.  1.
</event>
<event>
 7    1  0.2682317E-010  0.4778726E+02  0.7816164E-02  0.1312668E+00
        -11   -1    0    0    0    0  0.00000000000E+00  0.00000000000E+00  0.45593999997E+02  0.45594000000E+02  0.51100000000E-03 0.  1.
         11   -1    0    0    0    0 -0.00000000000E+00 -0.00000000000E+00 -0.45593999997E+02  0.45594000000E+02  0.51100000000E-03 0. -1.
    9900012    2    1    2    0    0  0.13591862670E+01  0.29418847894E+02  0.31879582860E+02  0.47787264959E+02  0.19999972254E+02 0.  0.
         12    1    1    2    0    0 -0.13591862670E+01 -0.29418847894E+02 -0.31879582860E+02  0.43400735041E+02  0.00000000000E+00 0. -1.
         11    1    3    3    0    0  0.22891410627E+01  0.11093995007E+02  0.77617795305E+01  0.13731792081E+02  0.51100000000E-03 0. -1.
        -11    1    3    3    0    0  0.71423244404E+01  0.11162835300E+02  0.13237082968E+02  0.18730778311E+02  0.51100000000E-03 0.  1.
         12    1    3    3    0    0 -0.80722792361E+01  0.71620175866E+01  0.10880720362E+02  0.15324694567E+02  0.00000000000E+00 0. -1.
</event>
<event>
 7    1  0.2682317E-010  0.4778727E+02  0.7816164E-02  0.1312668E+00
        -11   -1    0    0    0    0  0.00000000000E+00  0.00000000000E+00  0.45593999997E+02  0.45594000000E+02  0.51100000000E-03 0. -1.
         11   -1    0    0    0    0 -0.00000000000E+00 -0.00000000000E+00 -0.45593999997E+02  0.45594000000E+02  0.51100000000E-03 0.  1.
    9900012    2    1    2    0    0  0.18758613782E+02  0.33097380140E+02 -0.20887819749E+02  0.47787272161E+02  0.20000005089E+02 0.  0.
         12    1    1    2    0    0 -0.18758613782E+02 -0.33097380140E+02  0.20887819749E+02  0.43400727839E+02  0.00000000000E+00 0. -1.
         11    1    3    3    0    0 -0.16021960807E+01  0.42571952985E+01 -0.47353839656E+00  0.45732901685E+01  0.51100000000E-03 0. -1.
        -11    1    3    3    0    0  0.22592066218E+01  0.13245878358E+02 -0.33352826106E+01  0.13844905865E+02  0.51100000000E-03 0.  1.
        -12    1    3    3    0    0  0.18101603241E+02  0.15594306483E+02 -0.17078998741E+02  0.29369076128E+02  0.00000000000E+00 0.  1.
</event>
<event>
 7    1  0.2682317E-010  0.4778726E+02  0.7816164E-02  0.1312668E+00
        -11   -1    0    0    0    0  0.00000000000E+00  0.00000000000E+00  0.45593999997E+02  0.45594000000E+02  0.51100000000E-03 0.  1.
         11   -1    0    0    0    0 -0.00000000000E+00 -0.00000000000E+00 -0.45593999997E+02  0.45594000000E+02  0.51100000000E-03 0. -1.
    9900012    2    1    2    0    0 -0.11043297567E+02 -0.39162407686E+02  0.15098849017E+02  0.47787264539E+02  0.19999970337E+02 0.  0.
         12    1    1    2    0    0  0.11043297567E+02  0.39162407686E+02 -0.15098849017E+02  0.43400735461E+02  0.00000000000E+00 0. -1.
         11    1    3    3    0    0 -0.94715837976E+01 -0.23097695357E+02  0.79136202148E+01  0.26188543595E+02  0.51100000000E-03 0.  1.
        -11    1    3    3    0    0  0.36805745796E+01 -0.13051521704E+02  0.21634099335E+01  0.13732049768E+02  0.51100000000E-03 0. -1.
         12    1    3    3    0    0 -0.52522883486E+01 -0.30131906253E+01  0.50218188687E+01  0.78666711760E+01  0.00000000000E+00 0. -1.
</event>
<event>
 7    1  0.2682317E-010  0.4778727E+02  0.7816164E-02  0.1312668E+00
        -11   -1    0    0    0    0  0.00000000000E+00  0.00000000000E+00  0.45593999997E+02  0.45594000000E+02  0.51100000000E-03 0. -1.
         11   -1    0    0    0    0 -0.00000000000E+00 -0.00000000000E+00 -0.45593999997E+02  0.45594000000E+02  0.51100000000E-03 0.  1.
    9900012    2    1    2    0    0 -0.31735680526E+02 -0.26717706074E+01 -0.29484425881E+02  0.47787272516E+02  0.20000006708E+02 0.  0.
         12    1    1    2    0    0  0.31735680526E+02  0.26717706074E+01  0.29484425881E+02  0.43400727484E+02  0.00000000000E+00 0. -1.
         11    1    3    3    0    0 -0.15954366884E+02 -0.75076722574E+01 -0.18510784958E+02  0.25564743797E+02  0.51100000000E-03 0. -1.
        -11    1    3    3    0    0 -0.27482042918E+00  0.92830021431E+00 -0.50930952873E+01  0.51842923744E+01  0.51100000000E-03 0.  1.
        -12    1    3    3    0    0 -0.15506493213E+02  0.39076014357E+01 -0.58805456354E+01  0.17038236344E+02  0.00000000000E+00 0.  1.
</event>
<event>
 7    1  0.2682317E-010  0.4778727E+02  0.7816164E-02  0.1312668E+00
        -11   -1    0    0    0    0  0.00000000000E+00  0.00000000000E+00  0.45593999997E+02  0.45594000000E+02  0.51100000000E-03 0.  1.
         11   -1    0    0    0    0 -0.00000000000E+00 -0.00000000000E+00 -0.45593999997E+02  0.45594000000E+02  0.51100000000E-03 0. -1.
    9900012    2    1    2    0    0  0.43096529863E+02 -0.31311091631E+01 -0.40631157157E+01  0.47787266824E+02  0.19999980759E+02 0.  0.
         12    1    1    2    0    0 -0.43096529863E+02  0.31311091631E+01  0.40631157157E+01  0.43400733176E+02  0.00000000000E+00 0. -1.
         11    1    3    3    0    0  0.14802701528E+02  0.43306157574E+01 -0.53119469502E+01  0.16312295548E+02  0.51100000000E-03 0. -1.
        -11    1    3    3    0    0  0.11621128200E+02 -0.67094173188E+00 -0.46436941286E+01  0.12532544789E+02  0.51100000000E-03 0.  1.
        -12    1    3    3    0    0  0.16672700135E+02 -0.67907831886E+01  0.58925253630E+01  0.18942426488E+02  0.00000000000E+00 0.  1.
</event>
<event>
 7    1  0.2682317E-010  0.4778727E+02  0.7816164E-02  0.1312668E+00
        -11   -1    0    0    0    0  0.00000000000E+00  0.00000000000E+00  0.45593999997E+02  0.45594000000E+02  0.51100000000E-03 0.  1.
         11   -1    0    0    0    0 -0.00000000000E+00 -0.00000000000E+00 -0.45593999997E+02  0.45594000000E+02  0.51100000000E-03 0. -1.
    9900012    2    1    2    0    0  0.68403542241E+01  0.27650342294E+02  0.32745861986E+02  0.47787270143E+02  0.19999995892E+02 0.  0.
         12    1    1    2    0    0 -0.68403542241E+01 -0.27650342294E+02 -0.32745861986E+02  0.43400729857E+02  0.00000000000E+00 0. -1.
         11    1    3    3    0    0  0.13876174060E+01  0.21754702825E+01 -0.17932614153E+01  0.31422825749E+01  0.51100000000E-03 0. -1.
        -11    1    3    3    0    0 -0.33118671572E+00  0.13835714097E+02  0.10702123132E+02  0.17494916662E+02  0.51100000000E-03 0.  1.
        -12    1    3    3    0    0  0.57839235338E+01  0.11639157914E+02  0.23837000269E+02  0.27150070907E+02  0.00000000000E+00 0.  1.
</event>
<event>
 7    1  0.2682317E-010  0.4778727E+02  0.7816164E-02  0.1312668E+00
        -11   -1    0    0    0    0  0.00000000000E+00  0.00000000000E+00  0.45593999997E+02  0.45594000000E+02  0.51100000000E-03 0.  1.
         11   -1    0    0    0    0 -0.00000000000E+00 -0.00000000000E+00 -0.45593999997E+02  0.45594000000E+02  0.51100000000E-03 0. -1.
    9900012    2    1    2    0    0  0.22721988871E+02  0.24054439330E+02  0.28084131115E+02  0.47787271317E+02  0.20000001245E+02 0.  0.
         12    1    1    2    0    0 -0.22721988871E+02 -0.24054439330E+02 -0.28084131115E+02  0.43400728683E+02  0.00000000000E+00 0. -1.
         11    1    3    3    0    0 -0.24594798659E+01  0.11385427075E+01  0.20497074981E+01  0.33980320476E+01  0.51100000000E-03 0. -1.
        -11    1    3    3    0    0  0.21262187116E+01  0.58455552402E+01  0.92682116381E+01  0.11162036969E+02  0.51100000000E-03 0.  1.
        -12    1    3    3    0    0  0.23055250025E+02  0.17070341382E+02  0.16766211978E+02  0.33227202300E+02  0.00000000000E+00 0.  1.
</event>
<event>
 7    1  0.2682317E-010  0.4778731E+02  0.7816164E-02  0.1312668E+00
        -11   -1    0    0    0    0  0.00000000000E+00  0.00000000000E+00  0.45593999997E+02  0.45594000000E+02  0.51100000000E-03 0. -1.
         11   -1    0    0    0    0 -0.00000000000E+00 -0.00000000000E+00 -0.45593999997E+02  0.45594000000E+02  0.51100000000E-03 0.  1.
    9900012    2    1    2    0    0 -0.26350443340E+01 -0.40567694381E+02 -0.15196674978E+02  0.47787306268E+02  0.20000160596E+02 0.  0.
         12    1    1    2    0    0  0.26350443340E+01  0.40567694381E+02  0.15196674978E+02  0.43400693732E+02  0.00000000000E+00 0. -1.
         11    1    3    3    0    0  0.20926348238E+01 -0.31804135315E+00  0.19880943369E+00  0.21259812464E+01  0.51100000000E-03 0. -1.
        -11    1    3    3    0    0  0.33569322788E+01 -0.22344793899E+02 -0.12443370011E+02  0.25795276045E+02  0.51100000000E-03 0.  1.
         12    1    3    3    0    0 -0.80846114365E+01 -0.17904859129E+02 -0.29521144010E+01  0.19866048977E+02  0.00000000000E+00 0. -1.
</event>
<event>
 7    1  0.2682317E-010  0.4778728E+02  0.7816164E-02  0.1312668E+00
        -11   -1    0    0    0    0  0.00000000000E+00  0.00000000000E+00  0.45593999997E+02  0.45594000000E+02  0.51100000000E-03 0. -1.
         11   -1    0    0    0    0 -0.00000000000E+00 -0.00000000000E+00 -0.45593999997E+02  0.45594000000E+02  0.51100000000E-03 0.  1.
    9900012    2    1    2    0    0  0.27286148214E+02 -0.24739723549E+02 -0.22957231837E+02  0.47787282273E+02  0.20000051195E+02 0.  0.
         12    1    1    2    0    0 -0.27286148214E+02  0.24739723549E+02  0.22957231837E+02  0.43400717727E+02  0.00000000000E+00 0. -1.
         11    1    3    3    0    0  0.49027201799E+01 -0.54191457846E+01 -0.89148323469E+01  0.11527273842E+02  0.51100000000E-03 0. -1.
        -11    1    3    3    0    0  0.18439382644E+02 -0.16058500343E+02 -0.17512644584E+02  0.30076219612E+02  0.51100000000E-03 0.  1.
        -12    1    3    3    0    0  0.39440453893E+01 -0.32620774213E+01  0.34702450943E+01  0.61837888184E+01  0.00000000000E+00 0.  1.
</event>
<event>
 7    1  0.2682317E-010  0.4778727E+02  0.7816164E-02  0.1312668E+00
        -11   -1    0    0    0    0  0.00000000000E+00  0.00000000000E+00  0.45593999997E+02  0.45594000000E+02  0.51100000000E-03 0.  1.
         11   -1    0    0    0    0 -0.00000000000E+00 -0.00000000000E+00 -0.45593999997E+02  0.45594000000E+02  0.51100000000E-03 0. -1.
    9900012    2    1    2    0    0 -0.14144261073E+02  0.29639582598E+02  0.28373551815E+02  0.47787269355E+02  0.19999992299E+02 0.  0.
         12    1    1    2    0    0  0.14144261073E+02 -0.29639582598E+02 -0.28373551815E+02  0.43400730645E+02  0.00000000000E+00 0. -1.
         11    1    3    3    0    0  0.18437130817E+01  0.12320042516E+02  0.35980989361E+01  0.12966458334E+02  0.51100000000E-03 0. -1.
        -11    1    3    3    0    0 -0.13625304838E+01  0.27982678403E+01  0.81789602802E+00  0.32180345553E+01  0.51100000000E-03 0.  1.
        -12    1    3    3    0    0 -0.14625443671E+02  0.14521272242E+02  0.23957556851E+02  0.31602776466E+02  0.00000000000E+00 0.  1.
</event>
<event>
 7    1  0.2682317E-010  0.4778727E+02  0.7816164E-02  0.1312668E+00
        -11   -1    0    0    0    0  0.00000000000E+00  0.00000000000E+00  0.45593999997E+02  0.45594000000E+02  0.51100000000E-03 0.  1.
         11   -1    0    0    0    0 -0.00000000000E+00 -0.00000000000E+00 -0.45593999997E+02  0.45594000000E+02  0.51100000000E-03 0. -1.
    9900012    2    1    2    0    0 -0.12507079076E+02  0.40609349476E+02 -0.88361092721E+01  0.47787272830E+02  0.20000008140E+02 0.  0.
         12    1    1    2    0    0  0.12507079076E+02 -0.40609349476E+02  0.88361092721E+01  0.43400727170E+02  0.00000000000E+00 0. -1.
         11    1    3    3    0    0  0.36834404867E+01  0.17815856763E+02 -0.30971720007E+01  0.18454402204E+02  0.51100000000E-03 0. -1.
        -11    1    3    3    0    0 -0.86690355970E+01  0.17015682280E+02 -0.53862687014E+01  0.19841812226E+02  0.51100000000E-03 0.  1.
         12    1    3    3    0    0 -0.75214839653E+01  0.57778104323E+01 -0.35266857005E+00  0.94910584000E+01  0.00000000000E+00 0. -1.
</event>
<event>
 7    1  0.2682317E-010  0.4778728E+02  0.7816164E-02  0.1312668E+00
        -11   -1    0    0    0    0  0.00000000000E+00  0.00000000000E+00  0.45593999997E+02  0.45594000000E+02  0.51100000000E-03 0. -1.
         11   -1    0    0    0    0 -0.00000000000E+00 -0.00000000000E+00 -0.45593999997E+02  0.45594000000E+02  0.51100000000E-03 0.  1.
    9900012    2    1    2    0    0 -0.32166637104E+02 -0.37878210760E+01 -0.28889140971E+02  0.47787278841E+02  0.20000035548E+02 0.  0.
         12    1    1    2    0    0  0.32166637104E+02  0.37878210760E+01  0.28889140971E+02  0.43400721159E+02  0.00000000000E+00 0. -1.
         11    1    3    3    0    0 -0.87285905453E+01 -0.94077354476E+00 -0.11615589392E+02  0.14560057175E+02  0.51100000000E-03 0.  1.
        -11    1    3    3    0    0 -0.96732542434E+01  0.30405339715E+00 -0.16445747099E+02  0.19082109266E+02  0.51100000000E-03 0. -1.
         12    1    3    3    0    0 -0.13764792316E+02 -0.31511009284E+01 -0.82780447987E+00  0.14145112400E+02  0.00000000000E+00 0. -1.
</event>
<event>
 7    1  0.2682317E-010  0.4778732E+02  0.7816164E-02  0.1312668E+00
        -11   -1    0    0    0    0  0.00000000000E+00  0.00000000000E+00  0.45593999997E+02  0.45594000000E+02  0.51100000000E-03 0.  1.
         11   -1    0    0    0    0 -0.00000000000E+00 -0.00000000000E+00 -0.45593999997E+02  0.45594000000E+02  0.51100000000E-03 0. -1.
    9900012    2    1    2    0    0 -0.23887466486E+02  0.10412149426E+01  0.36220486332E+02  0.47787322427E+02  0.20000234271E+02 0.  0.
         12    1    1    2    0    0  0.23887466486E+02 -0.10412149426E+01 -0.36220486332E+02  0.43400677573E+02  0.00000000000E+00 0. -1.
         11    1    3    3    0    0 -0.20058624031E+01  0.54621901195E+01  0.19974073733E+01  0.61521249465E+01  0.51100000000E-03 0. -1.
        -11    1    3    3    0    0 -0.40267399362E+01  0.45442141349E+00  0.12265610013E+02  0.12917674813E+02  0.51100000000E-03 0.  1.
         12    1    3    3    0    0 -0.17854864147E+02 -0.48753965904E+01  0.21957468946E+02  0.28717522667E+02  0.00000000000E+00 0. -1.
</event>
<event>
 7    1  0.2682317E-010  0.4778728E+02  0.7816164E-02  0.1312668E+00
        -11   -1    0    0    0    0  0.00000000000E+00  0.00000000000E+00  0.45593999997E+02  0.45594000000E+02  0.51100000000E-03 0. -1.
         11   -1    0    0    0    0 -0.00000000000E+00 -0.00000000000E+00 -0.45593999997E+02  0.45594000000E+02  0.51100000000E-03 0.  1.
    9900012    2    1    2    0    0 -0.10566361902E+02 -0.24063193555E+02 -0.34538928865E+02  0.47787275409E+02  0.20000019900E+02 0.  0.
         12    1    1    2    0    0  0.10566361902E+02  0.24063193555E+02  0.34538928865E+02  0.43400724591E+02  0.00000000000E+00 0. -1.
         11    1    3    3    0    0 -0.38343147075E+01 -0.48784913120E+01 -0.79157054119E+01  0.10057834717E+02  0.51100000000E-03 0. -1.
        -11    1    3    3    0    0 -0.18980340623E+01  0.31590235545E+01 -0.53875907722E+01  0.65274878559E+01  0.51100000000E-03 0.  1.
         12    1    3    3    0    0 -0.48340131324E+01 -0.22343725797E+02 -0.21235632680E+02  0.31201952837E+02  0.00000000000E+00 0. -1.
</event>
<event>
 7    1  0.2682317E-010  0.4778727E+02  0.7816164E-02  0.1312668E+00
        -11   -1    0    0    0    0  0.00000000000E+00  0.00000000000E+00  0.45593999997E+02  0.45594000000E+02  0.51100000000E-03 0.  1.
         11   -1    0    0    0    0 -0.00000000000E+00 -0.00000000000E+00 -0.45593999997E+02  0.45594000000E+02  0.51100000000E-03 0. -1.
    9900012    2    1    2    0    0 -0.45438007274E+01  0.23003095333E+02  0.36521703555E+02  0.47787270162E+02  0.19999995976E+02 0.  0.
         12    1    1    2    0    0  0.45438007274E+01 -0.23003095333E+02 -0.36521703555E+02  0.43400729838E+02  0.00000000000E+00 0. -1.
         11    1    3    3    0    0 -0.25870977890E+01 -0.34341380690E-01  0.21837915974E+00  0.25965253742E+01  0.51100000000E-03 0. -1.
        -11    1    3    3    0    0 -0.67259297198E+01  0.58689073996E+01  0.14564757425E+02  0.17082574858E+02  0.51100000000E-03 0.  1.
        -12    1    3    3    0    0  0.47692267815E+01  0.17168529314E+02  0.21738566970E+02  0.28108169930E+02  0.00000000000E+00 0.  1.
</event>
<event>
 7    1  0.2682317E-010  0.4778727E+02  0.7816164E-02  0.1312668E+00
        -11   -1    0    0    0    0  0.00000000000E+00  0.00000000000E+00  0.45593999997E+02  0.45594000000E+02  0.51100000000E-03 0.  1.
         11   -1    0    0    0    0 -0.00000000000E+00 -0.00000000000E+00 -0.45593999997E+02  0.45594000000E+02  0.51100000000E-03 0. -1.
    9900012    2    1    2    0    0  0.11706687622E+02 -0.52208068630E+01  0.41464684708E+02  0.47787269162E+02  0.19999991416E+02 0.  0.
         12    1    1    2    0    0 -0.11706687622E+02  0.52208068630E+01 -0.41464684708E+02  0.43400730838E+02  0.00000000000E+00 0. -1.
         11    1    3    3    0    0  0.75361285013E+01  0.10887190378E+01  0.38228528719E+02  0.38979468316E+02  0.51100000000E-03 0. -1.
        -11    1    3    3    0    0  0.11005180722E+01 -0.11537551038E+01  0.22021374220E+01  0.27187681683E+01  0.51100000000E-03 0.  1.
         12    1    3    3    0    0  0.30700410485E+01 -0.51557707971E+01  0.10340185670E+01  0.60890326776E+01  0.00000000000E+00 0. -1.
</event>
<event>
 7    1  0.2682317E-010  0.4778727E+02  0.7816164E-02  0.1312668E+00
        -11   -1    0    0    0    0  0.00000000000E+00  0.00000000000E+00  0.45593999997E+02  0.45594000000E+02  0.51100000000E-03 0. -1.
         11   -1    0    0    0    0 -0.00000000000E+00 -0.00000000000E+00 -0.45593999997E+02  0.45594000000E+02  0.51100000000E-03 0.  1.
    9900012    2    1    2    0    0 -0.26218997329E+01  0.21040544233E+02 -0.37868779939E+02  0.47787270122E+02  0.19999995796E+02 0.  0.
         12    1    1    2    0    0  0.26218997329E+01 -0.21040544233E+02  0.37868779939E+02  0.43400729878E+02  0.00000000000E+00 0. -1.
         11    1    3    3    0    0 -0.21446821303E+01  0.43739323614E+00 -0.84352706064E+00  0.23457434740E+01  0.51100000000E-03 0. -1.
        -11    1    3    3    0    0 -0.73613341269E+01  0.13414152833E+02 -0.28448977701E+02  0.32302833759E+02  0.51100000000E-03 0.  1.
         12    1    3    3    0    0  0.68841165242E+01  0.71889981640E+01 -0.85762751773E+01  0.13138692889E+02  0.00000000000E+00 0. -1.
</event>
<event>
 7    1  0.2682317E-010  0.4778727E+02  0.7816164E-02  0.1312668E+00
        -11   -1    0    0    0    0  0.00000000000E+00  0.00000000000E+00  0.45593999997E+02  0.45594000000E+02  0.51100000000E-03 0.  1.
         11   -1    0    0    0    0 -0.00000000000E+00 -0.00000000000E+00 -0.45593999997E+02  0.45594000000E+02  0.51100000000E-03 0. -1.
    9900012    2    1    2    0    0  0.79246545802E+01  0.13744792748E+02  0.40396828402E+02  0.47787271632E+02  0.20000002681E+02 0.  0.
         12    1    1    2    0    0 -0.79246545802E+01 -0.13744792748E+02 -0.40396828402E+02  0.43400728368E+02  0.00000000000E+00 0. -1.
         11    1    3    3    0    0 -0.20528310983E+00  0.20174204164E+01  0.99109647226E+01  0.10116291232E+02  0.51100000000E-03 0. -1.
        -11    1    3    3    0    0  0.18632842461E+01 -0.37616011982E+01  0.12195188288E+02  0.12897445073E+02  0.51100000000E-03 0.  1.
         12    1    3    3    0    0  0.62666534439E+01  0.15488973529E+02  0.18290675391E+02  0.24773535328E+02  0.00000000000E+00 0. -1.
</event>
<event>
 7    1  0.2682317E-010  0.4778727E+02  0.7816164E-02  0.1312668E+00
        -11   -1    0    0    0    0  0.00000000000E+00  0.00000000000E+00  0.45593999997E+02  0.45594000000E+02  0.51100000000E-03 0.  1.
         11   -1    0    0    0    0 -0.00000000000E+00 -0.00000000000E+00 -0.45593999997E+02  0.45594000000E+02  0.51100000000E-03 0. -1.
    9900012    2    1    2    0    0 -0.19127250063E+02  0.14700073198E+02  0.36078794881E+02  0.47787270893E+02  0.19999999309E+02 0.  0.
         12    1    1    2    0    0  0.19127250063E+02 -0.14700073198E+02 -0.36078794881E+02  0.43400729107E+02  0.00000000000E+00 0. -1.
         11    1    3    3    0    0 -0.50252577117E+01  0.61733454316E+01  0.37542584767E+01  0.88010150470E+01  0.51100000000E-03 0.  1.
        -11    1    3    3    0    0 -0.11191897219E+02  0.24051147838E+01  0.86151872558E+01  0.14327058044E+02  0.51100000000E-03 0. -1.
        -12    1    3    3    0    0 -0.29100951315E+01  0.61216129828E+01  0.23709349148E+02  0.24659197802E+02  0.00000000000E+00 0.  1.
</event>
<event>
 7    1  0.2682317E-010  0.4778727E+02  0.7816164E-02  0.1312668E+00
        -11   -1    0    0    0    0  0.00000000000E+00  0.00000000000E+00  0.45593999997E+02  0.45594000000E+02  0.51100000000E-03 0. -1.
         11   -1    0    0    0    0 -0.00000000000E+00 -0.00000000000E+00 -0.45593999997E+02  0.45594000000E+02  0.51100000000E-03 0.  1.
    9900012    2    1    2    0    0  0.10905949658E+02  0.41530821001E+02 -0.63146169927E+01  0.47787271680E+02  0.20000002899E+02 0.  0.
         12    1    1    2    0    0 -0.10905949658E+02 -0.41530821001E+02  0.63146169927E+01  0.43400728320E+02  0.00000000000E+00 0. -1.
         11    1    3    3    0    0  0.89758125682E+01  0.15344653051E+02 -0.98979336881E+00  0.17804585917E+02  0.51100000000E-03 0. -1.
        -11    1    3    3    0    0  0.43426878141E+01  0.10341527077E+02 -0.79416343743E+01  0.13743204740E+02  0.51100000000E-03 0.  1.
         12    1    3    3    0    0 -0.24125507246E+01  0.15844640873E+02  0.26168107503E+01  0.16239481023E+02  0.00000000000E+00 0. -1.
</event>
<event>
 7    1  0.2682317E-010  0.4778727E+02  0.7816164E-02  0.1312668E+00
        -11   -1    0    0    0    0  0.00000000000E+00  0.00000000000E+00  0.45593999997E+02  0.45594000000E+02  0.51100000000E-03 0. -1.
         11   -1    0    0    0    0 -0.00000000000E+00 -0.00000000000E+00 -0.45593999997E+02  0.45594000000E+02  0.51100000000E-03 0.  1.
    9900012    2    1    2    0    0  0.76405275597E+01 -0.29201179341E+02 -0.31185526143E+02  0.47787267550E+02  0.19999984070E+02 0.  0.
         12    1    1    2    0    0 -0.76405275597E+01  0.29201179341E+02  0.31185526143E+02  0.43400732450E+02  0.00000000000E+00 0. -1.
         11    1    3    3    0    0  0.80030479537E+01 -0.14466540285E+02 -0.12799286281E+02  0.20908163332E+02  0.51100000000E-03 0. -1.
        -11    1    3    3    0    0  0.19389821930E+01 -0.12404540964E+02 -0.57208471868E+01  0.13797114962E+02  0.51100000000E-03 0.  1.
         12    1    3    3    0    0 -0.23015025870E+01 -0.23300980923E+01 -0.12665392676E+02  0.13081989256E+02  0.00000000000E+00 0. -1.
</event>
<event>
 7    1  0.2682317E-010  0.4778730E+02  0.7816164E-02  0.1312668E+00
        -11   -1    0    0    0    0  0.00000000000E+00  0.00000000000E+00  0.45593999997E+02  0.45594000000E+02  0.51100000000E-03 0.  1.
         11   -1    0    0    0    0 -0.00000000000E+00 -0.00000000000E+00 -0.45593999997E+02  0.45594000000E+02  0.51100000000E-03 0. -1.
    9900012    2    1    2    0    0  0.14631792292E+02  0.14794203110E+02  0.38087564235E+02  0.47787304837E+02  0.20000154072E+02 0.  0.
         12    1    1    2    0    0 -0.14631792292E+02 -0.14794203110E+02 -0.38087564235E+02  0.43400695163E+02  0.00000000000E+00 0. -1.
         11    1    3    3    0    0 -0.94072202191E+00  0.59609331633E+01  0.49513393531E+01  0.78059876858E+01  0.51100000000E-03 0. -1.
        -11    1    3    3    0    0  0.71057509574E+01  0.67707060956E+01  0.60547697544E+01  0.11532319573E+02  0.51100000000E-03 0.  1.
        -12    1    3    3    0    0  0.84667633563E+01  0.20625638509E+01  0.27081455127E+02  0.28448997578E+02  0.00000000000E+00 0.  1.
</event>
<event>
 7    1  0.2682317E-010  0.4778727E+02  0.7816164E-02  0.1312668E+00
        -11   -1    0    0    0    0  0.00000000000E+00  0.00000000000E+00  0.45593999997E+02  0.45594000000E+02  0.51100000000E-03 0.  1.
         11   -1    0    0    0    0 -0.00000000000E+00 -0.00000000000E+00 -0.45593999997E+02  0.45594000000E+02  0.51100000000E-03 0. -1.
    9900012    2    1    2    0    0 -0.10396640028E+02  0.40371453440E+02  0.12069753319E+02  0.47787270491E+02  0.19999997478E+02 0.  0.
         12    1    1    2    0    0  0.10396640028E+02 -0.40371453440E+02 -0.12069753319E+02  0.43400729509E+02  0.00000000000E+00 0. -1.
         11    1    3    3    0    0  0.50203588539E-01  0.23708544205E+02  0.24577328601E+01  0.23835646410E+02  0.51100000000E-03 0. -1.
        -11    1    3    3    0    0 -0.24324762737E+01  0.11188223207E+02  0.83351598232E+01  0.14162209181E+02  0.51100000000E-03 0.  1.
         12    1    3    3    0    0 -0.80143673425E+01  0.54746860284E+01  0.12768606358E+01  0.97894149005E+01  0.00000000000E+00 0. -1.
</event>
<event>
 7    1  0.2682317E-010  0.4778728E+02  0.7816164E-02  0.1312668E+00
        -11   -1    0    0    0    0  0.00000000000E+00  0.00000000000E+00  0.45593999997E+02  0.45594000000E+02  0.51100000000E-03 0. -1.
         11   -1    0    0    0    0 -0.00000000000E+00 -0.00000000000E+00 -0.45593999997E+02  0.45594000000E+02  0.51100000000E-03 0.  1.
    9900012    2    1    2    0    0  0.12694148398E+02  0.34798405261E+02 -0.22617514986E+02  0.47787281153E+02  0.20000046091E+02 0.  0.
         12    1    1    2    0    0 -0.12694148398E+02 -0.34798405261E+02  0.22617514986E+02  0.43400718847E+02  0.00000000000E+00 0. -1.
         11    1    3    3    0    0  0.31122271813E+01  0.89372669290E+01 -0.17259296296E+01  0.96197469580E+01  0.51100000000E-03 0. -1.
        -11    1    3    3    0    0  0.14069661345E+01  0.19576964811E+02 -0.69382113974E+01  0.20817681969E+02  0.51100000000E-03 0.  1.
         12    1    3    3    0    0  0.81749550822E+01  0.62841735213E+01 -0.13953373958E+02  0.17349852226E+02  0.00000000000E+00 0. -1.
</event>
<event>
 7    1  0.2682317E-010  0.4778727E+02  0.7816164E-02  0.1312668E+00
        -11   -1    0    0    0    0  0.00000000000E+00  0.00000000000E+00  0.45593999997E+02  0.45594000000E+02  0.51100000000E-03 0.  1.
         11   -1    0    0    0    0 -0.00000000000E+00 -0.00000000000E+00 -0.45593999997E+02  0.45594000000E+02  0.51100000000E-03 0. -1.
    9900012    2    1    2    0    0  0.22560812426E+02 -0.13361560989E+02  0.34584704631E+02  0.47787270009E+02  0.19999995277E+02 0.  0.
         12    1    1    2    0    0 -0.22560812426E+02  0.13361560989E+02 -0.34584704631E+02  0.43400729991E+02  0.00000000000E+00 0. -1.
         11    1    3    3    0    0  0.13265115480E+02 -0.65849364944E+01  0.11444318735E+02  0.18716225819E+02  0.51100000000E-03 0.  1.
        -11    1    3    3    0    0  0.22075154792E+01  0.20717097470E+01  0.14510316409E+02  0.14822765883E+02  0.51100000000E-03 0. -1.
         12    1    3    3    0    0  0.70881814666E+01 -0.88483342419E+01  0.86300694875E+01  0.14248278307E+02  0.00000000000E+00 0. -1.
</event>
<event>
 7    1  0.2682317E-010  0.4778727E+02  0.7816164E-02  0.1312668E+00
        -11   -1    0    0    0    0  0.00000000000E+00  0.00000000000E+00  0.45593999997E+02  0.45594000000E+02  0.51100000000E-03 0.  1.
         11   -1    0    0    0    0 -0.00000000000E+00 -0.00000000000E+00 -0.45593999997E+02  0.45594000000E+02  0.51100000000E-03 0. -1.
    9900012    2    1    2    0    0 -0.39111583656E+02 -0.17738594648E+02  0.62649414716E+01  0.47787271806E+02  0.20000003473E+02 0.  0.
         12    1    1    2    0    0  0.39111583656E+02  0.17738594648E+02 -0.62649414716E+01  0.43400728194E+02  0.00000000000E+00 0. -1.
         11    1    3    3    0    0 -0.15548472779E+02 -0.13566140744E+02  0.58723292607E+01  0.21454123884E+02  0.51100000000E-03 0. -1.
        -11    1    3    3    0    0 -0.15502455878E+02 -0.22329636630E+01  0.54946958198E+01  0.16598311582E+02  0.51100000000E-03 0.  1.
         12    1    3    3    0    0 -0.80606549988E+01 -0.19394902404E+01 -0.51020836088E+01  0.97348363393E+01  0.00000000000E+00 0. -1.
</event>
<event>
 7    1  0.2682317E-010  0.4778727E+02  0.7816164E-02  0.1312668E+00
        -11   -1    0    0    0    0  0.00000000000E+00  0.00000000000E+00  0.45593999997E+02  0.45594000000E+02  0.51100000000E-03 0.  1.
         11   -1    0    0    0    0 -0.00000000000E+00 -0.00000000000E+00 -0.45593999997E+02  0.45594000000E+02  0.51100000000E-03 0. -1.
    9900012    2    1    2    0    0 -0.24653098075E+02  0.18118712673E+01  0.35673030449E+02  0.47787271624E+02  0.20000002641E+02 0.  0.
         12    1    1    2    0    0  0.24653098075E+02 -0.18118712673E+01 -0.35673030449E+02  0.43400728376E+02  0.00000000000E+00 0. -1.
         11    1    3    3    0    0 -0.62831325749E+01 -0.25346221463E+01  0.30543621689E+01  0.74317691634E+01  0.51100000000E-03 0. -1.
        -11    1    3    3    0    0  0.14498447786E+01 -0.13383053095E+01  0.80154115183E+01  0.82546915783E+01  0.51100000000E-03 0.  1.
        -12    1    3    3    0    0 -0.19819810279E+02  0.56847987230E+01  0.24603256762E+02  0.32100810882E+02  0.00000000000E+00 0.  1.
</event>
<event>
 7    1  0.2682317E-010  0.4778728E+02  0.7816164E-02  0.1312668E+00
        -11   -1    0    0    0    0  0.00000000000E+00  0.00000000000E+00  0.45593999997E+02  0.45594000000E+02  0.51100000000E-03 0. -1.
         11   -1    0    0    0    0 -0.00000000000E+00 -0.00000000000E+00 -0.45593999997E+02  0.45594000000E+02  0.51100000000E-03 0.  1.
    9900012    2    1    2    0    0 -0.90282778230E+00 -0.13498487270E+02 -0.41238313766E+02  0.47787276747E+02  0.20000026002E+02 0.  0.
         12    1    1    2    0    0  0.90282778230E+00  0.13498487270E+02  0.41238313766E+02  0.43400723253E+02  0.00000000000E+00 0. -1.
         11    1    3    3    0    0 -0.30168464832E+01 -0.80954458970E+01 -0.69225936463E+01  0.11070677939E+02  0.51100000000E-03 0. -1.
        -11    1    3    3    0    0  0.61908459997E-01 -0.84840359376E+01 -0.16880198331E+02  0.18892426906E+02  0.51100000000E-03 0.  1.
         12    1    3    3    0    0  0.20521102409E+01  0.30809945650E+01 -0.17435521789E+02  0.17824171902E+02  0.00000000000E+00 0. -1.
</event>
<event>
 7    1  0.2682317E-010  0.4778728E+02  0.7816164E-02  0.1312668E+00
        -11   -1    0    0    0    0  0.00000000000E+00  0.00000000000E+00  0.45593999997E+02  0.45594000000E+02  0.51100000000E-03 0. -1.
         11   -1    0    0    0    0 -0.00000000000E+00 -0.00000000000E+00 -0.45593999997E+02  0.45594000000E+02  0.51100000000E-03 0.  1.
    9900012    2    1    2    0    0  0.40459564403E+02 -0.52230778491E+01  0.14811008188E+02  0.47787275842E+02  0.20000021873E+02 0.  0.
         12    1    1    2    0    0 -0.40459564403E+02  0.52230778491E+01 -0.14811008188E+02  0.43400724158E+02  0.00000000000E+00 0. -1.
         11    1    3    3    0    0  0.21065980571E+01  0.11897760241E+01  0.66941413462E+01  0.71179246262E+01  0.51100000000E-03 0. -1.
        -11    1    3    3    0    0  0.68093789609E+00  0.36808335925E+00  0.16863404049E+01  0.18555069388E+01  0.51100000000E-03 0.  1.
        -12    1    3    3    0    0  0.37672028450E+02 -0.67809372324E+01  0.64305264375E+01  0.38813844277E+02  0.00000000000E+00 0.  1.
</event>
<event>
 7    1  0.2682317E-010  0.4778727E+02  0.7816164E-02  0.1312668E+00
        -11   -1    0    0    0    0  0.00000000000E+00  0.00000000000E+00  0.45593999997E+02  0.45594000000E+02  0.51100000000E-03 0.  1.
         11   -1    0    0    0    0 -0.00000000000E+00 -0.00000000000E+00 -0.45593999997E+02  0.45594000000E+02  0.51100000000E-03 0. -1.
    9900012    2    1    2    0    0  0.21555262340E+02 -0.30860779214E+02  0.21601065106E+02  0.47787273716E+02  0.20000012182E+02 0.  0.
         12    1    1    2    0    0 -0.21555262340E+02  0.30860779214E+02 -0.21601065106E+02  0.43400726284E+02  0.00000000000E+00 0. -1.
         11    1    3    3    0    0 -0.26594336096E+01 -0.37510596830E+01  0.38291019008E+01  0.59837327395E+01  0.51100000000E-03 0. -1.
        -11    1    3    3    0    0  0.45353927780E+01 -0.71009910859E+01  0.91632029980E+01  0.12448218808E+02  0.51100000000E-03 0.  1.
        -12    1    3    3    0    0  0.19679303171E+02 -0.20008728446E+02  0.86087602069E+01  0.29355322169E+02  0.00000000000E+00 0.  1.
</event>
<event>
 7    1  0.2682317E-010  0.4778727E+02  0.7816164E-02  0.1312668E+00
        -11   -1    0    0    0    0  0.00000000000E+00  0.00000000000E+00  0.45593999997E+02  0.45594000000E+02  0.51100000000E-03 0. -1.
         11   -1    0    0    0    0 -0.00000000000E+00 -0.00000000000E+00 -0.45593999997E+02  0.45594000000E+02  0.51100000000E-03 0.  1.
    9900012    2    1    2    0    0  0.62115003580E+01 -0.98828941450E+01 -0.41801541695E+02  0.47787271648E+02  0.20000002753E+02 0.  0.
         12    1    1    2    0    0 -0.62115003580E+01  0.98828941450E+01  0.41801541695E+02  0.43400728352E+02  0.00000000000E+00 0. -1.
         11    1    3    3    0    0  0.43116715838E+01 -0.32760923442E+00 -0.50010735558E+01  0.66112462236E+01  0.51100000000E-03 0. -1.
        -11    1    3    3    0    0 -0.15599323151E+01  0.40051527747E+01 -0.11263012975E+02  0.12055293406E+02  0.51100000000E-03 0.  1.
        -12    1    3    3    0    0  0.34597610893E+01 -0.13560437685E+02 -0.25537455165E+02  0.29120732019E+02  0.00000000000E+00 0.  1.
</event>
<event>
 7    1  0.2682317E-010  0.4778727E+02  0.7816164E-02  0.1312668E+00
        -11   -1    0    0    0    0  0.00000000000E+00  0.00000000000E+00  0.45593999997E+02  0.45594000000E+02  0.51100000000E-03 0.  1.
         11   -1    0    0    0    0 -0.00000000000E+00 -0.00000000000E+00 -0.45593999997E+02  0.45594000000E+02  0.51100000000E-03 0. -1.
    9900012    2    1    2    0    0  0.24169923609E+02 -0.15177860219E+02  0.32696647524E+02  0.47787269506E+02  0.19999992988E+02 0.  0.
         12    1    1    2    0    0 -0.24169923609E+02  0.15177860219E+02 -0.32696647524E+02  0.43400730494E+02  0.00000000000E+00 0. -1.
         11    1    3    3    0    0  0.57837564018E+00  0.12660484897E+00  0.63002112027E+01  0.63279703404E+01  0.51100000000E-03 0. -1.
        -11    1    3    3    0    0 -0.50195262323E+00  0.12574334039E+01  0.51311424438E+01  0.53067615587E+01  0.51100000000E-03 0.  1.
        -12    1    3    3    0    0  0.24093500592E+02 -0.16561898472E+02  0.21265293877E+02  0.36152537607E+02  0.00000000000E+00 0.  1.
</event>
<event>
 7    1  0.2682317E-010  0.4778727E+02  0.7816164E-02  0.1312668E+00
        -11   -1    0    0    0    0  0.00000000000E+00  0.00000000000E+00  0.45593999997E+02  0.45594000000E+02  0.51100000000E-03 0.  1.
         11   -1    0    0    0    0 -0.00000000000E+00 -0.00000000000E+00 -0.45593999997E+02  0.45594000000E+02  0.51100000000E-03 0. -1.
    9900012    2    1    2    0    0  0.18109084631E+02  0.70029920506E+01  0.38815493974E+02  0.47787269404E+02  0.19999992519E+02 0.  0.
         12    1    1    2    0    0 -0.18109084631E+02 -0.70029920506E+01 -0.38815493974E+02  0.43400730596E+02  0.00000000000E+00 0. -1.
         11    1    3    3    0    0 -0.36384847827E+00  0.67208964397E+01  0.14822480943E+02  0.16279090154E+02  0.51100000000E-03 0. -1.
        -11    1    3    3    0    0  0.29609718000E+00  0.10307823843E+01 -0.34119013478E+00  0.11254318429E+01  0.51100000000E-03 0.  1.
        -12    1    3    3    0    0  0.18176835929E+02 -0.74868677348E+00  0.24334203166E+02  0.30382747407E+02  0.00000000000E+00 0.  1.
</event>
<event>
 7    1  0.2682317E-010  0.4778727E+02  0.7816164E-02  0.1312668E+00
        -11   -1    0    0    0    0  0.00000000000E+00  0.00000000000E+00  0.45593999997E+02  0.45594000000E+02  0.51100000000E-03 0.  1.
         11   -1    0    0    0    0 -0.00000000000E+00 -0.00000000000E+00 -0.45593999997E+02  0.45594000000E+02  0.51100000000E-03 0. -1.
    9900012    2    1    2    0    0 -0.13979511902E+02 -0.40396322972E+02 -0.75055532927E+01  0.47787274282E+02  0.20000014760E+02 0.  0.
         12    1    1    2    0    0  0.13979511902E+02  0.40396322972E+02  0.75055532927E+01  0.43400725718E+02  0.00000000000E+00 0. -1.
         11    1    3    3    0    0 -0.37663916487E+01 -0.14006197335E+01 -0.27673497476E+01  0.48791050999E+01  0.51100000000E-03 0. -1.
        -11    1    3    3    0    0 -0.38585292309E+01 -0.10358975077E+02  0.48164486699E+01  0.12057976220E+02  0.51100000000E-03 0.  1.
        -12    1    3    3    0    0 -0.63545910223E+01 -0.28636728161E+02 -0.95546522149E+01  0.30850192962E+02  0.00000000000E+00 0.  1.
</event>
<event>
 7    1  0.2682317E-010  0.4778727E+02  0.7816164E-02  0.1312668E+00
        -11   -1    0    0    0    0  0.00000000000E+00  0.00000000000E+00  0.45593999997E+02  0.45594000000E+02  0.51100000000E-03 0.  1.
         11   -1    0    0    0    0 -0.00000000000E+00 -0.00000000000E+00 -0.45593999997E+02  0.45594000000E+02  0.51100000000E-03 0. -1.
    9900012    2    1    2    0    0  0.21021012308E+02  0.25625076201E+02  0.28019557557E+02  0.47787273112E+02  0.20000009426E+02 0.  0.
         12    1    1    2    0    0 -0.21021012308E+02 -0.25625076201E+02 -0.28019557557E+02  0.43400726888E+02  0.00000000000E+00 0. -1.
         11    1    3    3    0    0  0.63000770180E+01  0.28635580206E+01  0.10157822206E+02  0.12291146700E+02  0.51100000000E-03 0. -1.
        -11    1    3    3    0    0  0.92516007902E+01  0.35476688016E+01  0.98527538319E+01  0.13973361422E+02  0.51100000000E-03 0.  1.
         12    1    3    3    0    0  0.54693344996E+01  0.19213849378E+02  0.80089815189E+01  0.21522764989E+02  0.00000000000E+00 0. -1.
</event>
<event>
 7    1  0.2682317E-010  0.4778727E+02  0.7816164E-02  0.1312668E+00
        -11   -1    0    0    0    0  0.00000000000E+00  0.00000000000E+00  0.45593999997E+02  0.45594000000E+02  0.51100000000E-03 0.  1.
         11   -1    0    0    0    0 -0.00000000000E+00 -0.00000000000E+00 -0.45593999997E+02  0.45594000000E+02  0.51100000000E-03 0. -1.
    9900012    2    1    2    0    0 -0.42721224991E+02  0.95452037769E+00  0.75900526900E+01  0.47787273351E+02  0.20000010515E+02 0.  0.
         12    1    1    2    0    0  0.42721224991E+02 -0.95452037769E+00 -0.75900526900E+01  0.43400726649E+02  0.00000000000E+00 0. -1.
         11    1    3    3    0    0 -0.14378901989E+02  0.10631827205E+01 -0.25931770714E+00  0.14420486324E+02  0.51100000000E-03 0. -1.
        -11    1    3    3    0    0 -0.10553094159E+02 -0.76869650797E+01  0.23704120317E+01  0.13269366297E+02  0.51100000000E-03 0.  1.
         12    1    3    3    0    0 -0.17789228843E+02  0.75783027369E+01  0.54789583654E+01  0.20097420730E+02  0.00000000000E+00 0. -1.
</event>
<event>
 7    1  0.2682317E-010  0.4778727E+02  0.7816164E-02  0.1312668E+00
        -11   -1    0    0    0    0  0.00000000000E+00  0.00000000000E+00  0.45593999997E+02  0.45594000000E+02  0.51100000000E-03 0.  1.
         11   -1    0    0    0    0 -0.00000000000E+00 -0.00000000000E+00 -0.45593999997E+02  0.45594000000E+02  0.51100000000E-03 0. -1.
    9900012    2    1    2    0    0  0.17074937788E+02 -0.13818127927E+02  0.37431658893E+02  0.47787271350E+02  0.20000001393E+02 0.  0.
         12    1    1    2    0    0 -0.17074937788E+02  0.13818127927E+02 -0.37431658893E+02  0.43400728650E+02  0.00000000000E+00 0. -1.
         11    1    3    3    0    0  0.11802232590E+02 -0.52054445948E+01  0.22473190690E+02  0.25912036732E+02  0.51100000000E-03 0. -1.
        -11    1    3    3    0    0  0.82117319002E+01 -0.95920342389E+01  0.10372688329E+02  0.16341123739E+02  0.51100000000E-03 0.  1.
         12    1    3    3    0    0 -0.29390267027E+01  0.97935090704E+00  0.45857798749E+01  0.55341108788E+01  0.00000000000E+00 0. -1.
</event>
<event>
 7    1  0.2682317E-010  0.4778727E+02  0.7816164E-02  0.1312668E+00
        -11   -1    0    0    0    0  0.00000000000E+00  0.00000000000E+00  0.45593999997E+02  0.45594000000E+02  0.51100000000E-03 0.  1.
         11   -1    0    0    0    0 -0.00000000000E+00 -0.00000000000E+00 -0.45593999997E+02  0.45594000000E+02  0.51100000000E-03 0. -1.
    9900012    2    1    2    0    0  0.29872767552E+02  0.31238711250E+02 -0.39222458299E+01  0.47787270350E+02  0.19999996835E+02 0.  0.
         12    1    1    2    0    0 -0.29872767552E+02 -0.31238711250E+02  0.39222458299E+01  0.43400729650E+02  0.00000000000E+00 0. -1.
         11    1    3    3    0    0  0.37406225889E+01  0.44963640860E+01  0.53487899714E+01  0.79258502235E+01  0.51100000000E-03 0. -1.
        -11    1    3    3    0    0  0.17600881440E+02  0.14608727573E+02 -0.10384354287E+01  0.22897255232E+02  0.51100000000E-03 0.  1.
        -12    1    3    3    0    0  0.85312635232E+01  0.12133619591E+02 -0.82326003726E+01  0.16964164895E+02  0.00000000000E+00 0.  1.
</event>
<event>
 7    1  0.2682317E-010  0.4778727E+02  0.7816164E-02  0.1312668E+00
        -11   -1    0    0    0    0  0.00000000000E+00  0.00000000000E+00  0.45593999997E+02  0.45594000000E+02  0.51100000000E-03 0. -1.
         11   -1    0    0    0    0 -0.00000000000E+00 -0.00000000000E+00 -0.45593999997E+02  0.45594000000E+02  0.51100000000E-03 0.  1.
    9900012    2    1    2    0    0  0.33432403182E+02 -0.16530105014E+02 -0.22195790968E+02  0.47787273151E+02  0.20000009607E+02 0.  0.
         12    1    1    2    0    0 -0.33432403182E+02  0.16530105014E+02  0.22195790968E+02  0.43400726849E+02  0.00000000000E+00 0. -1.
         11    1    3    3    0    0  0.92093644300E+01 -0.12265096413E+01  0.10970320809E+01  0.93552230733E+01  0.51100000000E-03 0. -1.
        -11    1    3    3    0    0  0.63783231313E+01 -0.47066415860E+01 -0.10261458771E+01  0.79930254979E+01  0.51100000000E-03 0.  1.
         12    1    3    3    0    0  0.17844715621E+02 -0.10596953786E+02 -0.22266677172E+02  0.30439024580E+02  0.00000000000E+00 0. -1.
</event>
<event>
 7    1  0.2682317E-010  0.4778727E+02  0.7816164E-02  0.1312668E+00
        -11   -1    0    0    0    0  0.00000000000E+00  0.00000000000E+00  0.45593999997E+02  0.45594000000E+02  0.51100000000E-03 0. -1.
         11   -1    0    0    0    0 -0.00000000000E+00 -0.00000000000E+00 -0.45593999997E+02  0.45594000000E+02  0.51100000000E-03 0.  1.
    9900012    2    1    2    0    0 -0.25530348401E+02  0.28998971971E+02 -0.19770788695E+02  0.47787272466E+02  0.20000006481E+02 0.  0.
         12    1    1    2    0    0  0.25530348401E+02 -0.28998971971E+02  0.19770788695E+02  0.43400727534E+02  0.00000000000E+00 0. -1.
         11    1    3    3    0    0 -0.14128138730E+01  0.68098889408E+01 -0.46892796943E+01  0.83880852844E+01  0.51100000000E-03 0. -1.
        -11    1    3    3    0    0 -0.92250009469E+00  0.61531953818E+01 -0.83413147909E+01  0.10406265062E+02  0.51100000000E-03 0.  1.
         12    1    3    3    0    0 -0.23195034434E+02  0.16035887648E+02 -0.67401942099E+01  0.28992922120E+02  0.00000000000E+00 0. -1.
</event>
<event>
 7    1  0.2682317E-010  0.4778727E+02  0.7816164E-02  0.1312668E+00
        -11   -1    0    0    0    0  0.00000000000E+00  0.00000000000E+00  0.45593999997E+02  0.45594000000E+02  0.51100000000E-03 0. -1.
         11   -1    0    0    0    0 -0.00000000000E+00 -0.00000000000E+00 -0.45593999997E+02  0.45594000000E+02  0.51100000000E-03 0.  1.
    9900012    2    1    2    0    0  0.29448055940E+02 -0.13691786776E+02 -0.28791838950E+02  0.47787274040E+02  0.20000013657E+02 0.  0.
         12    1    1    2    0    0 -0.29448055940E+02  0.13691786776E+02  0.28791838950E+02  0.43400725960E+02  0.00000000000E+00 0. -1.
         11    1    3    3    0    0  0.85738157117E+01 -0.58125615276E+00 -0.57146860012E+01  0.10320165257E+02  0.51100000000E-03 0. -1.
        -11    1    3    3    0    0  0.52666191879E+01  0.14508048017E+01 -0.12506679408E+02  0.13647679009E+02  0.51100000000E-03 0.  1.
         12    1    3    3    0    0  0.15607621040E+02 -0.14561335425E+02 -0.10570473540E+02  0.23819429774E+02  0.00000000000E+00 0. -1.
</event>
<event>
 7    1  0.2682317E-010  0.4778728E+02  0.7816164E-02  0.1312668E+00
        -11   -1    0    0    0    0  0.00000000000E+00  0.00000000000E+00  0.45593999997E+02  0.45594000000E+02  0.51100000000E-03 0. -1.
         11   -1    0    0    0    0 -0.00000000000E+00 -0.00000000000E+00 -0.45593999997E+02  0.45594000000E+02  0.51100000000E-03 0.  1.
    9900012    2    1    2    0    0  0.28995231720E+01  0.33358276951E+02 -0.27612328004E+02  0.47787279573E+02  0.20000038886E+02 0.  0.
         12    1    1    2    0    0 -0.28995231720E+01 -0.33358276951E+02  0.27612328004E+02  0.43400720427E+02  0.00000000000E+00 0. -1.
         11    1    3    3    0    0  0.65544423318E+00 -0.12796552124E+01 -0.62690746437E+00  0.15684826539E+01  0.51100000000E-03 0. -1.
        -11    1    3    3    0    0  0.23674470052E+01  0.16417381328E+02 -0.43258421806E+01  0.17141998887E+02  0.51100000000E-03 0.  1.
         12    1    3    3    0    0 -0.12336806640E+00  0.18220550835E+02 -0.22659578359E+02  0.29076798033E+02  0.00000000000E+00 0. -1.
</event>
<event>
 7    1  0.2682317E-010  0.4778726E+02  0.7816164E-02  0.1312668E+00
        -11   -1    0    0    0    0  0.00000000000E+00  0.00000000000E+00  0.45593999997E+02  0.45594000000E+02  0.51100000000E-03 0.  1.
         11   -1    0    0    0    0 -0.00000000000E+00 -0.00000000000E+00 -0.45593999997E+02  0.45594000000E+02  0.51100000000E-03 0. -1.
    9900012    2    1    2    0    0  0.34731521991E+01 -0.38940658445E+02  0.18846385757E+02  0.47787263572E+02  0.19999965932E+02 0.  0.
         12    1    1    2    0    0 -0.34731521991E+01  0.38940658445E+02 -0.18846385757E+02  0.43400736428E+02  0.00000000000E+00 0. -1.
         11    1    3    3    0    0  0.66529015129E+01 -0.11327559086E+02  0.67031581895E+01  0.14748119316E+02  0.51100000000E-03 0. -1.
        -11    1    3    3    0    0  0.26239741857E+01 -0.14011826058E+02  0.58000323619E+00  0.14267197133E+02  0.51100000000E-03 0.  1.
         12    1    3    3    0    0 -0.58037234994E+01 -0.13601273301E+02  0.11563224332E+02  0.18771947124E+02  0.00000000000E+00 0. -1.
</event>
<event>
 7    1  0.2682317E-010  0.4778727E+02  0.7816164E-02  0.1312668E+00
        -11   -1    0    0    0    0  0.00000000000E+00  0.00000000000E+00  0.45593999997E+02  0.45594000000E+02  0.51100000000E-03 0. -1.
         11   -1    0    0    0    0 -0.00000000000E+00 -0.00000000000E+00 -0.45593999997E+02  0.45594000000E+02  0.51100000000E-03 0.  1.
    9900012    2    1    2    0    0 -0.36223238696E+02  0.21979285268E+02 -0.94027268842E+01  0.47787271027E+02  0.19999999922E+02 0.  0.
         12    1    1    2    0    0  0.36223238696E+02 -0.21979285268E+02  0.94027268842E+01  0.43400728973E+02  0.00000000000E+00 0. -1.
         11    1    3    3    0    0 -0.50773720105E+00  0.56159118719E+01 -0.43602060549E+01  0.71279492367E+01  0.51100000000E-03 0. -1.
        -11    1    3    3    0    0 -0.76079413662E+01  0.79258981594E+01 -0.92561875204E+00  0.11025307424E+02  0.51100000000E-03 0.  1.
        -12    1    3    3    0    0 -0.28107560129E+02  0.84374752369E+01 -0.41169020773E+01  0.29634014366E+02  0.00000000000E+00 0.  1.
</event>
<event>
 7    1  0.2682317E-010  0.4778727E+02  0.7816164E-02  0.1312668E+00
        -11   -1    0    0    0    0  0.00000000000E+00  0.00000000000E+00  0.45593999997E+02  0.45594000000E+02  0.51100000000E-03 0.  1.
         11   -1    0    0    0    0 -0.00000000000E+00 -0.00000000000E+00 -0.45593999997E+02  0.45594000000E+02  0.51100000000E-03 0. -1.
    9900012    2    1    2    0    0 -0.32403500670E+02  0.25969489741E+02  0.12618329265E+02  0.47787268594E+02  0.19999988829E+02 0.  0.
         12    1    1    2    0    0  0.32403500670E+02 -0.25969489741E+02 -0.12618329265E+02  0.43400731406E+02  0.00000000000E+00 0. -1.
         11    1    3    3    0    0 -0.78293994099E+01  0.83217752182E+01  0.10291809887E+01  0.11472168569E+02  0.51100000000E-03 0. -1.
        -11    1    3    3    0    0 -0.75818284364E+01  0.11505827618E+02 -0.17032547502E+01  0.13884137302E+02  0.51100000000E-03 0.  1.
        -12    1    3    3    0    0 -0.16992272824E+02  0.61418869045E+01  0.13292403027E+02  0.22430962723E+02  0.00000000000E+00 0.  1.
</event>
<event>
 7    1  0.2682317E-010  0.4778726E+02  0.7816164E-02  0.1312668E+00
        -11   -1    0    0    0    0  0.00000000000E+00  0.00000000000E+00  0.45593999997E+02  0.45594000000E+02  0.51100000000E-03 0.  1.
         11   -1    0    0    0    0 -0.00000000000E+00 -0.00000000000E+00 -0.45593999997E+02  0.45594000000E+02  0.51100000000E-03 0. -1.
    9900012    2    1    2    0    0  0.36843147994E+02 -0.17854581237E+02  0.14402110571E+02  0.47787257908E+02  0.19999940105E+02 0.  0.
         12    1    1    2    0    0 -0.36843147994E+02  0.17854581237E+02 -0.14402110571E+02  0.43400742092E+02  0.00000000000E+00 0. -1.
         11    1    3    3    0    0 -0.70219785575E-01 -0.38869112664E+00 -0.17269971834E+00  0.43108823233E+00  0.51100000000E-03 0. -1.
        -11    1    3    3    0    0  0.19650852900E+02  0.13659595108E+00  0.22111270271E+01  0.19775332137E+02  0.51100000000E-03 0.  1.
         12    1    3    3    0    0  0.17262514880E+02 -0.17602486061E+02  0.12363683262E+02  0.27580837538E+02  0.00000000000E+00 0. -1.
</event>
<event>
 7    1  0.2682317E-010  0.4778727E+02  0.7816164E-02  0.1312668E+00
        -11   -1    0    0    0    0  0.00000000000E+00  0.00000000000E+00  0.45593999997E+02  0.45594000000E+02  0.51100000000E-03 0.  1.
         11   -1    0    0    0    0 -0.00000000000E+00 -0.00000000000E+00 -0.45593999997E+02  0.45594000000E+02  0.51100000000E-03 0. -1.
    9900012    2    1    2    0    0  0.38664184329E+02 -0.14634869525E+01  0.19661191167E+02  0.47787269798E+02  0.19999994319E+02 0.  0.
         12    1    1    2    0    0 -0.38664184329E+02  0.14634869525E+01 -0.19661191167E+02  0.43400730202E+02  0.00000000000E+00 0. -1.
         11    1    3    3    0    0  0.15949147882E+02 -0.34606943283E+01  0.61961387691E+01  0.17456914369E+02  0.51100000000E-03 0. -1.
        -11    1    3    3    0    0  0.20689870918E+01 -0.48964754622E+01  0.16608986760E+01  0.55690900703E+01  0.51100000000E-03 0.  1.
        -12    1    3    3    0    0  0.20646049356E+02  0.68936828380E+01  0.11804153722E+02  0.24761265359E+02  0.00000000000E+00 0.  1.
</event>
<event>
 7    1  0.2682317E-010  0.4778727E+02  0.7816164E-02  0.1312668E+00
        -11   -1    0    0    0    0  0.00000000000E+00  0.00000000000E+00  0.45593999997E+02  0.45594000000E+02  0.51100000000E-03 0.  1.
         11   -1    0    0    0    0 -0.00000000000E+00 -0.00000000000E+00 -0.45593999997E+02  0.45594000000E+02  0.51100000000E-03 0. -1.
    9900012    2    1    2    0    0 -0.12918176698E+02 -0.14445353174E+02  0.38833952232E+02  0.47787270012E+02  0.19999995295E+02 0.  0.
         12    1    1    2    0    0  0.12918176698E+02  0.14445353174E+02 -0.38833952232E+02  0.43400729988E+02  0.00000000000E+00 0. -1.
         11    1    3    3    0    0  0.28022015543E+01 -0.10285255894E+01  0.23360192634E+01  0.37904069305E+01  0.51100000000E-03 0. -1.
        -11    1    3    3    0    0  0.13791614036E+01 -0.52890805572E+01  0.61549277546E+01  0.82316216654E+01  0.51100000000E-03 0.  1.
         12    1    3    3    0    0 -0.17099539655E+02 -0.81277470276E+01  0.30343005214E+02  0.35765241416E+02  0.00000000000E+00 0. -1.
</event>
<event>
 7    1  0.2682317E-010  0.4778727E+02  0.7816164E-02  0.1312668E+00
        -11   -1    0    0    0    0  0.00000000000E+00  0.00000000000E+00  0.45593999997E+02  0.45594000000E+02  0.51100000000E-03 0. -1.
         11   -1    0    0    0    0 -0.00000000000E+00 -0.00000000000E+00 -0.45593999997E+02  0.45594000000E+02  0.51100000000E-03 0.  1.
    9900012    2    1    2    0    0 -0.32474895399E+02 -0.28470497174E+02  0.42936320735E+01  0.47787270549E+02  0.19999997740E+02 0.  0.
         12    1    1    2    0    0  0.32474895399E+02  0.28470497174E+02 -0.42936320735E+01  0.43400729451E+02  0.00000000000E+00 0. -1.
         11    1    3    3    0    0 -0.86040381903E+01 -0.12591147648E+02  0.40675405757E+01  0.15783261985E+02  0.51100000000E-03 0. -1.
        -11    1    3    3    0    0  0.36949409090E+00 -0.14353713980E+01  0.33020333211E+01  0.36194255412E+01  0.51100000000E-03 0.  1.
        -12    1    3    3    0    0 -0.24240351300E+02 -0.14443978127E+02 -0.30759418234E+01  0.28384583023E+02  0.00000000000E+00 0.  1.
</event>
<event>
 7    1  0.2682317E-010  0.4778727E+02  0.7816164E-02  0.1312668E+00
        -11   -1    0    0    0    0  0.00000000000E+00  0.00000000000E+00  0.45593999997E+02  0.45594000000E+02  0.51100000000E-03 0.  1.
         11   -1    0    0    0    0 -0.00000000000E+00 -0.00000000000E+00 -0.45593999997E+02  0.45594000000E+02  0.51100000000E-03 0. -1.
    9900012    2    1    2    0    0  0.18022328232E+02  0.30784701631E+02  0.24720866204E+02  0.47787269646E+02  0.19999993624E+02 0.  0.
         12    1    1    2    0    0 -0.18022328232E+02 -0.30784701631E+02 -0.24720866204E+02  0.43400730354E+02  0.00000000000E+00 0. -1.
         11    1    3    3    0    0 -0.90127308371E+00  0.60695481454E+00  0.21165578518E+01  0.23791815230E+01  0.51100000000E-03 0. -1.
        -11    1    3    3    0    0  0.20799952294E+02  0.27188645451E+02  0.23787514204E+02  0.41685804408E+02  0.51100000000E-03 0.  1.
        -12    1    3    3    0    0 -0.18763509787E+01  0.29891013652E+01 -0.11832058518E+01  0.37222837149E+01  0.00000000000E+00 0.  1.
</event>
<event>
 7    1  0.2682317E-010  0.4778727E+02  0.7816164E-02  0.1312668E+00
        -11   -1    0    0    0    0  0.00000000000E+00  0.00000000000E+00  0.45593999997E+02  0.45594000000E+02  0.51100000000E-03 0.  1.
         11   -1    0    0    0    0 -0.00000000000E+00 -0.00000000000E+00 -0.45593999997E+02  0.45594000000E+02  0.51100000000E-03 0. -1.
    9900012    2    1    2    0    0  0.89266331969E+00  0.20061727566E+02  0.38475366748E+02  0.47787267205E+02  0.19999982496E+02 0.  0.
         12    1    1    2    0    0 -0.89266331969E+00 -0.20061727566E+02 -0.38475366748E+02  0.43400732795E+02  0.00000000000E+00 0. -1.
         11    1    3    3    0    0 -0.16685437475E+01  0.59986292697E+01  0.98393527889E+00  0.63036275466E+01  0.51100000000E-03 0. -1.
        -11    1    3    3    0    0 -0.35581597492E+01  0.54193400819E+01  0.90346082014E+01  0.11119977218E+02  0.51100000000E-03 0.  1.
         12    1    3    3    0    0  0.61193668163E+01  0.86437582144E+01  0.28456823268E+02  0.30363662440E+02  0.00000000000E+00 0. -1.
</event>
<event>
 7    1  0.2682317E-010  0.4778727E+02  0.7816164E-02  0.1312668E+00
        -11   -1    0    0    0    0  0.00000000000E+00  0.00000000000E+00  0.45593999997E+02  0.45594000000E+02  0.51100000000E-03 0.  1.
         11   -1    0    0    0    0 -0.00000000000E+00 -0.00000000000E+00 -0.45593999997E+02  0.45594000000E+02  0.51100000000E-03 0. -1.
    9900012    2    1    2    0    0 -0.11326577557E+02  0.40456579533E+02  0.10890251789E+02  0.47787265321E+02  0.19999973904E+02 0.  0.
         12    1    1    2    0    0  0.11326577557E+02 -0.40456579533E+02 -0.10890251789E+02  0.43400734679E+02  0.00000000000E+00 0. -1.
         11    1    3    3    0    0  0.90996979433E+00  0.13466484172E+01  0.41035474004E+00  0.16762751146E+01  0.51100000000E-03 0. -1.
        -11    1    3    3    0    0 -0.16122487211E+02  0.21737170686E+02  0.53843709815E+01  0.27594032587E+02  0.51100000000E-03 0.  1.
        -12    1    3    3    0    0  0.38859398601E+01  0.17372760430E+02  0.50955260671E+01  0.18516957619E+02  0.00000000000E+00 0.  1.
</event>
<event>
 7    1  0.2682317E-010  0.4778728E+02  0.7816164E-02  0.1312668E+00
        -11   -1    0    0    0    0  0.00000000000E+00  0.00000000000E+00  0.45593999997E+02  0.45594000000E+02  0.51100000000E-03 0.  1.
         11   -1    0    0    0    0 -0.00000000000E+00 -0.00000000000E+00 -0.45593999997E+02  0.45594000000E+02  0.51100000000E-03 0. -1.
    9900012    2    1    2    0    0  0.41007441907E+02  0.14197789739E+02  0.65982705375E+00  0.47787275386E+02  0.20000019797E+02 0.  0.
         12    1    1    2    0    0 -0.41007441907E+02 -0.14197789739E+02 -0.65982705375E+00  0.43400724614E+02  0.00000000000E+00 0. -1.
         11    1    3    3    0    0  0.58600669417E+01 -0.19664045623E+01  0.49544284726E+00  0.62010156701E+01  0.51100000000E-03 0. -1.
        -11    1    3    3    0    0  0.66529769773E+01  0.89310171475E+01  0.42206521979E+01  0.11909621119E+02  0.51100000000E-03 0.  1.
        -12    1    3    3    0    0  0.28494397988E+02  0.72331771539E+01 -0.40562679915E+01  0.29676638598E+02  0.00000000000E+00 0.  1.
</event>
<event>
 7    1  0.2682317E-010  0.4778727E+02  0.7816164E-02  0.1312668E+00
        -11   -1    0    0    0    0  0.00000000000E+00  0.00000000000E+00  0.45593999997E+02  0.45594000000E+02  0.51100000000E-03 0.  1.
         11   -1    0    0    0    0 -0.00000000000E+00 -0.00000000000E+00 -0.45593999997E+02  0.45594000000E+02  0.51100000000E-03 0. -1.
    9900012    2    1    2    0    0 -0.42630799675E+02 -0.42167006932E+01  0.69611761177E+01  0.47787267073E+02  0.19999981892E+02 0.  0.
         12    1    1    2    0    0  0.42630799675E+02  0.42167006932E+01 -0.69611761177E+01  0.43400732927E+02  0.00000000000E+00 0. -1.
         11    1    3    3    0    0 -0.30468326198E+01  0.21270531782E+00 -0.48245674414E+01  0.57100686356E+01  0.51100000000E-03 0. -1.
        -11    1    3    3    0    0 -0.63421223031E+01  0.75617488415E+00  0.40260502260E+01  0.75500593671E+01  0.51100000000E-03 0.  1.
         12    1    3    3    0    0 -0.33241844752E+02 -0.51855808952E+01  0.77596933331E+01  0.34527139070E+02  0.00000000000E+00 0. -1.
</event>
<event>
 7    1  0.2682317E-010  0.4778727E+02  0.7816164E-02  0.1312668E+00
        -11   -1    0    0    0    0  0.00000000000E+00  0.00000000000E+00  0.45593999997E+02  0.45594000000E+02  0.51100000000E-03 0.  1.
         11   -1    0    0    0    0 -0.00000000000E+00 -0.00000000000E+00 -0.45593999997E+02  0.45594000000E+02  0.51100000000E-03 0. -1.
    9900012    2    1    2    0    0  0.30907234840E+02 -0.13767486729E+02  0.27181281883E+02  0.47787274878E+02  0.20000017480E+02 0.  0.
         12    1    1    2    0    0 -0.30907234840E+02  0.13767486729E+02 -0.27181281883E+02  0.43400725122E+02  0.00000000000E+00 0. -1.
         11    1    3    3    0    0  0.32373373249E+01 -0.42310610214E+01 -0.26999823499E-02  0.53274982753E+01  0.51100000000E-03 0. -1.
        -11    1    3    3    0    0  0.67642509184E+01 -0.88533693623E+01  0.13320136776E+02  0.17365577547E+02  0.51100000000E-03 0.  1.
        -12    1    3    3    0    0  0.20905646597E+02 -0.68305634504E+00  0.13863845089E+02  0.25094199056E+02  0.00000000000E+00 0.  1.
</event>
<event>
 7    1  0.2682317E-010  0.4778727E+02  0.7816164E-02  0.1312668E+00
        -11   -1    0    0    0    0  0.00000000000E+00  0.00000000000E+00  0.45593999997E+02  0.45594000000E+02  0.51100000000E-03 0.  1.
         11   -1    0    0    0    0 -0.00000000000E+00 -0.00000000000E+00 -0.45593999997E+02  0.45594000000E+02  0.51100000000E-03 0. -1.
    9900012    2    1    2    0    0 -0.41238352250E+02  0.51574662547E+01  0.12506883514E+02  0.47787270862E+02  0.19999999169E+02 0.  0.
         12    1    1    2    0    0  0.41238352250E+02 -0.51574662547E+01 -0.12506883514E+02  0.43400729138E+02  0.00000000000E+00 0. -1.
         11    1    3    3    0    0 -0.99693862945E+01 -0.36529474685E+01  0.53696879459E+01  0.11898161085E+02  0.51100000000E-03 0. -1.
        -11    1    3    3    0    0 -0.14819178947E+02  0.57198823064E+00  0.90803376415E+01  0.17389300364E+02  0.51100000000E-03 0.  1.
        -12    1    3    3    0    0 -0.16449787009E+02  0.82384254926E+01 -0.19431420737E+01  0.18499809414E+02  0.00000000000E+00 0.  1.
</event>
<event>
 7    1  0.2682317E-010  0.4778727E+02  0.7816164E-02  0.1312668E+00
        -11   -1    0    0    0    0  0.00000000000E+00  0.00000000000E+00  0.45593999997E+02  0.45594000000E+02  0.51100000000E-03 0. -1.
         11   -1    0    0    0    0 -0.00000000000E+00 -0.00000000000E+00 -0.45593999997E+02  0.45594000000E+02  0.51100000000E-03 0.  1.
    9900012    2    1    2    0    0 -0.23172942381E+02  0.32963698563E+02 -0.16125527856E+02  0.47787270395E+02  0.19999997041E+02 0.  0.
         12    1    1    2    0    0  0.23172942381E+02 -0.32963698563E+02  0.16125527856E+02  0.43400729605E+02  0.00000000000E+00 0. -1.
         11    1    3    3    0    0 -0.76901391886E+01  0.13016323782E+02 -0.37559889653E+01  0.15577881079E+02  0.51100000000E-03 0. -1.
        -11    1    3    3    0    0 -0.16901084192E+01  0.12480081332E+02 -0.61468506295E+00  0.12608994191E+02  0.51100000000E-03 0.  1.
         12    1    3    3    0    0 -0.13792694773E+02  0.74672934494E+01 -0.11754853828E+02  0.19600395126E+02  0.00000000000E+00 0. -1.
</event>
<event>
 7    1  0.2682317E-010  0.4778727E+02  0.7816164E-02  0.1312668E+00
        -11   -1    0    0    0    0  0.00000000000E+00  0.00000000000E+00  0.45593999997E+02  0.45594000000E+02  0.51100000000E-03 0.  1.
         11   -1    0    0    0    0 -0.00000000000E+00 -0.00000000000E+00 -0.45593999997E+02  0.45594000000E+02  0.51100000000E-03 0. -1.
    9900012    2    1    2    0    0 -0.11175784647E+01  0.14741709544E+02  0.40805101314E+02  0.47787271030E+02  0.19999999935E+02 0.  0.
         12    1    1    2    0    0  0.11175784647E+01 -0.14741709544E+02 -0.40805101314E+02  0.43400728970E+02  0.00000000000E+00 0. -1.
         11    1    3    3    0    0  0.43347449175E+01  0.58727224811E+01  0.53861637394E+01  0.90713638958E+01  0.51100000000E-03 0. -1.
        -11    1    3    3    0    0 -0.50087272892E+01  0.10708089848E+01  0.44751263559E+01  0.68015246160E+01  0.51100000000E-03 0.  1.
        -12    1    3    3    0    0 -0.44359609300E+00  0.77981780777E+01  0.30943811218E+02  0.31914382519E+02  0.00000000000E+00 0.  1.
</event>
<event>
 7    1  0.2682317E-010  0.4778727E+02  0.7816164E-02  0.1312668E+00
        -11   -1    0    0    0    0  0.00000000000E+00  0.00000000000E+00  0.45593999997E+02  0.45594000000E+02  0.51100000000E-03 0.  1.
         11   -1    0    0    0    0 -0.00000000000E+00 -0.00000000000E+00 -0.45593999997E+02  0.45594000000E+02  0.51100000000E-03 0. -1.
    9900012    2    1    2    0    0  0.73428251833E+01 -0.23766486237E+00  0.42774405911E+02  0.47787269968E+02  0.19999995091E+02 0.  0.
         12    1    1    2    0    0 -0.73428251833E+01  0.23766486237E+00 -0.42774405911E+02  0.43400730032E+02  0.00000000000E+00 0. -1.
         11    1    3    3    0    0 -0.35289041115E+01 -0.60877824630E+00  0.33205861333E+01  0.48836531113E+01  0.51100000000E-03 0. -1.
        -11    1    3    3    0    0  0.55840234367E+01  0.47658565155E+01  0.86667445724E+01  0.11358132233E+02  0.51100000000E-03 0.  1.
        -12    1    3    3    0    0  0.52877058581E+01 -0.43947431316E+01  0.30787075206E+02  0.31545484624E+02  0.00000000000E+00 0.  1.
</event>
<event>
 7    1  0.2682317E-010  0.4778727E+02  0.7816164E-02  0.1312668E+00
        -11   -1    0    0    0    0  0.00000000000E+00  0.00000000000E+00  0.45593999997E+02  0.45594000000E+02  0.51100000000E-03 0.  1.
         11   -1    0    0    0    0 -0.00000000000E+00 -0.00000000000E+00 -0.45593999997E+02  0.45594000000E+02  0.51100000000E-03 0. -1.
    9900012    2    1    2    0    0 -0.41741877028E+02  0.93692412244E+01 -0.73114136367E+01  0.47787265579E+02  0.19999975080E+02 0.  0.
         12    1    1    2    0    0  0.41741877028E+02 -0.93692412244E+01  0.73114136367E+01  0.43400734421E+02  0.00000000000E+00 0. -1.
         11    1    3    3    0    0  0.65900715023E+00 -0.57258550087E-01 -0.23054902285E+01  0.23985108756E+01  0.51100000000E-03 0. -1.
        -11    1    3    3    0    0 -0.14550662670E+02  0.89974864674E+01 -0.10958717171E+00  0.17108142988E+02  0.51100000000E-03 0.  1.
        -12    1    3    3    0    0 -0.27850221508E+02  0.42901330708E+00 -0.48963362365E+01  0.28280611715E+02  0.00000000000E+00 0.  1.
</event>
<event>
 7    1  0.2682317E-010  0.4778727E+02  0.7816164E-02  0.1312668E+00
        -11   -1    0    0    0    0  0.00000000000E+00  0.00000000000E+00  0.45593999997E+02  0.45594000000E+02  0.51100000000E-03 0.  1.
         11   -1    0    0    0    0 -0.00000000000E+00 -0.00000000000E+00 -0.45593999997E+02  0.45594000000E+02  0.51100000000E-03 0. -1.
    9900012    2    1    2    0    0 -0.74940666014E+01 -0.16846751912E+02  0.39289304648E+02  0.47787267933E+02  0.19999985812E+02 0.  0.
         12    1    1    2    0    0  0.74940666014E+01  0.16846751912E+02 -0.39289304648E+02  0.43400732067E+02  0.00000000000E+00 0. -1.
         11    1    3    3    0    0 -0.48613317586E+01 -0.33380546266E+01  0.18426496214E+02  0.19347116533E+02  0.51100000000E-03 0. -1.
        -11    1    3    3    0    0 -0.40806410059E+01 -0.10879750533E+02  0.22274690917E+02  0.25123344889E+02  0.51100000000E-03 0.  1.
        -12    1    3    3    0    0  0.14479061631E+01 -0.26289467525E+01 -0.14118824829E+01  0.33168065108E+01  0.00000000000E+00 0.  1.
</event>
<event>
 7    1  0.2682317E-010  0.4778728E+02  0.7816164E-02  0.1312668E+00
        -11   -1    0    0    0    0  0.00000000000E+00  0.00000000000E+00  0.45593999997E+02  0.45594000000E+02  0.51100000000E-03 0.  1.
         11   -1    0    0    0    0 -0.00000000000E+00 -0.00000000000E+00 -0.45593999997E+02  0.45594000000E+02  0.51100000000E-03 0. -1.
    9900012    2    1    2    0    0  0.14162564877E+02  0.24367612677E+02  0.33003996926E+02  0.47787278755E+02  0.20000035156E+02 0.  0.
         12    1    1    2    0    0 -0.14162564877E+02 -0.24367612677E+02 -0.33003996926E+02  0.43400721245E+02  0.00000000000E+00 0. -1.
         11    1    3    3    0    0  0.10384908508E+02  0.10383909475E+02  0.21348019043E+02  0.25911576912E+02  0.51100000000E-03 0. -1.
        -11    1    3    3    0    0  0.51259452472E+01  0.12924819816E+02  0.13484634595E+02  0.19369090128E+02  0.51100000000E-03 0.  1.
         12    1    3    3    0    0 -0.13482888778E+01  0.10588833851E+01 -0.18286567121E+01  0.25066117154E+01  0.00000000000E+00 0. -1.
</event>
<event>
 7    1  0.2682317E-010  0.4778727E+02  0.7816164E-02  0.1312668E+00
        -11   -1    0    0    0    0  0.00000000000E+00  0.00000000000E+00  0.45593999997E+02  0.45594000000E+02  0.51100000000E-03 0.  1.
         11   -1    0    0    0    0 -0.00000000000E+00 -0.00000000000E+00 -0.45593999997E+02  0.45594000000E+02  0.51100000000E-03 0. -1.
    9900012    2    1    2    0    0  0.59609900854E+01 -0.42215763604E+02  0.81190846055E+01  0.47787266892E+02  0.19999981069E+02 0.  0.
         12    1    1    2    0    0 -0.59609900854E+01  0.42215763604E+02 -0.81190846055E+01  0.43400733108E+02  0.00000000000E+00 0. -1.
         11    1    3    3    0    0 -0.37445007285E+01 -0.16802023419E+02  0.59528744774E+01  0.18214444583E+02  0.51100000000E-03 0. -1.
        -11    1    3    3    0    0  0.80098185465E+00 -0.17622405481E+02  0.18409223026E+01  0.17736395972E+02  0.51100000000E-03 0.  1.
         12    1    3    3    0    0  0.89045089593E+01 -0.77913347035E+01  0.32528782556E+00  0.11836426337E+02  0.00000000000E+00 0. -1.
</event>
<event>
 7    1  0.2682317E-010  0.4778727E+02  0.7816164E-02  0.1312668E+00
        -11   -1    0    0    0    0  0.00000000000E+00  0.00000000000E+00  0.45593999997E+02  0.45594000000E+02  0.51100000000E-03 0. -1.
         11   -1    0    0    0    0 -0.00000000000E+00 -0.00000000000E+00 -0.45593999997E+02  0.45594000000E+02  0.51100000000E-03 0.  1.
    9900012    2    1    2    0    0 -0.20602263505E+02  0.12948132883E+02 -0.35937662047E+02  0.47787274660E+02  0.20000016484E+02 0.  0.
         12    1    1    2    0    0  0.20602263505E+02 -0.12948132883E+02  0.35937662047E+02  0.43400725340E+02  0.00000000000E+00 0. -1.
         11    1    3    3    0    0 -0.13454713474E+01  0.36891301569E+01 -0.49396026491E+01  0.63102812182E+01  0.51100000000E-03 0. -1.
        -11    1    3    3    0    0 -0.11259918334E+02  0.63843211299E+01 -0.45872822011E+01  0.13732751925E+02  0.51100000000E-03 0.  1.
        -12    1    3    3    0    0 -0.79968738239E+01  0.28746815957E+01 -0.26410777197E+02  0.27744241517E+02  0.00000000000E+00 0.  1.
</event>
<event>
 7    1  0.2682317E-010  0.4778724E+02  0.7816164E-02  0.1312668E+00
        -11   -1    0    0    0    0  0.00000000000E+00  0.00000000000E+00  0.45593999997E+02  0.45594000000E+02  0.51100000000E-03 0.  1.
         11   -1    0    0    0    0 -0.00000000000E+00 -0.00000000000E+00 -0.45593999997E+02  0.45594000000E+02  0.51100000000E-03 0. -1.
    9900012    2    1    2    0    0  0.42108154159E+02  0.85314877985E+01  0.61435152525E+01  0.47787242975E+02  0.19999872019E+02 0.  0.
         12    1    1    2    0    0 -0.42108154159E+02 -0.85314877985E+01 -0.61435152525E+01  0.43400757025E+02  0.00000000000E+00 0. -1.
         11    1    3    3    0    0  0.56595488201E+01 -0.33840515130E+01  0.29329482283E+00  0.66006302430E+01  0.51100000000E-03 0. -1.
        -11    1    3    3    0    0  0.74118255184E+01  0.25793341068E+01 -0.44153210762E+01  0.90046200596E+01  0.51100000000E-03 0.  1.
        -12    1    3    3    0    0  0.29036779820E+02  0.93362052046E+01  0.10265541506E+02  0.32181992672E+02  0.00000000000E+00 0.  1.
</event>
<event>
 7    1  0.2682317E-010  0.4778727E+02  0.7816164E-02  0.1312668E+00
        -11   -1    0    0    0    0  0.00000000000E+00  0.00000000000E+00  0.45593999997E+02  0.45594000000E+02  0.51100000000E-03 0. -1.
         11   -1    0    0    0    0 -0.00000000000E+00 -0.00000000000E+00 -0.45593999997E+02  0.45594000000E+02  0.51100000000E-03 0.  1.
    9900012    2    1    2    0    0 -0.84872038799E+01 -0.40702856691E+02 -0.12444594437E+02  0.47787273011E+02  0.20000008965E+02 0.  0.
         12    1    1    2    0    0  0.84872038799E+01  0.40702856691E+02  0.12444594437E+02  0.43400726989E+02  0.00000000000E+00 0. -1.
         11    1    3    3    0    0  0.24177479500E+01 -0.48678739527E+01 -0.49529821349E+01  0.73534844978E+01  0.51100000000E-03 0.  1.
        -11    1    3    3    0    0 -0.21523188336E+01  0.56006477388E+00 -0.10160281112E+01  0.24450894250E+01  0.51100000000E-03 0. -1.
        -12    1    3    3    0    0 -0.87526329963E+01 -0.36395047512E+02 -0.64755841911E+01  0.37988699088E+02  0.00000000000E+00 0.  1.
</event>
<event>
 7    1  0.2682317E-010  0.4778727E+02  0.7816164E-02  0.1312668E+00
        -11   -1    0    0    0    0  0.00000000000E+00  0.00000000000E+00  0.45593999997E+02  0.45594000000E+02  0.51100000000E-03 0.  1.
         11   -1    0    0    0    0 -0.00000000000E+00 -0.00000000000E+00 -0.45593999997E+02  0.45594000000E+02  0.51100000000E-03 0. -1.
    9900012    2    1    2    0    0  0.27106983842E+02  0.29271013381E+02  0.17089246065E+02  0.47787272720E+02  0.20000007638E+02 0.  0.
         12    1    1    2    0    0 -0.27106983842E+02 -0.29271013381E+02 -0.17089246065E+02  0.43400727280E+02  0.00000000000E+00 0. -1.
         11    1    3    3    0    0  0.15749125059E+02  0.12650574119E+02  0.91908182589E+01  0.22193312195E+02  0.51100000000E-03 0. -1.
        -11    1    3    3    0    0  0.77830731653E+01  0.15265639085E+02  0.11259638553E+02  0.20503546649E+02  0.51100000000E-03 0.  1.
         12    1    3    3    0    0  0.35747856179E+01  0.13548001769E+01 -0.33612107472E+01  0.50904138751E+01  0.00000000000E+00 0. -1.
</event>
<event>
 7    1  0.2682317E-010  0.4778724E+02  0.7816164E-02  0.1312668E+00
        -11   -1    0    0    0    0  0.00000000000E+00  0.00000000000E+00  0.45593999997E+02  0.45594000000E+02  0.51100000000E-03 0.  1.
         11   -1    0    0    0    0 -0.00000000000E+00 -0.00000000000E+00 -0.45593999997E+02  0.45594000000E+02  0.51100000000E-03 0. -1.
    9900012    2    1    2    0    0  0.10640359956E+02 -0.33806268830E+01  0.41940195643E+02  0.47787240690E+02  0.19999861600E+02 0.  0.
         12    1    1    2    0    0 -0.10640359956E+02  0.33806268830E+01 -0.41940195643E+02  0.43400759310E+02  0.00000000000E+00 0. -1.
         11    1    3    3    0    0  0.66688999088E+01  0.73655072442E+01  0.20106888507E+02  0.22427926535E+02  0.51100000000E-03 0. -1.
        -11    1    3    3    0    0 -0.14403601564E+01 -0.14013878930E+01  0.46339502755E+01  0.50509425679E+01  0.51100000000E-03 0.  1.
         12    1    3    3    0    0  0.54118202040E+01 -0.93447462342E+01  0.17199356861E+02  0.20308371587E+02  0.00000000000E+00 0. -1.
</event>
<event>
 7    1  0.2682317E-010  0.4778726E+02  0.7816164E-02  0.1312668E+00
        -11   -1    0    0    0    0  0.00000000000E+00  0.00000000000E+00  0.45593999997E+02  0.45594000000E+02  0.51100000000E-03 0.  1.
         11   -1    0    0    0    0 -0.00000000000E+00 -0.00000000000E+00 -0.45593999997E+02  0.45594000000E+02  0.51100000000E-03 0. -1.
    9900012    2    1    2    0    0  0.29367537301E+02 -0.11667529877E+02  0.29749640268E+02  0.47787255806E+02  0.19999930520E+02 0.  0.
         12    1    1    2    0    0 -0.29367537301E+02  0.11667529877E+02 -0.29749640268E+02  0.43400744194E+02  0.00000000000E+00 0. -1.
         11    1    3    3    0    0  0.74533315006E+01 -0.75050190139E+01  0.49226269902E+01  0.11666606945E+02  0.51100000000E-03 0. -1.
        -11    1    3    3    0    0  0.32182151370E+01 -0.50787636744E+01  0.14719821683E+01  0.61901115412E+01  0.51100000000E-03 0.  1.
        -12    1    3    3    0    0  0.18695990663E+02  0.91625281175E+00  0.23355031110E+02  0.29930537320E+02  0.00000000000E+00 0.  1.
</event>
<event>
 7    1  0.2682317E-010  0.4778728E+02  0.7816164E-02  0.1312668E+00
        -11   -1    0    0    0    0  0.00000000000E+00  0.00000000000E+00  0.45593999997E+02  0.45594000000E+02  0.51100000000E-03 0.  1.
         11   -1    0    0    0    0 -0.00000000000E+00 -0.00000000000E+00 -0.45593999997E+02  0.45594000000E+02  0.51100000000E-03 0. -1.
    9900012    2    1    2    0    0  0.37462537226E+02  0.21126963429E+02  0.58165649487E+01  0.47787277576E+02  0.20000029780E+02 0.  0.
         12    1    1    2    0    0 -0.37462537226E+02 -0.21126963429E+02 -0.58165649487E+01  0.43400722424E+02  0.00000000000E+00 0. -1.
         11    1    3    3    0    0  0.76247522713E+01  0.31038406773E+01  0.67079765887E+01  0.10619210155E+02  0.51100000000E-03 0. -1.
        -11    1    3    3    0    0  0.26320359444E+02  0.15533138055E+02  0.38003454646E+01  0.30797440235E+02  0.51100000000E-03 0.  1.
         12    1    3    3    0    0  0.35174255099E+01  0.24899846970E+01 -0.46917571046E+01  0.63706271856E+01  0.00000000000E+00 0. -1.
</event>
<event>
 7    1  0.2682317E-010  0.4778727E+02  0.7816164E-02  0.1312668E+00
        -11   -1    0    0    0    0  0.00000000000E+00  0.00000000000E+00  0.45593999997E+02  0.45594000000E+02  0.51100000000E-03 0.  1.
         11   -1    0    0    0    0 -0.00000000000E+00 -0.00000000000E+00 -0.45593999997E+02  0.45594000000E+02  0.51100000000E-03 0. -1.
    9900012    2    1    2    0    0  0.10028834284E+02 -0.28441501260E+02  0.31211005259E+02  0.47787270049E+02  0.19999995461E+02 0.  0.
         12    1    1    2    0    0 -0.10028834284E+02  0.28441501260E+02 -0.31211005259E+02  0.43400729951E+02  0.00000000000E+00 0. -1.
         11    1    3    3    0    0  0.84436890015E+01 -0.15990681391E+02  0.14364274873E+02  0.23093942240E+02  0.51100000000E-03 0.  1.
        -11    1    3    3    0    0  0.63351407356E+01 -0.25594980633E+01  0.45306507071E+01  0.81982824157E+01  0.51100000000E-03 0. -1.
        -12    1    3    3    0    0 -0.47499954527E+01 -0.98913218055E+01  0.12316079679E+02  0.16495045393E+02  0.00000000000E+00 0.  1.
</event>
<event>
 7    1  0.2682317E-010  0.4778727E+02  0.7816164E-02  0.1312668E+00
        -11   -1    0    0    0    0  0.00000000000E+00  0.00000000000E+00  0.45593999997E+02  0.45594000000E+02  0.51100000000E-03 0.  1.
         11   -1    0    0    0    0 -0.00000000000E+00 -0.00000000000E+00 -0.45593999997E+02  0.45594000000E+02  0.51100000000E-03 0. -1.
    9900012    2    1    2    0    0  0.31065284110E+02 -0.12242143812E+02  0.27725469252E+02  0.47787267205E+02  0.19999982494E+02 0.  0.
         12    1    1    2    0    0 -0.31065284110E+02  0.12242143812E+02 -0.27725469252E+02  0.43400732795E+02  0.00000000000E+00 0. -1.
         11    1    3    3    0    0  0.53578945115E+01 -0.69954860389E+01  0.10927252403E+02  0.14037403743E+02  0.51100000000E-03 0. -1.
        -11    1    3    3    0    0 -0.13546298592E+01 -0.10556010910E+00  0.21708985603E+01  0.25610477958E+01  0.51100000000E-03 0.  1.
         12    1    3    3    0    0  0.27062019458E+02 -0.51410976638E+01  0.14627318288E+02  0.31188815666E+02  0.00000000000E+00 0. -1.
</event>
<event>
 7    1  0.2682317E-010  0.4778727E+02  0.7816164E-02  0.1312668E+00
        -11   -1    0    0    0    0  0.00000000000E+00  0.00000000000E+00  0.45593999997E+02  0.45594000000E+02  0.51100000000E-03 0.  1.
         11   -1    0    0    0    0 -0.00000000000E+00 -0.00000000000E+00 -0.45593999997E+02  0.45594000000E+02  0.51100000000E-03 0. -1.
    9900012    2    1    2    0    0  0.32066674484E-01 -0.55722939952E+01  0.43041512863E+02  0.47787270534E+02  0.19999997672E+02 0.  0.
         12    1    1    2    0    0 -0.32066674484E-01  0.55722939952E+01 -0.43041512863E+02  0.43400729466E+02  0.00000000000E+00 0. -1.
         11    1    3    3    0    0 -0.51176970430E+01 -0.11892584059E+01  0.80576178675E+01  0.96192704786E+01  0.51100000000E-03 0. -1.
        -11    1    3    3    0    0  0.20646817246E+01 -0.49515308899E+01  0.32353036067E+01  0.62648031466E+01  0.51100000000E-03 0.  1.
        -12    1    3    3    0    0  0.30850819929E+01  0.56849530057E+00  0.31748591389E+02  0.31903196909E+02  0.00000000000E+00 0.  1.
</event>
<event>
 7    1  0.2682317E-010  0.4778725E+02  0.7816164E-02  0.1312668E+00
        -11   -1    0    0    0    0  0.00000000000E+00  0.00000000000E+00  0.45593999997E+02  0.45594000000E+02  0.51100000000E-03 0.  1.
         11   -1    0    0    0    0 -0.00000000000E+00 -0.00000000000E+00 -0.45593999997E+02  0.45594000000E+02  0.51100000000E-03 0. -1.
    9900012    2    1    2    0    0 -0.21976976586E+02 -0.23260598673E+02  0.29318626105E+02  0.47787253611E+02  0.19999920512E+02 0.  0.
         12    1    1    2    0    0  0.21976976586E+02  0.23260598673E+02 -0.29318626105E+02  0.43400746389E+02  0.00000000000E+00 0. -1.
         11    1    3    3    0    0 -0.76905701837E+01 -0.64625077743E+01  0.34797016473E+01  0.10630954816E+02  0.51100000000E-03 0. -1.
        -11    1    3    3    0    0 -0.17468570616E+02 -0.14881536681E+02  0.21523332748E+02  0.31462119226E+02  0.51100000000E-03 0.  1.
        -12    1    3    3    0    0  0.31821642141E+01 -0.19165542179E+01  0.43155917095E+01  0.56941795685E+01  0.00000000000E+00 0.  1.
</event>
<event>
 7    1  0.2682317E-010  0.4778732E+02  0.7816164E-02  0.1312668E+00
        -11   -1    0    0    0    0  0.00000000000E+00  0.00000000000E+00  0.45593999997E+02  0.45594000000E+02  0.51100000000E-03 0. -1.
         11   -1    0    0    0    0 -0.00000000000E+00 -0.00000000000E+00 -0.45593999997E+02  0.45594000000E+02  0.51100000000E-03 0.  1.
    9900012    2    1    2    0    0 -0.40959502637E+01 -0.56830638669E+01 -0.42831591688E+02  0.47787317171E+02  0.20000210310E+02 0.  0.
         12    1    1    2    0    0  0.40959502637E+01  0.56830638669E+01  0.42831591688E+02  0.43400682829E+02  0.00000000000E+00 0. -1.
         11    1    3    3    0    0 -0.28347791885E+01 -0.14644410055E+00 -0.10731916579E+01  0.30346597038E+01  0.51100000000E-03 0. -1.
        -11    1    3    3    0    0 -0.96296670691E+00  0.52297841190E+01 -0.13215756799E+02  0.14245496651E+02  0.51100000000E-03 0.  1.
         12    1    3    3    0    0 -0.29820436829E+00 -0.10766403885E+02 -0.28542643231E+02  0.30507160816E+02  0.00000000000E+00 0. -1.
</event>
<event>
 7    1  0.2682317E-010  0.4778731E+02  0.7816164E-02  0.1312668E+00
        -11   -1    0    0    0    0  0.00000000000E+00  0.00000000000E+00  0.45593999997E+02  0.45594000000E+02  0.51100000000E-03 0.  1.
         11   -1    0    0    0    0 -0.00000000000E+00 -0.00000000000E+00 -0.45593999997E+02  0.45594000000E+02  0.51100000000E-03 0. -1.
    9900012    2    1    2    0    0  0.14888571955E+02  0.20546587054E+02  0.35210625498E+02  0.47787309195E+02  0.20000173941E+02 0.  0.
         12    1    1    2    0    0 -0.14888571955E+02 -0.20546587054E+02 -0.35210625498E+02  0.43400690805E+02  0.00000000000E+00 0. -1.
         11    1    3    3    0    0  0.26835203911E+01  0.10246146570E+02  0.17254129892E+02  0.20245735349E+02  0.51100000000E-03 0. -1.
        -11    1    3    3    0    0  0.72545327006E+01  0.12648723985E+02  0.92935938246E+01  0.17291308499E+02  0.51100000000E-03 0.  1.
        -12    1    3    3    0    0  0.49505188629E+01 -0.23482835007E+01  0.86629017812E+01  0.10250265347E+02  0.00000000000E+00 0.  1.
</event>
<event>
 7    1  0.2682317E-010  0.4778727E+02  0.7816164E-02  0.1312668E+00
        -11   -1    0    0    0    0  0.00000000000E+00  0.00000000000E+00  0.45593999997E+02  0.45594000000E+02  0.51100000000E-03 0. -1.
         11   -1    0    0    0    0 -0.00000000000E+00 -0.00000000000E+00 -0.45593999997E+02  0.45594000000E+02  0.51100000000E-03 0.  1.
    9900012    2    1    2    0    0  0.75090608228E+01  0.23270903393E+02 -0.35856692163E+02  0.47787270604E+02  0.19999997994E+02 0.  0.
         12    1    1    2    0    0 -0.75090608228E+01 -0.23270903393E+02  0.35856692163E+02  0.43400729396E+02  0.00000000000E+00 0. -1.
         11    1    3    3    0    0 -0.45024182624E+00  0.41496296982E+01 -0.11805953858E+02  0.12522088128E+02  0.51100000000E-03 0.  1.
        -11    1    3    3    0    0  0.11772242321E+02  0.12706766969E+02 -0.20951981235E+02  0.27185163858E+02  0.51100000000E-03 0. -1.
         12    1    3    3    0    0 -0.38129396720E+01  0.64145067268E+01 -0.30987570700E+01  0.80800186181E+01  0.00000000000E+00 0. -1.
</event>
<event>
 7    1  0.2682317E-010  0.4778727E+02  0.7816164E-02  0.1312668E+00
        -11   -1    0    0    0    0  0.00000000000E+00  0.00000000000E+00  0.45593999997E+02  0.45594000000E+02  0.51100000000E-03 0.  1.
         11   -1    0    0    0    0 -0.00000000000E+00 -0.00000000000E+00 -0.45593999997E+02  0.45594000000E+02  0.51100000000E-03 0. -1.
    9900012    2    1    2    0    0 -0.80906191319E+01 -0.15151652517E+02  0.39857150670E+02  0.47787272455E+02  0.20000006431E+02 0.  0.
         12    1    1    2    0    0  0.80906191319E+01  0.15151652517E+02 -0.39857150670E+02  0.43400727545E+02  0.00000000000E+00 0. -1.
         11    1    3    3    0    0 -0.41137639052E+01  0.22893619723E+01  0.75280011667E+01  0.88789094790E+01  0.51100000000E-03 0. -1.
        -11    1    3    3    0    0 -0.36109813017E+01 -0.23377425868E+01  0.16398092116E+02  0.16952924576E+02  0.51100000000E-03 0.  1.
         12    1    3    3    0    0 -0.36587392493E+00 -0.15103271902E+02  0.15931057387E+02  0.21955438400E+02  0.00000000000E+00 0. -1.
</event>
<event>
 7    1  0.2682317E-010  0.4778729E+02  0.7816164E-02  0.1312668E+00
        -11   -1    0    0    0    0  0.00000000000E+00  0.00000000000E+00  0.45593999997E+02  0.45594000000E+02  0.51100000000E-03 0. -1.
         11   -1    0    0    0    0 -0.00000000000E+00 -0.00000000000E+00 -0.45593999997E+02  0.45594000000E+02  0.51100000000E-03 0.  1.
    9900012    2    1    2    0    0 -0.22630801290E+02  0.30208310052E+02 -0.21422574497E+02  0.47787287318E+02  0.20000074196E+02 0.  0.
         12    1    1    2    0    0  0.22630801290E+02 -0.30208310052E+02  0.21422574497E+02  0.43400712682E+02  0.00000000000E+00 0. -1.
         11    1    3    3    0    0 -0.85789283718E+01  0.98313604354E+01 -0.95523391679E+01  0.16170987721E+02  0.51100000000E-03 0. -1.
        -11    1    3    3    0    0 -0.15945411213E+02  0.10451760315E+02 -0.91775543855E+01  0.21159464482E+02  0.51100000000E-03 0.  1.
         12    1    3    3    0    0  0.18935382938E+01  0.99251893022E+01 -0.26926809433E+01  0.10456835115E+02  0.00000000000E+00 0. -1.
</event>
<event>
 7    1  0.2682317E-010  0.4778727E+02  0.7816164E-02  0.1312668E+00
        -11   -1    0    0    0    0  0.00000000000E+00  0.00000000000E+00  0.45593999997E+02  0.45594000000E+02  0.51100000000E-03 0. -1.
         11   -1    0    0    0    0 -0.00000000000E+00 -0.00000000000E+00 -0.45593999997E+02  0.45594000000E+02  0.51100000000E-03 0.  1.
    9900012    2    1    2    0    0 -0.37773310273E+02  0.42130344004E+01 -0.20953539677E+02  0.47787268982E+02  0.19999990599E+02 0.  0.
         12    1    1    2    0    0  0.37773310273E+02 -0.42130344004E+01  0.20953539677E+02  0.43400731018E+02  0.00000000000E+00 0. -1.
         11    1    3    3    0    0 -0.99063472460E+01  0.76265770032E+01 -0.77678309305E+01  0.14718681672E+02  0.51100000000E-03 0. -1.
        -11    1    3    3    0    0 -0.18828593784E+02  0.27115712167E+01 -0.10862842670E+02  0.21905933294E+02  0.51100000000E-03 0.  1.
         12    1    3    3    0    0 -0.90383692430E+01 -0.61251138195E+01 -0.23228660771E+01  0.11162654016E+02  0.00000000000E+00 0. -1.
</event>
<event>
 7    1  0.2682317E-010  0.4778726E+02  0.7816164E-02  0.1312668E+00
        -11   -1    0    0    0    0  0.00000000000E+00  0.00000000000E+00  0.45593999997E+02  0.45594000000E+02  0.51100000000E-03 0. -1.
         11   -1    0    0    0    0 -0.00000000000E+00 -0.00000000000E+00 -0.45593999997E+02  0.45594000000E+02  0.51100000000E-03 0.  1.
    9900012    2    1    2    0    0  0.22660118480E+02  0.26851543312E+02 -0.25478186618E+02  0.47787258749E+02  0.19999943940E+02 0.  0.
         12    1    1    2    0    0 -0.22660118480E+02 -0.26851543312E+02  0.25478186618E+02  0.43400741251E+02  0.00000000000E+00 0. -1.
         11    1    3    3    0    0  0.52614535927E+01  0.77778208060E+01 -0.10934483395E+02  0.14413199429E+02  0.51100000000E-03 0. -1.
        -11    1    3    3    0    0  0.11210034574E+02  0.11805284046E+02 -0.16978467837E+02  0.23522286813E+02  0.51100000000E-03 0.  1.
         12    1    3    3    0    0  0.61886303135E+01  0.72684384605E+01  0.24347646136E+01  0.98517725073E+01  0.00000000000E+00 0. -1.
</event>
<event>
 7    1  0.2682317E-010  0.4778727E+02  0.7816164E-02  0.1312668E+00
        -11   -1    0    0    0    0  0.00000000000E+00  0.00000000000E+00  0.45593999997E+02  0.45594000000E+02  0.51100000000E-03 0. -1.
         11   -1    0    0    0    0 -0.00000000000E+00 -0.00000000000E+00 -0.45593999997E+02  0.45594000000E+02  0.51100000000E-03 0.  1.
    9900012    2    1    2    0    0 -0.35903464398E+00  0.37721165863E+00 -0.43397601848E+02  0.47787273731E+02  0.20000012251E+02 0.  0.
         12    1    1    2    0    0  0.35903464398E+00 -0.37721165863E+00  0.43397601848E+02  0.43400726269E+02  0.00000000000E+00 0. -1.
         11    1    3    3    0    0 -0.48311396043E+00 -0.24655515050E+01 -0.43911636261E+01  0.50591166793E+01  0.51100000000E-03 0. -1.
        -11    1    3    3    0    0 -0.18164600553E+00 -0.40305583158E+01 -0.33952238309E+02  0.34191122855E+02  0.51100000000E-03 0.  1.
         12    1    3    3    0    0  0.30572532198E+00  0.68733214794E+01 -0.50541999123E+01  0.85370341973E+01  0.00000000000E+00 0. -1.
</event>
<event>
 7    1  0.2682317E-010  0.4778727E+02  0.7816164E-02  0.1312668E+00
        -11   -1    0    0    0    0  0.00000000000E+00  0.00000000000E+00  0.45593999997E+02  0.45594000000E+02  0.51100000000E-03 0.  1.
         11   -1    0    0    0    0 -0.00000000000E+00 -0.00000000000E+00 -0.45593999997E+02  0.45594000000E+02  0.51100000000E-03 0. -1.
    9900012    2    1    2    0    0  0.28370956745E+02  0.31285102703E+02  0.99977088896E+01  0.47787273960E+02  0.20000013294E+02 0.  0.
         12    1    1    2    0    0 -0.28370956745E+02 -0.31285102703E+02 -0.99977088896E+01  0.43400726040E+02  0.00000000000E+00 0. -1.
         11    1    3    3    0    0  0.14213866743E+01  0.78402725747E+01  0.35197907369E+01  0.87108634024E+01  0.51100000000E-03 0. -1.
        -11    1    3    3    0    0  0.29937838647E+01 -0.18181701010E+01  0.18313066295E+01  0.39524889092E+01  0.51100000000E-03 0.  1.
        -12    1    3    3    0    0  0.23955786206E+02  0.25263000229E+02  0.46466115232E+01  0.35123921649E+02  0.00000000000E+00 0.  1.
</event>
<event>
 7    1  0.2682317E-010  0.4778727E+02  0.7816164E-02  0.1312668E+00
        -11   -1    0    0    0    0  0.00000000000E+00  0.00000000000E+00  0.45593999997E+02  0.45594000000E+02  0.51100000000E-03 0.  1.
         11   -1    0    0    0    0 -0.00000000000E+00 -0.00000000000E+00 -0.45593999997E+02  0.45594000000E+02  0.51100000000E-03 0. -1.
    9900012    2    1    2    0    0 -0.29834156895E+02 -0.29567297612E+01  0.31381591195E+02  0.47787269194E+02  0.19999991564E+02 0.  0.
         12    1    1    2    0    0  0.29834156895E+02  0.29567297612E+01 -0.31381591195E+02  0.43400730806E+02  0.00000000000E+00 0. -1.
         11    1    3    3    0    0 -0.18752216826E+02 -0.28455865705E+01  0.18108713472E+02  0.26223434228E+02  0.51100000000E-03 0. -1.
        -11    1    3    3    0    0 -0.97656668230E+01 -0.15543182921E+01  0.19567036594E+01  0.10080319604E+02  0.51100000000E-03 0.  1.
         12    1    3    3    0    0 -0.13162732462E+01  0.14431751013E+01  0.11316174064E+02  0.11483515362E+02  0.00000000000E+00 0. -1.
</event>
<event>
 7    1  0.2682317E-010  0.4778727E+02  0.7816164E-02  0.1312668E+00
        -11   -1    0    0    0    0  0.00000000000E+00  0.00000000000E+00  0.45593999997E+02  0.45594000000E+02  0.51100000000E-03 0. -1.
         11   -1    0    0    0    0 -0.00000000000E+00 -0.00000000000E+00 -0.45593999997E+02  0.45594000000E+02  0.51100000000E-03 0.  1.
    9900012    2    1    2    0    0 -0.12332830365E+02 -0.41135690765E+02  0.62753067090E+01  0.47787271506E+02  0.20000002104E+02 0.  0.
         12    1    1    2    0    0  0.12332830365E+02  0.41135690765E+02 -0.62753067090E+01  0.43400728494E+02  0.00000000000E+00 0. -1.
         11    1    3    3    0    0  0.19474584026E+01 -0.61774288238E+01 -0.44638117146E+00  0.64924939364E+01  0.51100000000E-03 0. -1.
        -11    1    3    3    0    0  0.50596480913E+00 -0.80545182061E+01 -0.36954536339E+01  0.88762402931E+01  0.51100000000E-03 0.  1.
        -12    1    3    3    0    0 -0.14786253577E+02 -0.26903743735E+02  0.10417141514E+02  0.32418537276E+02  0.00000000000E+00 0.  1.
</event>
<event>
 7    1  0.2682317E-010  0.4778727E+02  0.7816164E-02  0.1312668E+00
        -11   -1    0    0    0    0  0.00000000000E+00  0.00000000000E+00  0.45593999997E+02  0.45594000000E+02  0.51100000000E-03 0.  1.
         11   -1    0    0    0    0 -0.00000000000E+00 -0.00000000000E+00 -0.45593999997E+02  0.45594000000E+02  0.51100000000E-03 0. -1.
    9900012    2    1    2    0    0  0.22633166103E+01  0.18778328769E+02  0.39062448857E+02  0.47787272539E+02  0.20000006813E+02 0.  0.
         12    1    1    2    0    0 -0.22633166103E+01 -0.18778328769E+02 -0.39062448857E+02  0.43400727461E+02  0.00000000000E+00 0. -1.
         11    1    3    3    0    0  0.15873734527E+01  0.10340414724E+00  0.45842131327E+01  0.48523661448E+01  0.51100000000E-03 0.  1.
        -11    1    3    3    0    0  0.63042705979E+01  0.32655367913E+00  0.71110131252E+01  0.95087839919E+01  0.51100000000E-03 0. -1.
         12    1    3    3    0    0 -0.56283274404E+01  0.18348370943E+02  0.27367222599E+02  0.33426122402E+02  0.00000000000E+00 0. -1.
</event>
<event>
 7    1  0.2682317E-010  0.4778727E+02  0.7816164E-02  0.1312668E+00
        -11   -1    0    0    0    0  0.00000000000E+00  0.00000000000E+00  0.45593999997E+02  0.45594000000E+02  0.51100000000E-03 0.  1.
         11   -1    0    0    0    0 -0.00000000000E+00 -0.00000000000E+00 -0.45593999997E+02  0.45594000000E+02  0.51100000000E-03 0. -1.
    9900012    2    1    2    0    0  0.30270429117E+02  0.30289170102E+02 -0.70633075106E+01  0.47787273999E+02  0.20000013472E+02 0.  0.
         12    1    1    2    0    0 -0.30270429117E+02 -0.30289170102E+02  0.70633075106E+01  0.43400726001E+02  0.00000000000E+00 0. -1.
         11    1    3    3    0    0  0.69791140038E+01  0.74165224677E+01 -0.31377739936E+01  0.10656381360E+02  0.51100000000E-03 0. -1.
        -11    1    3    3    0    0  0.14304149461E+02  0.10610155515E+02  0.62072612538E+01  0.18860386645E+02  0.51100000000E-03 0.  1.
         12    1    3    3    0    0  0.89871656526E+01  0.12262492119E+02 -0.10132794771E+02  0.18270505995E+02  0.00000000000E+00 0. -1.
</event>
<event>
 7    1  0.2682317E-010  0.4778728E+02  0.7816164E-02  0.1312668E+00
        -11   -1    0    0    0    0  0.00000000000E+00  0.00000000000E+00  0.45593999997E+02  0.45594000000E+02  0.51100000000E-03 0.  1.
         11   -1    0    0    0    0 -0.00000000000E+00 -0.00000000000E+00 -0.45593999997E+02  0.45594000000E+02  0.51100000000E-03 0. -1.
    9900012    2    1    2    0    0  0.48137857637E+01 -0.42569054305E+02  0.69516807336E+01  0.47787276701E+02  0.20000025791E+02 0.  0.
         12    1    1    2    0    0 -0.48137857637E+01  0.42569054305E+02 -0.69516807336E+01  0.43400723299E+02  0.00000000000E+00 0. -1.
         11    1    3    3    0    0 -0.53999474140E+00  0.77812036802E-02 -0.10338129803E+01  0.11663723279E+01  0.51100000000E-03 0. -1.
        -11    1    3    3    0    0  0.10039718342E+02 -0.28161560950E+02  0.95419984039E+01  0.31383422269E+02  0.51100000000E-03 0.  1.
        -12    1    3    3    0    0 -0.46859378368E+01 -0.14415274559E+02 -0.15565046900E+01  0.15237482104E+02  0.00000000000E+00 0.  1.
</event>
<event>
 7    1  0.2682317E-010  0.4778727E+02  0.7816164E-02  0.1312668E+00
        -11   -1    0    0    0    0  0.00000000000E+00  0.00000000000E+00  0.45593999997E+02  0.45594000000E+02  0.51100000000E-03 0. -1.
         11   -1    0    0    0    0 -0.00000000000E+00 -0.00000000000E+00 -0.45593999997E+02  0.45594000000E+02  0.51100000000E-03 0.  1.
    9900012    2    1    2    0    0 -0.16191655982E+02 -0.36412229277E+02 -0.17193108502E+02  0.47787272537E+02  0.20000006806E+02 0.  0.
         12    1    1    2    0    0  0.16191655982E+02  0.36412229277E+02  0.17193108502E+02  0.43400727463E+02  0.00000000000E+00 0. -1.
         11    1    3    3    0    0 -0.21934219909E+01 -0.42418119887E+01 -0.12984956522E+01  0.49487533984E+01  0.51100000000E-03 0.  1.
        -11    1    3    3    0    0 -0.99140471286E+00 -0.22863396779E+02 -0.48258340242E+01  0.23388169442E+02  0.51100000000E-03 0. -1.
         12    1    3    3    0    0 -0.13006829278E+02 -0.93070205092E+01 -0.11068778826E+02  0.19450349697E+02  0.00000000000E+00 0. -1.
</event>
<event>
 7    1  0.2682317E-010  0.4778727E+02  0.7816164E-02  0.1312668E+00
        -11   -1    0    0    0    0  0.00000000000E+00  0.00000000000E+00  0.45593999997E+02  0.45594000000E+02  0.51100000000E-03 0.  1.
         11   -1    0    0    0    0 -0.00000000000E+00 -0.00000000000E+00 -0.45593999997E+02  0.45594000000E+02  0.51100000000E-03 0. -1.
    9900012    2    1    2    0    0  0.36380135535E+01  0.42501097167E+02 -0.80028034534E+01  0.47787271133E+02  0.20000000406E+02 0.  0.
         12    1    1    2    0    0 -0.36380135535E+01 -0.42501097167E+02  0.80028034534E+01  0.43400728867E+02  0.00000000000E+00 0. -1.
         11    1    3    3    0    0  0.37244968273E+01  0.10426390348E+02  0.57397308620E+00  0.11086520540E+02  0.51100000000E-03 0.  1.
        -11    1    3    3    0    0  0.47693713514E+01  0.19173942307E+02 -0.11136712734E+02  0.22680682033E+02  0.51100000000E-03 0. -1.
         12    1    3    3    0    0 -0.48558546252E+01  0.12900764512E+02  0.25599361948E+01  0.14020068561E+02  0.00000000000E+00 0. -1.
</event>
<event>
 7    1  0.2682317E-010  0.4778727E+02  0.7816164E-02  0.1312668E+00
        -11   -1    0    0    0    0  0.00000000000E+00  0.00000000000E+00  0.45593999997E+02  0.45594000000E+02  0.51100000000E-03 0.  1.
         11   -1    0    0    0    0 -0.00000000000E+00 -0.00000000000E+00 -0.45593999997E+02  0.45594000000E+02  0.51100000000E-03 0. -1.
    9900012    2    1    2    0    0 -0.22584712902E+02 -0.13401130003E+01  0.37037254156E+02  0.47787270108E+02  0.19999995732E+02 0.  0.
         12    1    1    2    0    0  0.22584712902E+02  0.13401130003E+01 -0.37037254156E+02  0.43400729892E+02  0.00000000000E+00 0. -1.
         11    1    3    3    0    0 -0.90715435962E+01 -0.56078529706E+01  0.27822839364E+02  0.29796833870E+02  0.51100000000E-03 0.  1.
        -11    1    3    3    0    0 -0.81204934243E+01  0.85274902781E+00  0.81179085935E+01  0.11513906138E+02  0.51100000000E-03 0. -1.
        -12    1    3    3    0    0 -0.53926758810E+01  0.34149909424E+01  0.10965061986E+01  0.64765301001E+01  0.00000000000E+00 0.  1.
</event>
<event>
 7    1  0.2682317E-010  0.4778727E+02  0.7816164E-02  0.1312668E+00
        -11   -1    0    0    0    0  0.00000000000E+00  0.00000000000E+00  0.45593999997E+02  0.45594000000E+02  0.51100000000E-03 0. -1.
         11   -1    0    0    0    0 -0.00000000000E+00 -0.00000000000E+00 -0.45593999997E+02  0.45594000000E+02  0.51100000000E-03 0.  1.
    9900012    2    1    2    0    0  0.45916281842E+01  0.28128265574E+02 -0.32731346259E+02  0.47787269574E+02  0.19999993296E+02 0.  0.
         12    1    1    2    0    0 -0.45916281842E+01 -0.28128265574E+02  0.32731346259E+02  0.43400730426E+02  0.00000000000E+00 0. -1.
         11    1    3    3    0    0 -0.83791898675E+00  0.70746993759E+01 -0.36866127824E+01  0.80215081846E+01  0.51100000000E-03 0. -1.
        -11    1    3    3    0    0 -0.54418217485E+01  0.10533535265E+02 -0.10536093429E+02  0.15861212253E+02  0.51100000000E-03 0.  1.
        -12    1    3    3    0    0  0.10871368919E+02  0.10520030933E+02 -0.18508640047E+02  0.23904549136E+02  0.00000000000E+00 0.  1.
</event>
<event>
 7    1  0.2682317E-010  0.4778728E+02  0.7816164E-02  0.1312668E+00
        -11   -1    0    0    0    0  0.00000000000E+00  0.00000000000E+00  0.45593999997E+02  0.45594000000E+02  0.51100000000E-03 0.  1.
         11   -1    0    0    0    0 -0.00000000000E+00 -0.00000000000E+00 -0.45593999997E+02  0.45594000000E+02  0.51100000000E-03 0. -1.
    9900012    2    1    2    0    0  0.48863309408E+01  0.40298198161E+02 -0.15355833092E+02  0.47787278635E+02  0.20000034608E+02 0.  0.
         12    1    1    2    0    0 -0.48863309408E+01 -0.40298198161E+02  0.15355833092E+02  0.43400721365E+02  0.00000000000E+00 0. -1.
         11    1    3    3    0    0 -0.42995844069E+01  0.13559949613E+02 -0.73022630755E+01  0.15990050215E+02  0.51100000000E-03 0. -1.
        -11    1    3    3    0    0  0.44417480105E+01  0.21727504801E+02 -0.14149715059E+01  0.22221965144E+02  0.51100000000E-03 0.  1.
         12    1    3    3    0    0  0.47441673372E+01  0.50107437469E+01 -0.66385985104E+01  0.95752632759E+01  0.00000000000E+00 0. -1.
</event>
<event>
 7    1  0.2682317E-010  0.4778728E+02  0.7816164E-02  0.1312668E+00
        -11   -1    0    0    0    0  0.00000000000E+00  0.00000000000E+00  0.45593999997E+02  0.45594000000E+02  0.51100000000E-03 0.  1.
         11   -1    0    0    0    0 -0.00000000000E+00 -0.00000000000E+00 -0.45593999997E+02  0.45594000000E+02  0.51100000000E-03 0. -1.
    9900012    2    1    2    0    0 -0.18145715615E+01 -0.40420899993E+02  0.15699716256E+02  0.47787275160E+02  0.20000018762E+02 0.  0.
         12    1    1    2    0    0  0.18145715615E+01  0.40420899993E+02 -0.15699716256E+02  0.43400724840E+02  0.00000000000E+00 0. -1.
         11    1    3    3    0    0  0.11588795369E+01 -0.25812536422E+01 -0.28290601993E+01  0.40011815778E+01  0.51100000000E-03 0. -1.
        -11    1    3    3    0    0 -0.23682104892E+00 -0.15498846331E+02  0.15211695261E+01  0.15575117296E+02  0.51100000000E-03 0.  1.
         12    1    3    3    0    0 -0.27366300495E+01 -0.22340800020E+02  0.17007606929E+02  0.28210976286E+02  0.00000000000E+00 0. -1.
</event>
<event>
 7    1  0.2682317E-010  0.4778728E+02  0.7816164E-02  0.1312668E+00
        -11   -1    0    0    0    0  0.00000000000E+00  0.00000000000E+00  0.45593999997E+02  0.45594000000E+02  0.51100000000E-03 0.  1.
         11   -1    0    0    0    0 -0.00000000000E+00 -0.00000000000E+00 -0.45593999997E+02  0.45594000000E+02  0.51100000000E-03 0. -1.
    9900012    2    1    2    0    0  0.73842834013E+01  0.25792969927E+02  0.34114768196E+02  0.47787281710E+02  0.20000048630E+02 0.  0.
         12    1    1    2    0    0 -0.73842834013E+01 -0.25792969927E+02 -0.34114768196E+02  0.43400718290E+02  0.00000000000E+00 0. -1.
         11    1    3    3    0    0  0.15315668135E+00  0.72165014478E+01  0.79553155561E+00  0.72618331592E+01  0.51100000000E-03 0. -1.
        -11    1    3    3    0    0 -0.28079928552E+01  0.17163953117E+01  0.32903625291E+01  0.46537428565E+01  0.51100000000E-03 0.  1.
        -12    1    3    3    0    0  0.10039119575E+02  0.16860073167E+02  0.30028874111E+02  0.35871705695E+02  0.00000000000E+00 0.  1.
</event>
<event>
 7    1  0.2682317E-010  0.4778727E+02  0.7816164E-02  0.1312668E+00
        -11   -1    0    0    0    0  0.00000000000E+00  0.00000000000E+00  0.45593999997E+02  0.45594000000E+02  0.51100000000E-03 0.  1.
         11   -1    0    0    0    0 -0.00000000000E+00 -0.00000000000E+00 -0.45593999997E+02  0.45594000000E+02  0.51100000000E-03 0. -1.
    9900012    2    1    2    0    0 -0.21577467656E+02 -0.32939073861E+02 -0.18249757685E+02  0.47787270135E+02  0.19999995853E+02 0.  0.
         12    1    1    2    0    0  0.21577467656E+02  0.32939073861E+02  0.18249757685E+02  0.43400729865E+02  0.00000000000E+00 0. -1.
         11    1    3    3    0    0 -0.14406257549E+02 -0.91571493883E+01 -0.89372394028E+01  0.19268313104E+02  0.51100000000E-03 0. -1.
        -11    1    3    3    0    0 -0.89142706628E+01 -0.11770053773E+02 -0.42178492883E+01  0.15355410777E+02  0.51100000000E-03 0.  1.
         12    1    3    3    0    0  0.17430605551E+01 -0.12011870700E+02 -0.50946689936E+01  0.13163546253E+02  0.00000000000E+00 0. -1.
</event>
<event>
 7    1  0.2682317E-010  0.4778727E+02  0.7816164E-02  0.1312668E+00
        -11   -1    0    0    0    0  0.00000000000E+00  0.00000000000E+00  0.45593999997E+02  0.45594000000E+02  0.51100000000E-03 0. -1.
         11   -1    0    0    0    0 -0.00000000000E+00 -0.00000000000E+00 -0.45593999997E+02  0.45594000000E+02  0.51100000000E-03 0.  1.
    9900012    2    1    2    0    0 -0.13655049322E+02 -0.18986895565E+02 -0.36560372615E+02  0.47787269350E+02  0.19999992273E+02 0.  0.
         12    1    1    2    0    0  0.13655049322E+02  0.18986895565E+02  0.36560372615E+02  0.43400730650E+02  0.00000000000E+00 0. -1.
         11    1    3    3    0    0  0.12188549345E+01 -0.44788642262E+01 -0.17479610017E+01  0.49599596805E+01  0.51100000000E-03 0. -1.
        -11    1    3    3    0    0 -0.29281004716E+01 -0.12104962953E+02 -0.14246676570E+02  0.18922782407E+02  0.51100000000E-03 0.  1.
        -12    1    3    3    0    0 -0.11945803785E+02 -0.24030683862E+01 -0.20565735044E+02  0.23904527262E+02  0.00000000000E+00 0.  1.
</event>
<event>
 7    1  0.2682317E-010  0.4778727E+02  0.7816164E-02  0.1312668E+00
        -11   -1    0    0    0    0  0.00000000000E+00  0.00000000000E+00  0.45593999997E+02  0.45594000000E+02  0.51100000000E-03 0. -1.
         11   -1    0    0    0    0 -0.00000000000E+00 -0.00000000000E+00 -0.45593999997E+02  0.45594000000E+02  0.51100000000E-03 0.  1.
    9900012    2    1    2    0    0 -0.38137168533E+02 -0.10517530860E+02 -0.17848277920E+02  0.47787273004E+02  0.20000008934E+02 0.  0.
         12    1    1    2    0    0  0.38137168533E+02  0.10517530860E+02  0.17848277920E+02  0.43400726996E+02  0.00000000000E+00 0. -1.
         11    1    3    3    0    0 -0.11357562162E+02 -0.37559916244E+01 -0.10117198760E+02  0.15667144040E+02  0.51100000000E-03 0. -1.
        -11    1    3    3    0    0 -0.22878969585E+02 -0.98258767687E+01 -0.97823446854E+01  0.26752371322E+02  0.51100000000E-03 0.  1.
         12    1    3    3    0    0 -0.39006367851E+01  0.30643375333E+01  0.20512655252E+01  0.53677576419E+01  0.00000000000E+00 0. -1.
</event>
<event>
 7    1  0.2682317E-010  0.4778727E+02  0.7816164E-02  0.1312668E+00
        -11   -1    0    0    0    0  0.00000000000E+00  0.00000000000E+00  0.45593999997E+02  0.45594000000E+02  0.51100000000E-03 0.  1.
         11   -1    0    0    0    0 -0.00000000000E+00 -0.00000000000E+00 -0.45593999997E+02  0.45594000000E+02  0.51100000000E-03 0. -1.
    9900012    2    1    2    0    0  0.49891320956E+01 -0.22016457082E+02  0.37067608606E+02  0.47787269254E+02  0.19999991839E+02 0.  0.
         12    1    1    2    0    0 -0.49891320956E+01  0.22016457082E+02 -0.37067608606E+02  0.43400730746E+02  0.00000000000E+00 0. -1.
         11    1    3    3    0    0  0.65157555654E-01  0.15096099393E+01  0.13022489566E+01  0.19947481751E+01  0.51100000000E-03 0. -1.
        -11    1    3    3    0    0  0.29984468083E+01 -0.35497031342E+01 -0.15147891301E+00  0.46490882682E+01  0.51100000000E-03 0.  1.
        -12    1    3    3    0    0  0.19255277316E+01 -0.19976363887E+02  0.35916838562E+02  0.41143432811E+02  0.00000000000E+00 0.  1.
</event>
<event>
 7    1  0.2682317E-010  0.4778728E+02  0.7816164E-02  0.1312668E+00
        -11   -1    0    0    0    0  0.00000000000E+00  0.00000000000E+00  0.45593999997E+02  0.45594000000E+02  0.51100000000E-03 0. -1.
         11   -1    0    0    0    0 -0.00000000000E+00 -0.00000000000E+00 -0.45593999997E+02  0.45594000000E+02  0.51100000000E-03 0.  1.
    9900012    2    1    2    0    0  0.39016889178E+02 -0.18787379211E+02 -0.28878286937E+01  0.47787276350E+02  0.20000024190E+02 0.  0.
         12    1    1    2    0    0 -0.39016889178E+02  0.18787379211E+02  0.28878286937E+01  0.43400723650E+02  0.00000000000E+00 0. -1.
         11    1    3    3    0    0  0.17800724104E+02 -0.33447858994E+01  0.25666714604E+01  0.18293200212E+02  0.51100000000E-03 0. -1.
        -11    1    3    3    0    0  0.14554578319E+02 -0.35679202106E+01 -0.52448953552E+01  0.15876861535E+02  0.51100000000E-03 0.  1.
        -12    1    3    3    0    0  0.66615867556E+01 -0.11874673101E+02 -0.20960479890E+00  0.13617214603E+02  0.00000000000E+00 0.  1.
</event>
<event>
 7    1  0.2682317E-010  0.4778727E+02  0.7816164E-02  0.1312668E+00
        -11   -1    0    0    0    0  0.00000000000E+00  0.00000000000E+00  0.45593999997E+02  0.45594000000E+02  0.51100000000E-03 0. -1.
         11   -1    0    0    0    0 -0.00000000000E+00 -0.00000000000E+00 -0.45593999997E+02  0.45594000000E+02  0.51100000000E-03 0.  1.
    9900012    2    1    2    0    0 -0.31195514609E+02  0.28026341833E+02 -0.11179767446E+02  0.47787272259E+02  0.20000005537E+02 0.  0.
         12    1    1    2    0    0  0.31195514609E+02 -0.28026341833E+02  0.11179767446E+02  0.43400727741E+02  0.00000000000E+00 0. -1.
         11    1    3    3    0    0 -0.31340240082E+01  0.10199662425E+02 -0.34282895752E+00  0.10675802172E+02  0.51100000000E-03 0.  1.
        -11    1    3    3    0    0 -0.81007489207E+01  0.29708644969E+01  0.23611989208E+01  0.89455815652E+01  0.51100000000E-03 0. -1.
        -12    1    3    3    0    0 -0.19960741681E+02  0.14855814911E+02 -0.13198137410E+02  0.28165888521E+02  0.00000000000E+00 0.  1.
</event>
<event>
 7    1  0.2682317E-010  0.4778727E+02  0.7816164E-02  0.1312668E+00
        -11   -1    0    0    0    0  0.00000000000E+00  0.00000000000E+00  0.45593999997E+02  0.45594000000E+02  0.51100000000E-03 0. -1.
         11   -1    0    0    0    0 -0.00000000000E+00 -0.00000000000E+00 -0.45593999997E+02  0.45594000000E+02  0.51100000000E-03 0.  1.
    9900012    2    1    2    0    0 -0.38220793317E+02 -0.94048704364E+01 -0.18285035419E+02  0.47787272472E+02  0.20000006507E+02 0.  0.
         12    1    1    2    0    0  0.38220793317E+02  0.94048704364E+01  0.18285035419E+02  0.43400727528E+02  0.00000000000E+00 0. -1.
         11    1    3    3    0    0 -0.35814205135E+01 -0.21662484304E+01  0.31501040513E+01  0.52385456906E+01  0.51100000000E-03 0. -1.
        -11    1    3    3    0    0 -0.12324118361E+02 -0.73982444947E+01 -0.71716035485E+01  0.16063928931E+02  0.51100000000E-03 0.  1.
        -12    1    3    3    0    0 -0.22315254443E+02  0.15962248878E+00 -0.14263535921E+02  0.26484797850E+02  0.00000000000E+00 0.  1.
</event>
<event>
 7    1  0.2682317E-010  0.4778726E+02  0.7816164E-02  0.1312668E+00
        -11   -1    0    0    0    0  0.00000000000E+00  0.00000000000E+00  0.45593999997E+02  0.45594000000E+02  0.51100000000E-03 0.  1.
         11   -1    0    0    0    0 -0.00000000000E+00 -0.00000000000E+00 -0.45593999997E+02  0.45594000000E+02  0.51100000000E-03 0. -1.
    9900012    2    1    2    0    0 -0.35184114191E+02  0.61537913720E+01  0.24654264743E+02  0.47787264872E+02  0.19999971856E+02 0.  0.
         12    1    1    2    0    0  0.35184114191E+02 -0.61537913720E+01 -0.24654264743E+02  0.43400735128E+02  0.00000000000E+00 0. -1.
         11    1    3    3    0    0  0.56541365254E+00  0.15276546661E+01  0.25379575923E+00  0.16485854318E+01  0.51100000000E-03 0. -1.
        -11    1    3    3    0    0 -0.82620019664E+01  0.62865243795E-01 -0.11399671102E+01  0.83405128023E+01  0.51100000000E-03 0.  1.
        -12    1    3    3    0    0 -0.27487525877E+02  0.45632714621E+01  0.25540436094E+02  0.37798166638E+02  0.00000000000E+00 0.  1.
</event>
<event>
 7    1  0.2682317E-010  0.4778727E+02  0.7816164E-02  0.1312668E+00
        -11   -1    0    0    0    0  0.00000000000E+00  0.00000000000E+00  0.45593999997E+02  0.45594000000E+02  0.51100000000E-03 0.  1.
         11   -1    0    0    0    0 -0.00000000000E+00 -0.00000000000E+00 -0.45593999997E+02  0.45594000000E+02  0.51100000000E-03 0. -1.
    9900012    2    1    2    0    0 -0.33187253466E+02 -0.10673872841E+02  0.25851459504E+02  0.47787270599E+02  0.19999997969E+02 0.  0.
         12    1    1    2    0    0  0.33187253466E+02  0.10673872841E+02 -0.25851459504E+02  0.43400729401E+02  0.00000000000E+00 0. -1.
         11    1    3    3    0    0  0.16322771124E+01  0.18651831560E+01  0.31495699527E+01  0.40078707470E+01  0.51100000000E-03 0. -1.
        -11    1    3    3    0    0 -0.86334239206E+01 -0.27319554390E+01  0.28736567465E+01  0.95003943324E+01  0.51100000000E-03 0.  1.
        -12    1    3    3    0    0 -0.26186106658E+02 -0.98071005581E+01  0.19828232805E+02  0.34279005520E+02  0.00000000000E+00 0.  1.
</event>
<event>
 7    1  0.2682317E-010  0.4778728E+02  0.7816164E-02  0.1312668E+00
        -11   -1    0    0    0    0  0.00000000000E+00  0.00000000000E+00  0.45593999997E+02  0.45594000000E+02  0.51100000000E-03 0.  1.
         11   -1    0    0    0    0 -0.00000000000E+00 -0.00000000000E+00 -0.45593999997E+02  0.45594000000E+02  0.51100000000E-03 0. -1.
    9900012    2    1    2    0    0 -0.36033364830E+02 -0.21360769814E+01  0.24096819199E+02  0.47787275336E+02  0.20000019565E+02 0.  0.
         12    1    1    2    0    0  0.36033364830E+02  0.21360769814E+01 -0.24096819199E+02  0.43400724664E+02  0.00000000000E+00 0. -1.
         11    1    3    3    0    0 -0.10635464457E+02 -0.17408973403E+01  0.70478457241E+01  0.12876954507E+02  0.51100000000E-03 0. -1.
        -11    1    3    3    0    0 -0.20444886737E+02  0.52698486603E+01  0.17426303029E+02  0.27375915256E+02  0.51100000000E-03 0.  1.
         12    1    3    3    0    0 -0.49530136358E+01 -0.56650283014E+01 -0.37732955368E+00  0.75344055721E+01  0.00000000000E+00 0. -1.
</event>
<event>
 7    1  0.2682317E-010  0.4778727E+02  0.7816164E-02  0.1312668E+00
        -11   -1    0    0    0    0  0.00000000000E+00  0.00000000000E+00  0.45593999997E+02  0.45594000000E+02  0.51100000000E-03 0.  1.
         11   -1    0    0    0    0 -0.00000000000E+00 -0.00000000000E+00 -0.45593999997E+02  0.45594000000E+02  0.51100000000E-03 0. -1.
    9900012    2    1    2    0    0 -0.34448282133E+02  0.22088812312E+02  0.14457639294E+02  0.47787272987E+02  0.20000008856E+02 0.  0.
         12    1    1    2    0    0  0.34448282133E+02 -0.22088812312E+02 -0.14457639294E+02  0.43400727013E+02  0.00000000000E+00 0. -1.
         11    1    3    3    0    0 -0.93832350787E+01  0.59582533141E+01  0.45711598743E+01  0.12018377010E+02  0.51100000000E-03 0. -1.
        -11    1    3    3    0    0 -0.15250110427E+02  0.10739529318E+02 -0.27844748712E+01  0.18858861540E+02  0.51100000000E-03 0.  1.
         12    1    3    3    0    0 -0.98149366279E+01  0.53910296805E+01  0.12670954291E+02  0.16910034437E+02  0.00000000000E+00 0. -1.
</event>
<event>
 7    1  0.2682317E-010  0.4778727E+02  0.7816164E-02  0.1312668E+00
        -11   -1    0    0    0    0  0.00000000000E+00  0.00000000000E+00  0.45593999997E+02  0.45594000000E+02  0.51100000000E-03 0.  1.
         11   -1    0    0    0    0 -0.00000000000E+00 -0.00000000000E+00 -0.45593999997E+02  0.45594000000E+02  0.51100000000E-03 0. -1.
    9900012    2    1    2    0    0 -0.13766194714E+02 -0.28549920902E+02  0.29648224012E+02  0.47787270887E+02  0.19999999283E+02 0.  0.
         12    1    1    2    0    0  0.13766194714E+02  0.28549920902E+02 -0.29648224012E+02  0.43400729113E+02  0.00000000000E+00 0. -1.
         11    1    3    3    0    0 -0.88731395229E+00 -0.36172268210E+01  0.11931397148E+02  0.12499195738E+02  0.51100000000E-03 0.  1.
        -11    1    3    3    0    0 -0.84569865352E+01 -0.44606691897E+01  0.50815734085E+01  0.10827768904E+02  0.51100000000E-03 0. -1.
        -12    1    3    3    0    0 -0.44218942261E+01 -0.20472024892E+02  0.12635253455E+02  0.24460306245E+02  0.00000000000E+00 0.  1.
</event>
<event>
 7    1  0.2682317E-010  0.4778727E+02  0.7816164E-02  0.1312668E+00
        -11   -1    0    0    0    0  0.00000000000E+00  0.00000000000E+00  0.45593999997E+02  0.45594000000E+02  0.51100000000E-03 0. -1.
         11   -1    0    0    0    0 -0.00000000000E+00 -0.00000000000E+00 -0.45593999997E+02  0.45594000000E+02  0.51100000000E-03 0.  1.
    9900012    2    1    2    0    0 -0.23465906766E+01  0.25403867022E+02 -0.35110691004E+02  0.47787267631E+02  0.19999984434E+02 0.  0.
         12    1    1    2    0    0  0.23465906766E+01 -0.25403867022E+02  0.35110691004E+02  0.43400732369E+02  0.00000000000E+00 0. -1.
         11    1    3    3    0    0 -0.23727560197E+01  0.10232881477E+02 -0.18534994230E+02  0.21304643762E+02  0.51100000000E-03 0. -1.
        -11    1    3    3    0    0 -0.34004154539E+01  0.16587192489E+02 -0.13218561967E+02  0.21480878955E+02  0.51100000000E-03 0.  1.
         12    1    3    3    0    0  0.34265807970E+01 -0.14162069452E+01 -0.33571348065E+01  0.50017449135E+01  0.00000000000E+00 0. -1.
</event>
<event>
 7    1  0.2682317E-010  0.4778731E+02  0.7816164E-02  0.1312668E+00
        -11   -1    0    0    0    0  0.00000000000E+00  0.00000000000E+00  0.45593999997E+02  0.45594000000E+02  0.51100000000E-03 0. -1.
         11   -1    0    0    0    0 -0.00000000000E+00 -0.00000000000E+00 -0.45593999997E+02  0.45594000000E+02  0.51100000000E-03 0.  1.
    9900012    2    1    2    0    0 -0.11818810951E+02 -0.41250552590E+02  0.65059793298E+01  0.47787307052E+02  0.20000164174E+02 0.  0.
         12    1    1    2    0    0  0.11818810951E+02  0.41250552590E+02 -0.65059793298E+01  0.43400692948E+02  0.00000000000E+00 0. -1.
         11    1    3    3    0    0  0.10080832384E+01 -0.25586510026E+02  0.55802618606E+01  0.26207347249E+02  0.51100000000E-03 0. -1.
        -11    1    3    3    0    0 -0.47669630989E+01 -0.18225560980E+01  0.21025416544E+01  0.55196312907E+01  0.51100000000E-03 0.  1.
        -12    1    3    3    0    0 -0.80599310904E+01 -0.13841486466E+02 -0.11768241852E+01  0.16060328513E+02  0.00000000000E+00 0.  1.
</event>
<event>
 7    1  0.2682317E-010  0.4778727E+02  0.7816164E-02  0.1312668E+00
        -11   -1    0    0    0    0  0.00000000000E+00  0.00000000000E+00  0.45593999997E+02  0.45594000000E+02  0.51100000000E-03 0.  1.
         11   -1    0    0    0    0 -0.00000000000E+00 -0.00000000000E+00 -0.45593999997E+02  0.45594000000E+02  0.51100000000E-03 0. -1.
    9900012    2    1    2    0    0  0.32862319948E+02 -0.27077192383E+02 -0.83974333262E+01  0.47787270673E+02  0.19999998304E+02 0.  0.
         12    1    1    2    0    0 -0.32862319948E+02  0.27077192383E+02  0.83974333262E+01  0.43400729327E+02  0.00000000000E+00 0. -1.
         11    1    3    3    0    0  0.29521058501E+00 -0.39396917076E+01  0.33441018358E+01  0.51760349100E+01  0.51100000000E-03 0. -1.
        -11    1    3    3    0    0  0.18373160428E+01 -0.33603243043E+01 -0.34138317989E+01  0.51304734171E+01  0.51100000000E-03 0.  1.
        -12    1    3    3    0    0  0.30729793320E+02 -0.19777176371E+02 -0.83277033630E+01  0.37480762345E+02  0.00000000000E+00 0.  1.
</event>
<event>
 7    1  0.2682317E-010  0.4778727E+02  0.7816164E-02  0.1312668E+00
        -11   -1    0    0    0    0  0.00000000000E+00  0.00000000000E+00  0.45593999997E+02  0.45594000000E+02  0.51100000000E-03 0. -1.
         11   -1    0    0    0    0 -0.00000000000E+00 -0.00000000000E+00 -0.45593999997E+02  0.45594000000E+02  0.51100000000E-03 0.  1.
    9900012    2    1    2    0    0  0.30166951828E+02  0.28763124284E+02  0.12093860204E+02  0.47787265492E+02  0.19999974685E+02 0.  0.
         12    1    1    2    0    0 -0.30166951828E+02 -0.28763124284E+02 -0.12093860204E+02  0.43400734508E+02  0.00000000000E+00 0. -1.
         11    1    3    3    0    0  0.63413760090E+01  0.37539914171E+01  0.34518201895E-01  0.73693074990E+01  0.51100000000E-03 0. -1.
        -11    1    3    3    0    0  0.21995746234E+02  0.13755358702E+02  0.35357190701E+01  0.26182514299E+02  0.51100000000E-03 0.  1.
         12    1    3    3    0    0  0.18298295847E+01  0.11253774166E+02  0.85236229324E+01  0.14235443694E+02  0.00000000000E+00 0. -1.
</event>
<event>
 7    1  0.2682317E-010  0.4778726E+02  0.7816164E-02  0.1312668E+00
        -11   -1    0    0    0    0  0.00000000000E+00  0.00000000000E+00  0.45593999997E+02  0.45594000000E+02  0.51100000000E-03 0. -1.
         11   -1    0    0    0    0 -0.00000000000E+00 -0.00000000000E+00 -0.45593999997E+02  0.45594000000E+02  0.51100000000E-03 0.  1.
    9900012    2    1    2    0    0  0.64993300921E+01  0.36024133560E+02 -0.23316188522E+02  0.47787261094E+02  0.19999954631E+02 0.  0.
         12    1    1    2    0    0 -0.64993300921E+01 -0.36024133560E+02  0.23316188522E+02  0.43400738906E+02  0.00000000000E+00 0. -1.
         11    1    3    3    0    0 -0.33493290883E+01  0.13623722936E+02 -0.80960841511E+01  0.16197852043E+02  0.51100000000E-03 0. -1.
        -11    1    3    3    0    0 -0.28135576021E+01  0.73712532104E+01 -0.58232014978E+01  0.98061794914E+01  0.51100000000E-03 0.  1.
         12    1    3    3    0    0  0.12662216783E+02  0.15029157414E+02 -0.93969028731E+01  0.21783229559E+02  0.00000000000E+00 0. -1.
</event>
<event>
 7    1  0.2682317E-010  0.4778727E+02  0.7816164E-02  0.1312668E+00
        -11   -1    0    0    0    0  0.00000000000E+00  0.00000000000E+00  0.45593999997E+02  0.45594000000E+02  0.51100000000E-03 0.  1.
         11   -1    0    0    0    0 -0.00000000000E+00 -0.00000000000E+00 -0.45593999997E+02  0.45594000000E+02  0.51100000000E-03 0. -1.
    9900012    2    1    2    0    0  0.12121548529E+02  0.10716883775E+02  0.40272069157E+02  0.47787273154E+02  0.20000009616E+02 0.  0.
         12    1    1    2    0    0 -0.12121548529E+02 -0.10716883775E+02 -0.40272069157E+02  0.43400726846E+02  0.00000000000E+00 0. -1.
         11    1    3    3    0    0  0.28200266877E+01  0.25735461060E+00  0.14234440662E+02  0.14513376007E+02  0.51100000000E-03 0. -1.
        -11    1    3    3    0    0  0.57745846374E+01  0.80054422248E+01  0.27105167229E+02  0.28846542665E+02  0.51100000000E-03 0.  1.
         12    1    3    3    0    0  0.35269372043E+01  0.24540869401E+01 -0.10675387339E+01  0.44273544811E+01  0.00000000000E+00 0. -1.
</event>
<event>
 7    1  0.2682317E-010  0.4778725E+02  0.7816164E-02  0.1312668E+00
        -11   -1    0    0    0    0  0.00000000000E+00  0.00000000000E+00  0.45593999997E+02  0.45594000000E+02  0.51100000000E-03 0. -1.
         11   -1    0    0    0    0 -0.00000000000E+00 -0.00000000000E+00 -0.45593999997E+02  0.45594000000E+02  0.51100000000E-03 0.  1.
    9900012    2    1    2    0    0 -0.33209874346E+02 -0.24833796609E+02 -0.12806714909E+02  0.47787249375E+02  0.19999901198E+02 0.  0.
         12    1    1    2    0    0  0.33209874346E+02  0.24833796609E+02  0.12806714909E+02  0.43400750625E+02  0.00000000000E+00 0. -1.
         11    1    3    3    0    0 -0.69354138466E+01 -0.54058482309E+00 -0.74579708802E+01  0.10198702226E+02  0.51100000000E-03 0. -1.
        -11    1    3    3    0    0 -0.51742522558E+01 -0.21265749037E+00 -0.43848159772E+00  0.51971507566E+01  0.51100000000E-03 0.  1.
        -12    1    3    3    0    0 -0.21100208244E+02 -0.24080554296E+02 -0.49102624311E+01  0.32391396392E+02  0.00000000000E+00 0.  1.
</event>
<event>
 7    1  0.2682317E-010  0.4778727E+02  0.7816164E-02  0.1312668E+00
        -11   -1    0    0    0    0  0.00000000000E+00  0.00000000000E+00  0.45593999997E+02  0.45594000000E+02  0.51100000000E-03 0.  1.
         11   -1    0    0    0    0 -0.00000000000E+00 -0.00000000000E+00 -0.45593999997E+02  0.45594000000E+02  0.51100000000E-03 0. -1.
    9900012    2    1    2    0    0 -0.33895009919E+02  0.72930233074E+01  0.26106767231E+02  0.47787272107E+02  0.20000004843E+02 0.  0.
         12    1    1    2    0    0  0.33895009919E+02 -0.72930233074E+01 -0.26106767231E+02  0.43400727893E+02  0.00000000000E+00 0. -1.
         11    1    3    3    0    0 -0.12544722831E+02  0.84825772356E+01  0.13811326291E+02  0.20495778142E+02  0.51100000000E-03 0.  1.
        -11    1    3    3    0    0 -0.57754252761E+01 -0.26562042229E+01  0.94528800906E+01  0.11391571457E+02  0.51100000000E-03 0. -1.
         12    1    3    3    0    0 -0.15574861812E+02  0.14666502948E+01  0.28425608493E+01  0.15899922507E+02  0.00000000000E+00 0. -1.
</event>
<event>
 7    1  0.2682317E-010  0.4778727E+02  0.7816164E-02  0.1312668E+00
        -11   -1    0    0    0    0  0.00000000000E+00  0.00000000000E+00  0.45593999997E+02  0.45594000000E+02  0.51100000000E-03 0. -1.
         11   -1    0    0    0    0 -0.00000000000E+00 -0.00000000000E+00 -0.45593999997E+02  0.45594000000E+02  0.51100000000E-03 0.  1.
    9900012    2    1    2    0    0  0.25644646534E+02 -0.34639404896E+02  0.51075638148E+01  0.47787268721E+02  0.19999989408E+02 0.  0.
         12    1    1    2    0    0 -0.25644646534E+02  0.34639404896E+02 -0.51075638148E+01  0.43400731279E+02  0.00000000000E+00 0. -1.
         11    1    3    3    0    0  0.11910208779E+02 -0.16881645396E+02  0.58875542388E+01  0.21482698146E+02  0.51100000000E-03 0. -1.
        -11    1    3    3    0    0  0.16441012724E+02 -0.15778208113E+02  0.27622908661E+00  0.22788923920E+02  0.51100000000E-03 0.  1.
         12    1    3    3    0    0 -0.27065749690E+01 -0.19795513867E+01 -0.10562195106E+01  0.35156466561E+01  0.00000000000E+00 0. -1.
</event>
<event>
 7    1  0.2682317E-010  0.4778727E+02  0.7816164E-02  0.1312668E+00
        -11   -1    0    0    0    0  0.00000000000E+00  0.00000000000E+00  0.45593999997E+02  0.45594000000E+02  0.51100000000E-03 0. -1.
         11   -1    0    0    0    0 -0.00000000000E+00 -0.00000000000E+00 -0.45593999997E+02  0.45594000000E+02  0.51100000000E-03 0.  1.
    9900012    2    1    2    0    0 -0.21890708425E+02 -0.23736823775E+02 -0.28999716258E+02  0.47787268885E+02  0.19999990153E+02 0.  0.
         12    1    1    2    0    0  0.21890708425E+02  0.23736823775E+02  0.28999716258E+02  0.43400731115E+02  0.00000000000E+00 0. -1.
         11    1    3    3    0    0 -0.75617766789E+01  0.16688708489E+01 -0.42210768386E+01  0.88194720018E+01  0.51100000000E-03 0. -1.
        -11    1    3    3    0    0 -0.70455457793E+01 -0.84108929295E+01 -0.55648656926E+01  0.12302461771E+02  0.51100000000E-03 0.  1.
        -12    1    3    3    0    0 -0.72833859671E+01 -0.16994801694E+02 -0.19213773727E+02  0.26665335111E+02  0.00000000000E+00 0.  1.
</event>
<event>
 7    1  0.2682317E-010  0.4778727E+02  0.7816164E-02  0.1312668E+00
        -11   -1    0    0    0    0  0.00000000000E+00  0.00000000000E+00  0.45593999997E+02  0.45594000000E+02  0.51100000000E-03 0. -1.
         11   -1    0    0    0    0 -0.00000000000E+00 -0.00000000000E+00 -0.45593999997E+02  0.45594000000E+02  0.51100000000E-03 0.  1.
    9900012    2    1    2    0    0  0.37103657142E+02  0.19042613796E+02 -0.12013358682E+02  0.47787270740E+02  0.19999998610E+02 0.  0.
         12    1    1    2    0    0 -0.37103657142E+02 -0.19042613796E+02  0.12013358682E+02  0.43400729260E+02  0.00000000000E+00 0. -1.
         11    1    3    3    0    0  0.18422977242E+02  0.51189447538E+01 -0.13199237143E+02  0.23234232229E+02  0.51100000000E-03 0. -1.
        -11    1    3    3    0    0 -0.35773663812E+00  0.18917933307E+01 -0.43235471772E+00  0.19732684488E+01  0.51100000000E-03 0.  1.
        -12    1    3    3    0    0  0.19038416538E+02  0.12031875712E+02  0.16182331783E+01  0.22579770062E+02  0.00000000000E+00 0.  1.
</event>
<event>
 7    1  0.2682317E-010  0.4778729E+02  0.7816164E-02  0.1312668E+00
        -11   -1    0    0    0    0  0.00000000000E+00  0.00000000000E+00  0.45593999997E+02  0.45594000000E+02  0.51100000000E-03 0.  1.
         11   -1    0    0    0    0 -0.00000000000E+00 -0.00000000000E+00 -0.45593999997E+02  0.45594000000E+02  0.51100000000E-03 0. -1.
    9900012    2    1    2    0    0 -0.34469619272E+02 -0.17397698797E+02  0.19818865753E+02  0.47787285537E+02  0.20000066078E+02 0.  0.
         12    1    1    2    0    0  0.34469619272E+02  0.17397698797E+02 -0.19818865753E+02  0.43400714463E+02  0.00000000000E+00 0. -1.
         11    1    3    3    0    0 -0.74406691298E+01 -0.22687400753E+01  0.71510672545E+01  0.10566385464E+02  0.51100000000E-03 0. -1.
        -11    1    3    3    0    0  0.17806217110E+01 -0.35063414586E+01  0.14949399424E+01  0.42071236961E+01  0.51100000000E-03 0.  1.
        -12    1    3    3    0    0 -0.28809571853E+02 -0.11622617263E+02  0.11172858556E+02  0.33013776377E+02  0.00000000000E+00 0.  1.
</event>
<event>
 7    1  0.2682317E-010  0.4778727E+02  0.7816164E-02  0.1312668E+00
        -11   -1    0    0    0    0  0.00000000000E+00  0.00000000000E+00  0.45593999997E+02  0.45594000000E+02  0.51100000000E-03 0. -1.
         11   -1    0    0    0    0 -0.00000000000E+00 -0.00000000000E+00 -0.45593999997E+02  0.45594000000E+02  0.51100000000E-03 0.  1.
    9900012    2    1    2    0    0  0.41664766750E+02 -0.75790339066E+01  0.94988829437E+01  0.47787270508E+02  0.19999997553E+02 0.  0.
         12    1    1    2    0    0 -0.41664766750E+02  0.75790339066E+01 -0.94988829437E+01  0.43400729492E+02  0.00000000000E+00 0. -1.
         11    1    3    3    0    0  0.83535436821E+00 -0.16960959831E+01 -0.37048790087E+00  0.19266084320E+01  0.51100000000E-03 0. -1.
        -11    1    3    3    0    0  0.27604790127E+02 -0.15008960804E+01 -0.17763680784E+01  0.27702574083E+02  0.51100000000E-03 0.  1.
        -12    1    3    3    0    0  0.13224622254E+02 -0.43820418431E+01  0.11645738923E+02  0.18158087993E+02  0.00000000000E+00 0.  1.
</event>
<event>
 7    1  0.2682317E-010  0.4778727E+02  0.7816164E-02  0.1312668E+00
        -11   -1    0    0    0    0  0.00000000000E+00  0.00000000000E+00  0.45593999997E+02  0.45594000000E+02  0.51100000000E-03 0. -1.
         11   -1    0    0    0    0 -0.00000000000E+00 -0.00000000000E+00 -0.45593999997E+02  0.45594000000E+02  0.51100000000E-03 0.  1.
    9900012    2    1    2    0    0  0.23351998779E+02  0.36562251305E+02 -0.12284247369E+01  0.47787273108E+02  0.20000009408E+02 0.  0.
         12    1    1    2    0    0 -0.23351998779E+02 -0.36562251305E+02  0.12284247369E+01  0.43400726892E+02  0.00000000000E+00 0. -1.
         11    1    3    3    0    0  0.63616563817E+01  0.94931371957E+00  0.62288307939E+00  0.64621863211E+01  0.51100000000E-03 0. -1.
        -11    1    3    3    0    0  0.92348623588E+01  0.76121113071E+01 -0.26560318223E+01  0.12258932524E+02  0.51100000000E-03 0.  1.
         12    1    3    3    0    0  0.77554800387E+01  0.28000826278E+02  0.80472400602E+00  0.29066154262E+02  0.00000000000E+00 0. -1.
</event>
<event>
 7    1  0.2682317E-010  0.4778727E+02  0.7816164E-02  0.1312668E+00
        -11   -1    0    0    0    0  0.00000000000E+00  0.00000000000E+00  0.45593999997E+02  0.45594000000E+02  0.51100000000E-03 0.  1.
         11   -1    0    0    0    0 -0.00000000000E+00 -0.00000000000E+00 -0.45593999997E+02  0.45594000000E+02  0.51100000000E-03 0. -1.
    9900012    2    1    2    0    0  0.91942997373E+01 -0.38566792185E+02  0.17654764095E+02  0.47787270717E+02  0.19999998506E+02 0.  0.
         12    1    1    2    0    0 -0.91942997373E+01  0.38566792185E+02 -0.17654764095E+02  0.43400729283E+02  0.00000000000E+00 0. -1.
         11    1    3    3    0    0  0.88092705215E+01 -0.19695612931E+02  0.13625913423E+02  0.25518345023E+02  0.51100000000E-03 0. -1.
        -11    1    3    3    0    0 -0.36129952851E+01 -0.16784865182E+02  0.44587816538E+01  0.17738832211E+02  0.51100000000E-03 0.  1.
         12    1    3    3    0    0  0.39980245009E+01 -0.20863140720E+01 -0.42993098213E+00  0.45300934832E+01  0.00000000000E+00 0. -1.
</event>
<event>
 7    1  0.2682317E-010  0.4778728E+02  0.7816164E-02  0.1312668E+00
        -11   -1    0    0    0    0  0.00000000000E+00  0.00000000000E+00  0.45593999997E+02  0.45594000000E+02  0.51100000000E-03 0.  1.
         11   -1    0    0    0    0 -0.00000000000E+00 -0.00000000000E+00 -0.45593999997E+02  0.45594000000E+02  0.51100000000E-03 0. -1.
    9900012    2    1    2    0    0  0.22515190151E+02 -0.17449302257E+02  0.32744632478E+02  0.47787275433E+02  0.20000020011E+02 0.  0.
         12    1    1    2    0    0 -0.22515190151E+02  0.17449302257E+02 -0.32744632478E+02  0.43400724567E+02  0.00000000000E+00 0. -1.
         11    1    3    3    0    0  0.87635102199E+01  0.92031323715E+00  0.68783928575E+01  0.11178478268E+02  0.51100000000E-03 0. -1.
        -11    1    3    3    0    0 -0.14380348475E+00 -0.24132754033E+01  0.96567753251E+01  0.99547921904E+01  0.51100000000E-03 0.  1.
        -12    1    3    3    0    0  0.13895483416E+02 -0.15956340091E+02  0.16209464295E+02  0.26654004975E+02  0.00000000000E+00 0.  1.
</event>
<event>
 7    1  0.2682317E-010  0.4778728E+02  0.7816164E-02  0.1312668E+00
        -11   -1    0    0    0    0  0.00000000000E+00  0.00000000000E+00  0.45593999997E+02  0.45594000000E+02  0.51100000000E-03 0.  1.
         11   -1    0    0    0    0 -0.00000000000E+00 -0.00000000000E+00 -0.45593999997E+02  0.45594000000E+02  0.51100000000E-03 0. -1.
    9900012    2    1    2    0    0  0.22747964956E+02  0.99831042298E+01  0.35587782367E+02  0.47787279574E+02  0.20000038890E+02 0.  0.
         12    1    1    2    0    0 -0.22747964956E+02 -0.99831042298E+01 -0.35587782367E+02  0.43400720426E+02  0.00000000000E+00 0. -1.
         11    1    3    3    0    0  0.68684521454E+01  0.10981493856E+00  0.33671932930E+01  0.76502081755E+01  0.51100000000E-03 0. -1.
        -11    1    3    3    0    0  0.11731612052E+02  0.87901765285E+01  0.10586610599E+02  0.18082429289E+02  0.51100000000E-03 0.  1.
        -12    1    3    3    0    0  0.41479007589E+01  0.10831127628E+01  0.21633978474E+02  0.22054642110E+02  0.00000000000E+00 0.  1.
</event>
<event>
 7    1  0.2682317E-010  0.4778727E+02  0.7816164E-02  0.1312668E+00
        -11   -1    0    0    0    0  0.00000000000E+00  0.00000000000E+00  0.45593999997E+02  0.45594000000E+02  0.51100000000E-03 0.  1.
         11   -1    0    0    0    0 -0.00000000000E+00 -0.00000000000E+00 -0.45593999997E+02  0.45594000000E+02  0.51100000000E-03 0. -1.
    9900012    2    1    2    0    0 -0.28597555442E+02 -0.29304354282E+02  0.14389514285E+02  0.47787268687E+02  0.19999989252E+02 0.  0.
         12    1    1    2    0    0  0.28597555442E+02  0.29304354282E+02 -0.14389514285E+02  0.43400731313E+02  0.00000000000E+00 0. -1.
         11    1    3    3    0    0 -0.40593971932E+01 -0.19632242592E+01 -0.29505709468E+01  0.53887683414E+01  0.51100000000E-03 0. -1.
        -11    1    3    3    0    0 -0.13272920515E+01 -0.62879776355E+01  0.67520976130E+01  0.93215443662E+01  0.51100000000E-03 0.  1.
         12    1    3    3    0    0 -0.23210866197E+02 -0.21053152387E+02  0.10587987619E+02  0.33076955980E+02  0.00000000000E+00 0. -1.
</event>
<event>
 7    1  0.2682317E-010  0.4778728E+02  0.7816164E-02  0.1312668E+00
        -11   -1    0    0    0    0  0.00000000000E+00  0.00000000000E+00  0.45593999997E+02  0.45594000000E+02  0.51100000000E-03 0. -1.
         11   -1    0    0    0    0 -0.00000000000E+00 -0.00000000000E+00 -0.45593999997E+02  0.45594000000E+02  0.51100000000E-03 0.  1.
    9900012    2    1    2    0    0  0.18443302634E+01  0.38175500071E+02 -0.20563361767E+02  0.47787283336E+02  0.20000056041E+02 0.  0.
         12    1    1    2    0    0 -0.18443302634E+01 -0.38175500071E+02  0.20563361767E+02  0.43400716664E+02  0.00000000000E+00 0. -1.
         11    1    3    3    0    0 -0.26743878853E-01  0.11745202440E+02 -0.10906817715E+02  0.16028386335E+02  0.51100000000E-03 0.  1.
        -11    1    3    3    0    0  0.38874330052E+01  0.16362339142E+02 -0.12671876146E+02  0.21057414915E+02  0.51100000000E-03 0. -1.
         12    1    3    3    0    0 -0.20163588629E+01  0.10067958489E+02  0.30153320933E+01  0.10701482086E+02  0.00000000000E+00 0. -1.
</event>
<event>
 7    1  0.2682317E-010  0.4778726E+02  0.7816164E-02  0.1312668E+00
        -11   -1    0    0    0    0  0.00000000000E+00  0.00000000000E+00  0.45593999997E+02  0.45594000000E+02  0.51100000000E-03 0.  1.
         11   -1    0    0    0    0 -0.00000000000E+00 -0.00000000000E+00 -0.45593999997E+02  0.45594000000E+02  0.51100000000E-03 0. -1.
    9900012    2    1    2    0    0 -0.29490425167E+02 -0.10429267369E+02  0.30086029838E+02  0.47787262843E+02  0.19999962606E+02 0.  0.
         12    1    1    2    0    0  0.29490425167E+02  0.10429267369E+02 -0.30086029838E+02  0.43400737157E+02  0.00000000000E+00 0. -1.
         11    1    3    3    0    0 -0.12521448929E+02 -0.99874744380E+01  0.10454426515E+02  0.19126718562E+02  0.51100000000E-03 0. -1.
        -11    1    3    3    0    0 -0.85442900745E+01 -0.62811937800E+01  0.92663510557E+01  0.14082739447E+02  0.51100000000E-03 0.  1.
        -12    1    3    3    0    0 -0.84246861631E+01  0.58394008487E+01  0.10365252268E+02  0.14577804834E+02  0.00000000000E+00 0.  1.
</event>
<event>
 7    1  0.2682317E-010  0.4778727E+02  0.7816164E-02  0.1312668E+00
        -11   -1    0    0    0    0  0.00000000000E+00  0.00000000000E+00  0.45593999997E+02  0.45594000000E+02  0.51100000000E-03 0.  1.
         11   -1    0    0    0    0 -0.00000000000E+00 -0.00000000000E+00 -0.45593999997E+02  0.45594000000E+02  0.51100000000E-03 0. -1.
    9900012    2    1    2    0    0  0.21203662895E+02 -0.74542383197E+01  0.37127645829E+02  0.47787273348E+02  0.20000010504E+02 0.  0.
         12    1    1    2    0    0 -0.21203662895E+02  0.74542383197E+01 -0.37127645829E+02  0.43400726652E+02  0.00000000000E+00 0. -1.
         11    1    3    3    0    0  0.11250318299E+02  0.96721829094E+00  0.98736338398E+01  0.14999793949E+02  0.51100000000E-03 0. -1.
        -11    1    3    3    0    0  0.91891466377E+01 -0.84032313520E+00  0.20971788911E+02  0.22912059910E+02  0.51100000000E-03 0.  1.
         12    1    3    3    0    0  0.76419795806E+00 -0.75811334754E+01  0.62822230780E+01  0.98754194895E+01  0.00000000000E+00 0. -1.
</event>
<event>
 7    1  0.2682317E-010  0.4778727E+02  0.7816164E-02  0.1312668E+00
        -11   -1    0    0    0    0  0.00000000000E+00  0.00000000000E+00  0.45593999997E+02  0.45594000000E+02  0.51100000000E-03 0.  1.
         11   -1    0    0    0    0 -0.00000000000E+00 -0.00000000000E+00 -0.45593999997E+02  0.45594000000E+02  0.51100000000E-03 0. -1.
    9900012    2    1    2    0    0 -0.13216217851E+02  0.10646188769E+02  0.39945130571E+02  0.47787271828E+02  0.20000003571E+02 0.  0.
         12    1    1    2    0    0  0.13216217851E+02 -0.10646188769E+02 -0.39945130571E+02  0.43400728172E+02  0.00000000000E+00 0. -1.
         11    1    3    3    0    0  0.22702045916E+01 -0.26082194906E+01  0.18407778135E+01  0.39172823511E+01  0.51100000000E-03 0. -1.
        -11    1    3    3    0    0 -0.12966944963E+01  0.41844096618E+01  0.44904459263E+01  0.62733408733E+01  0.51100000000E-03 0.  1.
        -12    1    3    3    0    0 -0.14189727947E+02  0.90699985978E+01  0.33613906831E+02  0.37596648603E+02  0.00000000000E+00 0.  1.
</event>
<event>
 7    1  0.2682317E-010  0.4778727E+02  0.7816164E-02  0.1312668E+00
        -11   -1    0    0    0    0  0.00000000000E+00  0.00000000000E+00  0.45593999997E+02  0.45594000000E+02  0.51100000000E-03 0. -1.
         11   -1    0    0    0    0 -0.00000000000E+00 -0.00000000000E+00 -0.45593999997E+02  0.45594000000E+02  0.51100000000E-03 0.  1.
    9900012    2    1    2    0    0  0.14730796956E+02  0.40423123851E+02 -0.57094503643E+01  0.47787272537E+02  0.20000006804E+02 0.  0.
         12    1    1    2    0    0 -0.14730796956E+02 -0.40423123851E+02  0.57094503643E+01  0.43400727463E+02  0.00000000000E+00 0. -1.
         11    1    3    3    0    0 -0.13079449874E+00 -0.36489447727E+00 -0.14329742264E+01  0.14844765323E+01  0.51100000000E-03 0. -1.
        -11    1    3    3    0    0 -0.13341162607E+01  0.96945026412E+01  0.34983981055E+01  0.10392402861E+02  0.51100000000E-03 0.  1.
        -12    1    3    3    0    0  0.16195707716E+02  0.31093515687E+02 -0.77748742434E+01  0.35910393143E+02  0.00000000000E+00 0.  1.
</event>
<event>
 7    1  0.2682317E-010  0.4778727E+02  0.7816164E-02  0.1312668E+00
        -11   -1    0    0    0    0  0.00000000000E+00  0.00000000000E+00  0.45593999997E+02  0.45594000000E+02  0.51100000000E-03 0.  1.
         11   -1    0    0    0    0 -0.00000000000E+00 -0.00000000000E+00 -0.45593999997E+02  0.45594000000E+02  0.51100000000E-03 0. -1.
    9900012    2    1    2    0    0 -0.11539789360E+02  0.19786750674E+02  0.36863817955E+02  0.47787270571E+02  0.19999997842E+02 0.  0.
         12    1    1    2    0    0  0.11539789360E+02 -0.19786750674E+02 -0.36863817955E+02  0.43400729429E+02  0.00000000000E+00 0. -1.
         11    1    3    3    0    0 -0.13659296336E+01 -0.62798501777E+00 -0.70389623502E-01  0.15050195702E+01  0.51100000000E-03 0. -1.
        -11    1    3    3    0    0 -0.37201834394E+01  0.50565808563E+01  0.59411333861E+00  0.63056915322E+01  0.51100000000E-03 0.  1.
        -12    1    3    3    0    0 -0.64536762873E+01  0.15358154835E+02  0.36340094240E+02  0.39976559469E+02  0.00000000000E+00 0.  1.
</event>
<event>
 7    1  0.2682317E-010  0.4778728E+02  0.7816164E-02  0.1312668E+00
        -11   -1    0    0    0    0  0.00000000000E+00  0.00000000000E+00  0.45593999997E+02  0.45594000000E+02  0.51100000000E-03 0.  1.
         11   -1    0    0    0    0 -0.00000000000E+00 -0.00000000000E+00 -0.45593999997E+02  0.45594000000E+02  0.51100000000E-03 0. -1.
    9900012    2    1    2    0    0 -0.76004449402E+01  0.42063606625E+02  0.75172537604E+01  0.47787275701E+02  0.20000021229E+02 0.  0.
         12    1    1    2    0    0  0.76004449402E+01 -0.42063606625E+02 -0.75172537604E+01  0.43400724299E+02  0.00000000000E+00 0. -1.
         11    1    3    3    0    0  0.63046730393E+01  0.86145009287E+01  0.27675600146E+01  0.11028051373E+02  0.51100000000E-03 0. -1.
        -11    1    3    3    0    0 -0.11759097467E+01  0.69763480490E+01  0.10813465790E+01  0.71569201839E+01  0.51100000000E-03 0.  1.
         12    1    3    3    0    0 -0.12729208233E+02  0.26472757648E+02  0.36683471667E+01  0.29602304144E+02  0.00000000000E+00 0. -1.
</event>
<event>
 7    1  0.2682317E-010  0.4778727E+02  0.7816164E-02  0.1312668E+00
        -11   -1    0    0    0    0  0.00000000000E+00  0.00000000000E+00  0.45593999997E+02  0.45594000000E+02  0.51100000000E-03 0.  1.
         11   -1    0    0    0    0 -0.00000000000E+00 -0.00000000000E+00 -0.45593999997E+02  0.45594000000E+02  0.51100000000E-03 0. -1.
    9900012    2    1    2    0    0 -0.66164269884E+01 -0.13614468383E+01  0.42871815213E+02  0.47787272089E+02  0.20000004760E+02 0.  0.
         12    1    1    2    0    0  0.66164269884E+01  0.13614468383E+01 -0.42871815213E+02  0.43400727911E+02  0.00000000000E+00 0. -1.
         11    1    3    3    0    0  0.27026018930E+01  0.18930323425E+01  0.13592462760E+01  0.35686382756E+01  0.51100000000E-03 0.  1.
        -11    1    3    3    0    0  0.17034727576E+01 -0.38321383737E+01  0.11468733211E+02  0.12211426848E+02  0.51100000000E-03 0. -1.
        -12    1    3    3    0    0 -0.11022501639E+02  0.57765919291E+00  0.30043835727E+02  0.32007206965E+02  0.00000000000E+00 0.  1.
</event>
<event>
 7    1  0.2682317E-010  0.4778729E+02  0.7816164E-02  0.1312668E+00
        -11   -1    0    0    0    0  0.00000000000E+00  0.00000000000E+00  0.45593999997E+02  0.45594000000E+02  0.51100000000E-03 0.  1.
         11   -1    0    0    0    0 -0.00000000000E+00 -0.00000000000E+00 -0.45593999997E+02  0.45594000000E+02  0.51100000000E-03 0. -1.
    9900012    2    1    2    0    0  0.15657298063E+02 -0.19749845709E+02  0.35332908044E+02  0.47787288266E+02  0.20000078519E+02 0.  0.
         12    1    1    2    0    0 -0.15657298063E+02  0.19749845709E+02 -0.35332908044E+02  0.43400711734E+02  0.00000000000E+00 0. -1.
         11    1    3    3    0    0 -0.12941103813E+01  0.36064201745E+00 -0.11490935156E+00  0.13483281366E+01  0.51100000000E-03 0. -1.
        -11    1    3    3    0    0 -0.21590065641E+01 -0.82399767006E+00  0.57682013550E+01  0.62138899763E+01  0.51100000000E-03 0.  1.
        -12    1    3    3    0    0  0.19110415008E+02 -0.19286490056E+02  0.29679616041E+02  0.40225070153E+02  0.00000000000E+00 0.  1.
</event>
<event>
 7    1  0.3546999E-010  0.4778727E+02  0.7816164E-02  0.1312668E+00
        -11   -1    0    0    0    0  0.00000000000E+00  0.00000000000E+00  0.45593999997E+02  0.45594000000E+02  0.51100000000E-03 0.  1.
         11   -1    0    0    0    0 -0.00000000000E+00 -0.00000000000E+00 -0.45593999997E+02  0.45594000000E+02  0.51100000000E-03 0. -1.
    9900012    2    1    2    0    0  0.13848071350E+02 -0.36265214871E+02  0.19408466442E+02  0.47787268908E+02  0.19999990258E+02 0.  0.
         12    1    1    2    0    0 -0.13848071350E+02  0.36265214871E+02 -0.19408466442E+02  0.43400731092E+02  0.00000000000E+00 0. -1.
         11    1    3    3    0    0  0.12100551598E+02 -0.29034777866E+02  0.10907733705E+02  0.33292947144E+02  0.51100000000E-03 0.  1.
        -11    1    3    3    0    0  0.46718892485E+01 -0.65994346867E+01  0.81528173102E+01  0.11482487435E+02  0.51100000000E-03 0. -1.
         12    1    3    3    0    0 -0.29243694972E+01 -0.63100231849E+00  0.34791542683E+00  0.30118343291E+01  0.00000000000E+00 0. -1.
</event>
<event>
 7    1  0.2682317E-010  0.4778727E+02  0.7816164E-02  0.1312668E+00
        -11   -1    0    0    0    0  0.00000000000E+00  0.00000000000E+00  0.45593999997E+02  0.45594000000E+02  0.51100000000E-03 0.  1.
         11   -1    0    0    0    0 -0.00000000000E+00 -0.00000000000E+00 -0.45593999997E+02  0.45594000000E+02  0.51100000000E-03 0. -1.
    9900012    2    1    2    0    0  0.62682385739E+00 -0.18017307677E+02  0.39479196064E+02  0.47787271827E+02  0.20000003569E+02 0.  0.
         12    1    1    2    0    0 -0.62682385739E+00  0.18017307677E+02 -0.39479196064E+02  0.43400728173E+02  0.00000000000E+00 0. -1.
         11    1    3    3    0    0  0.18285032995E+01  0.17941082885E+01  0.16879024561E+02  0.17072308551E+02  0.51100000000E-03 0. -1.
        -11    1    3    3    0    0  0.13641593934E+01 -0.77012595240E+01  0.12468077271E+02  0.14718127605E+02  0.51100000000E-03 0.  1.
         12    1    3    3    0    0 -0.25658388356E+01 -0.12110156442E+02  0.10132094232E+02  0.15996835671E+02  0.00000000000E+00 0. -1.
</event>
<event>
 7    1  0.2682317E-010  0.4778727E+02  0.7816164E-02  0.1312668E+00
        -11   -1    0    0    0    0  0.00000000000E+00  0.00000000000E+00  0.45593999997E+02  0.45594000000E+02  0.51100000000E-03 0. -1.
         11   -1    0    0    0    0 -0.00000000000E+00 -0.00000000000E+00 -0.45593999997E+02  0.45594000000E+02  0.51100000000E-03 0.  1.
    9900012    2    1    2    0    0 -0.34761963875E+02 -0.20661729228E+02 -0.15758243820E+02  0.47787269183E+02  0.19999991515E+02 0.  0.
         12    1    1    2    0    0  0.34761963875E+02  0.20661729228E+02  0.15758243820E+02  0.43400730817E+02  0.00000000000E+00 0. -1.
         11    1    3    3    0    0 -0.90545542502E+01 -0.92818928300E+01 -0.90882410978E+00  0.12998632570E+02  0.51100000000E-03 0. -1.
        -11    1    3    3    0    0 -0.15030676728E+02 -0.76109879641E+01 -0.96851647871E+00  0.16875615696E+02  0.51100000000E-03 0.  1.
        -12    1    3    3    0    0 -0.10676732897E+02 -0.37688484342E+01 -0.13880903231E+02  0.17913020917E+02  0.00000000000E+00 0.  1.
</event>
<event>
 7    1  0.2682317E-010  0.4778727E+02  0.7816164E-02  0.1312668E+00
        -11   -1    0    0    0    0  0.00000000000E+00  0.00000000000E+00  0.45593999997E+02  0.45594000000E+02  0.51100000000E-03 0.  1.
         11   -1    0    0    0    0 -0.00000000000E+00 -0.00000000000E+00 -0.45593999997E+02  0.45594000000E+02  0.51100000000E-03 0. -1.
    9900012    2    1    2    0    0  0.32661793852E+01 -0.12835742766E+02  0.41330362584E+02  0.47787273146E+02  0.20000009583E+02 0.  0.
         12    1    1    2    0    0 -0.32661793852E+01  0.12835742766E+02 -0.41330362584E+02  0.43400726854E+02  0.00000000000E+00 0. -1.
         11    1    3    3    0    0 -0.19051936775E+01 -0.52043283237E+01  0.26527082852E+01  0.61442377686E+01  0.51100000000E-03 0. -1.
        -11    1    3    3    0    0  0.18023250473E+00 -0.96173639260E+01  0.19750267417E+02  0.21968141386E+02  0.51100000000E-03 0.  1.
         12    1    3    3    0    0  0.49911405580E+01  0.19859494838E+01  0.18927386882E+02  0.19674893992E+02  0.00000000000E+00 0. -1.
</event>
<event>
 7    1  0.2682317E-010  0.4778727E+02  0.7816164E-02  0.1312668E+00
        -11   -1    0    0    0    0  0.00000000000E+00  0.00000000000E+00  0.45593999997E+02  0.45594000000E+02  0.51100000000E-03 0.  1.
         11   -1    0    0    0    0 -0.00000000000E+00 -0.00000000000E+00 -0.45593999997E+02  0.45594000000E+02  0.51100000000E-03 0. -1.
    9900012    2    1    2    0    0 -0.32156348310E+02 -0.17083398684E+02  0.23616729548E+02  0.47787272336E+02  0.20000005889E+02 0.  0.
         12    1    1    2    0    0  0.32156348310E+02  0.17083398684E+02 -0.23616729548E+02  0.43400727664E+02  0.00000000000E+00 0. -1.
         11    1    3    3    0    0  0.22942064169E+00 -0.36982168440E+00  0.21082311735E+01  0.21526822458E+01  0.51100000000E-03 0. -1.
        -11    1    3    3    0    0 -0.30724675579E+02 -0.17897627544E+02  0.23628654895E+02  0.42692436023E+02  0.51100000000E-03 0.  1.
        -12    1    3    3    0    0 -0.16610933724E+01  0.11840505445E+01 -0.21201565207E+01  0.29421540674E+01  0.00000000000E+00 0.  1.
</event>
<event>
 7    1  0.2682317E-010  0.4778727E+02  0.7816164E-02  0.1312668E+00
        -11   -1    0    0    0    0  0.00000000000E+00  0.00000000000E+00  0.45593999997E+02  0.45594000000E+02  0.51100000000E-03 0.  1.
         11   -1    0    0    0    0 -0.00000000000E+00 -0.00000000000E+00 -0.45593999997E+02  0.45594000000E+02  0.51100000000E-03 0. -1.
    9900012    2    1    2    0    0 -0.26005874582E+02 -0.16668780842E+02  0.30487199348E+02  0.47787273144E+02  0.20000009572E+02 0.  0.
         12    1    1    2    0    0  0.26005874582E+02  0.16668780842E+02 -0.30487199348E+02  0.43400726856E+02  0.00000000000E+00 0. -1.
         11    1    3    3    0    0 -0.18903371046E+02 -0.17956393996E+01  0.13042809780E+02  0.23036419969E+02  0.51100000000E-03 0. -1.
        -11    1    3    3    0    0 -0.65606462536E+01 -0.69119682529E+01  0.85697380599E+01  0.12816309729E+02  0.51100000000E-03 0.  1.
        -12    1    3    3    0    0 -0.54185728239E+00 -0.79611731896E+01  0.88746515085E+01  0.11934543446E+02  0.00000000000E+00 0.  1.
</event>
<event>
 7    1  0.2682317E-010  0.4778725E+02  0.7816164E-02  0.1312668E+00
        -11   -1    0    0    0    0  0.00000000000E+00  0.00000000000E+00  0.45593999997E+02  0.45594000000E+02  0.51100000000E-03 0. -1.
         11   -1    0    0    0    0 -0.00000000000E+00 -0.00000000000E+00 -0.45593999997E+02  0.45594000000E+02  0.51100000000E-03 0.  1.
    9900012    2    1    2    0    0  0.28908161940E-01  0.24519261734E+02 -0.35811029155E+02  0.47787252993E+02  0.19999917694E+02 0.  0.
         12    1    1    2    0    0 -0.28908161940E-01 -0.24519261734E+02  0.35811029155E+02  0.43400747007E+02  0.00000000000E+00 0. -1.
         11    1    3    3    0    0 -0.10452380032E+01  0.16483218314E+02 -0.20619411328E+02  0.26418726923E+02  0.51100000000E-03 0.  1.
        -11    1    3    3    0    0  0.55766046981E+01  0.67194111804E+01 -0.47935742811E+01  0.99612931500E+01  0.51100000000E-03 0. -1.
         12    1    3    3    0    0 -0.45024585329E+01  0.13166322394E+01 -0.10398043546E+02  0.11407232919E+02  0.00000000000E+00 0. -1.
</event>
<event>
 7    1  0.2682317E-010  0.4778727E+02  0.7816164E-02  0.1312668E+00
        -11   -1    0    0    0    0  0.00000000000E+00  0.00000000000E+00  0.45593999997E+02  0.45594000000E+02  0.51100000000E-03 0.  1.
         11   -1    0    0    0    0 -0.00000000000E+00 -0.00000000000E+00 -0.45593999997E+02  0.45594000000E+02  0.51100000000E-03 0. -1.
    9900012    2    1    2    0    0  0.35913261794E+02 -0.70689159753E+01  0.23321473534E+02  0.47787273353E+02  0.20000010524E+02 0.  0.
         12    1    1    2    0    0 -0.35913261794E+02  0.70689159753E+01 -0.23321473534E+02  0.43400726647E+02  0.00000000000E+00 0. -1.
         11    1    3    3    0    0  0.41599302296E+01 -0.62366665236E+01  0.31059463462E+01  0.81146738572E+01  0.51100000000E-03 0. -1.
        -11    1    3    3    0    0  0.10903112901E+02  0.12161053526E+00  0.42870808172E+00  0.10912215675E+02  0.51100000000E-03 0.  1.
         12    1    3    3    0    0  0.20850218663E+02 -0.95385998696E+00  0.19786819106E+02  0.28760383820E+02  0.00000000000E+00 0. -1.
</event>
<event>
 7    1  0.2682317E-010  0.4778725E+02  0.7816164E-02  0.1312668E+00
        -11   -1    0    0    0    0  0.00000000000E+00  0.00000000000E+00  0.45593999997E+02  0.45594000000E+02  0.51100000000E-03 0. -1.
         11   -1    0    0    0    0 -0.00000000000E+00 -0.00000000000E+00 -0.45593999997E+02  0.45594000000E+02  0.51100000000E-03 0.  1.
    9900012    2    1    2    0    0 -0.21560845516E+02 -0.27105919933E+02 -0.26153856664E+02  0.47787249163E+02  0.19999900234E+02 0.  0.
         12    1    1    2    0    0  0.21560845516E+02  0.27105919933E+02  0.26153856664E+02  0.43400750837E+02  0.00000000000E+00 0. -1.
         11    1    3    3    0    0 -0.74059487423E+01 -0.30642332501E+01 -0.42047069841E+01  0.90508100890E+01  0.51100000000E-03 0. -1.
        -11    1    3    3    0    0 -0.17532614700E+00  0.78003189623E+00  0.15914478082E+01  0.17809815845E+01  0.51100000000E-03 0.  1.
        -12    1    3    3    0    0 -0.13979570627E+02 -0.24821718579E+02 -0.23540597488E+02  0.36955457489E+02  0.00000000000E+00 0.  1.
</event>
<event>
 7    1  0.2682317E-010  0.4778727E+02  0.7816164E-02  0.1312668E+00
        -11   -1    0    0    0    0  0.00000000000E+00  0.00000000000E+00  0.45593999997E+02  0.45594000000E+02  0.51100000000E-03 0.  1.
         11   -1    0    0    0    0 -0.00000000000E+00 -0.00000000000E+00 -0.45593999997E+02  0.45594000000E+02  0.51100000000E-03 0. -1.
    9900012    2    1    2    0    0  0.28140949674E+02  0.17490139947E+02  0.28032215800E+02  0.47787272280E+02  0.20000005635E+02 0.  0.
         12    1    1    2    0    0 -0.28140949674E+02 -0.17490139947E+02 -0.28032215800E+02  0.43400727720E+02  0.00000000000E+00 0. -1.
         11    1    3    3    0    0  0.13127876846E+02  0.99725345751E+01  0.90846326081E+01  0.18823473277E+02  0.51100000000E-03 0. -1.
        -11    1    3    3    0    0  0.17485826777E+02  0.49442653664E+01  0.17068130425E+02  0.24930322392E+02  0.51100000000E-03 0.  1.
        -12    1    3    3    0    0 -0.24727539482E+01  0.25733400060E+01  0.18794527661E+01  0.40334766113E+01  0.00000000000E+00 0.  1.
</event>
<event>
 7    1  0.2682317E-010  0.4778727E+02  0.7816164E-02  0.1312668E+00
        -11   -1    0    0    0    0  0.00000000000E+00  0.00000000000E+00  0.45593999997E+02  0.45594000000E+02  0.51100000000E-03 0. -1.
         11   -1    0    0    0    0 -0.00000000000E+00 -0.00000000000E+00 -0.45593999997E+02  0.45594000000E+02  0.51100000000E-03 0.  1.
    9900012    2    1    2    0    0  0.81522752523E+01 -0.42063010812E+02 -0.69185599760E+01  0.47787274862E+02  0.20000017404E+02 0.  0.
         12    1    1    2    0    0 -0.81522752523E+01  0.42063010812E+02  0.69185599760E+01  0.43400725138E+02  0.00000000000E+00 0. -1.
         11    1    3    3    0    0  0.33712378401E+00 -0.10581607022E+02 -0.30443460881E+01  0.11015993055E+02  0.51100000000E-03 0. -1.
        -11    1    3    3    0    0  0.23833285105E+01 -0.17634243656E+02 -0.10308524040E+02  0.20564835819E+02  0.51100000000E-03 0.  1.
         12    1    3    3    0    0  0.54318229577E+01 -0.13847160134E+02  0.64343101524E+01  0.16206445988E+02  0.00000000000E+00 0. -1.
</event>
<event>
 7    1  0.2682317E-010  0.4778727E+02  0.7816164E-02  0.1312668E+00
        -11   -1    0    0    0    0  0.00000000000E+00  0.00000000000E+00  0.45593999997E+02  0.45594000000E+02  0.51100000000E-03 0. -1.
         11   -1    0    0    0    0 -0.00000000000E+00 -0.00000000000E+00 -0.45593999997E+02  0.45594000000E+02  0.51100000000E-03 0.  1.
    9900012    2    1    2    0    0 -0.29085981510E+02  0.27243701808E+02 -0.17187481375E+02  0.47787272763E+02  0.20000007837E+02 0.  0.
         12    1    1    2    0    0  0.29085981510E+02 -0.27243701808E+02  0.17187481375E+02  0.43400727237E+02  0.00000000000E+00 0. -1.
         11    1    3    3    0    0 -0.14942768919E+02  0.68158740809E+01  0.95108107930E+00  0.16451353681E+02  0.51100000000E-03 0. -1.
        -11    1    3    3    0    0 -0.80584749779E+01  0.81101581677E+01 -0.55788276770E+01  0.12721517322E+02  0.51100000000E-03 0.  1.
         12    1    3    3    0    0 -0.60847376139E+01  0.12317669560E+02 -0.12559734778E+02  0.18614401760E+02  0.00000000000E+00 0. -1.
</event>
<event>
 7    1  0.2682317E-010  0.4778724E+02  0.7816164E-02  0.1312668E+00
        -11   -1    0    0    0    0  0.00000000000E+00  0.00000000000E+00  0.45593999997E+02  0.45594000000E+02  0.51100000000E-03 0.  1.
         11   -1    0    0    0    0 -0.00000000000E+00 -0.00000000000E+00 -0.45593999997E+02  0.45594000000E+02  0.51100000000E-03 0. -1.
    9900012    2    1    2    0    0 -0.10461359100E+02  0.25638216428E+02  0.33419567123E+02  0.47787243756E+02  0.19999875581E+02 0.  0.
         12    1    1    2    0    0  0.10461359100E+02 -0.25638216428E+02 -0.33419567123E+02  0.43400756244E+02  0.00000000000E+00 0. -1.
         11    1    3    3    0    0  0.15712253975E+01  0.57141367634E+01  0.16131567475E+02  0.17185679436E+02  0.51100000000E-03 0. -1.
        -11    1    3    3    0    0 -0.43778838269E+01  0.16021308163E+02  0.10475084805E+02  0.19636078631E+02  0.51100000000E-03 0.  1.
        -12    1    3    3    0    0 -0.76547006710E+01  0.39027715018E+01  0.68129148428E+01  0.10965485690E+02  0.00000000000E+00 0.  1.
</event>
<event>
 7    1  0.2682317E-010  0.4778727E+02  0.7816164E-02  0.1312668E+00
        -11   -1    0    0    0    0  0.00000000000E+00  0.00000000000E+00  0.45593999997E+02  0.45594000000E+02  0.51100000000E-03 0.  1.
         11   -1    0    0    0    0 -0.00000000000E+00 -0.00000000000E+00 -0.45593999997E+02  0.45594000000E+02  0.51100000000E-03 0. -1.
    9900012    2    1    2    0    0  0.40767351990E+02 -0.71482110869E+01  0.13059468103E+02  0.47787267089E+02  0.19999981967E+02 0.  0.
         12    1    1    2    0    0 -0.40767351990E+02  0.71482110869E+01 -0.13059468103E+02  0.43400732911E+02  0.00000000000E+00 0. -1.
         11    1    3    3    0    0  0.53190055643E+01  0.10270656196E+01  0.56578537220E+01  0.78331343012E+01  0.51100000000E-03 0. -1.
        -11    1    3    3    0    0  0.23364490603E+02 -0.16612423209E+01  0.10828103997E+02  0.25805173582E+02  0.51100000000E-03 0.  1.
         12    1    3    3    0    0  0.12083855823E+02 -0.65140343856E+01 -0.34264896151E+01  0.14148959206E+02  0.00000000000E+00 0. -1.
</event>
<event>
 7    1  0.2682317E-010  0.4778727E+02  0.7816164E-02  0.1312668E+00
        -11   -1    0    0    0    0  0.00000000000E+00  0.00000000000E+00  0.45593999997E+02  0.45594000000E+02  0.51100000000E-03 0.  1.
         11   -1    0    0    0    0 -0.00000000000E+00 -0.00000000000E+00 -0.45593999997E+02  0.45594000000E+02  0.51100000000E-03 0. -1.
    9900012    2    1    2    0    0 -0.64630847527E+00 -0.41778680707E+02 -0.11736589797E+02  0.47787269403E+02  0.19999992516E+02 0.  0.
         12    1    1    2    0    0  0.64630847527E+00  0.41778680707E+02  0.11736589797E+02  0.43400730597E+02  0.00000000000E+00 0. -1.
         11    1    3    3    0    0  0.20372810403E+01  0.59245077536E+00 -0.34734012910E+01  0.40701386644E+01  0.51100000000E-03 0. -1.
        -11    1    3    3    0    0  0.17378861539E+01 -0.22714948542E+02 -0.44828220874E+01  0.23218200397E+02  0.51100000000E-03 0.  1.
        -12    1    3    3    0    0 -0.44214756694E+01 -0.19656182941E+02 -0.37803664181E+01  0.20498930342E+02  0.00000000000E+00 0.  1.
</event>
<event>
 7    1  0.2682317E-010  0.4778727E+02  0.7816164E-02  0.1312668E+00
        -11   -1    0    0    0    0  0.00000000000E+00  0.00000000000E+00  0.45593999997E+02  0.45594000000E+02  0.51100000000E-03 0.  1.
         11   -1    0    0    0    0 -0.00000000000E+00 -0.00000000000E+00 -0.45593999997E+02  0.45594000000E+02  0.51100000000E-03 0. -1.
    9900012    2    1    2    0    0 -0.27618428251E+02 -0.57345889690E+01  0.32984243960E+02  0.47787269138E+02  0.19999991308E+02 0.  0.
         12    1    1    2    0    0  0.27618428251E+02  0.57345889690E+01 -0.32984243960E+02  0.43400730862E+02  0.00000000000E+00 0. -1.
         11    1    3    3    0    0 -0.78055858358E+00 -0.31281265288E+01  0.21966892879E+01  0.39012679185E+01  0.51100000000E-03 0. -1.
        -11    1    3    3    0    0 -0.25328296583E+02 -0.52866486956E+01  0.31464028810E+02  0.40736425610E+02  0.51100000000E-03 0.  1.
         12    1    3    3    0    0 -0.15095730853E+01  0.26801862555E+01 -0.67647413783E+00  0.31495756100E+01  0.00000000000E+00 0. -1.
</event>
<event>
 7    1  0.2682317E-010  0.4778727E+02  0.7816164E-02  0.1312668E+00
        -11   -1    0    0    0    0  0.00000000000E+00  0.00000000000E+00  0.45593999997E+02  0.45594000000E+02  0.51100000000E-03 0.  1.
         11   -1    0    0    0    0 -0.00000000000E+00 -0.00000000000E+00 -0.45593999997E+02  0.45594000000E+02  0.51100000000E-03 0. -1.
    9900012    2    1    2    0    0  0.35436554570E+02 -0.20124394638E+02  0.14929266829E+02  0.47787266511E+02  0.19999979330E+02 0.  0.
         12    1    1    2    0    0 -0.35436554570E+02  0.20124394638E+02 -0.14929266829E+02  0.43400733489E+02  0.00000000000E+00 0. -1.
         11    1    3    3    0    0  0.13839783710E+02 -0.72245207654E+00 -0.10476998340E+01  0.13898173453E+02  0.51100000000E-03 0. -1.
        -11    1    3    3    0    0  0.67583227589E+01 -0.22098626766E+01  0.28675851274E+01  0.76669070874E+01  0.51100000000E-03 0.  1.
        -12    1    3    3    0    0  0.14838448102E+02 -0.17192079885E+02  0.13109381535E+02  0.26222185970E+02  0.00000000000E+00 0.  1.
</event>
<event>
 7    1  0.2682317E-010  0.4778727E+02  0.7816164E-02  0.1312668E+00
        -11   -1    0    0    0    0  0.00000000000E+00  0.00000000000E+00  0.45593999997E+02  0.45594000000E+02  0.51100000000E-03 0.  1.
         11   -1    0    0    0    0 -0.00000000000E+00 -0.00000000000E+00 -0.45593999997E+02  0.45594000000E+02  0.51100000000E-03 0. -1.
    9900012    2    1    2    0    0 -0.21021506644E+02  0.80844878354E+01  0.37099331512E+02  0.47787273235E+02  0.20000009987E+02 0.  0.
         12    1    1    2    0    0  0.21021506644E+02 -0.80844878354E+01 -0.37099331512E+02  0.43400726765E+02  0.00000000000E+00 0. -1.
         11    1    3    3    0    0 -0.42435362985E+01 -0.57243509840E+01  0.87284055503E+01  0.11267690900E+02  0.51100000000E-03 0. -1.
        -11    1    3    3    0    0 -0.77153728148E+01  0.26691826681E+01  0.13980146279E+02  0.16189379359E+02  0.51100000000E-03 0.  1.
         12    1    3    3    0    0 -0.90625975307E+01  0.11139656151E+02  0.14390779682E+02  0.20330202976E+02  0.00000000000E+00 0. -1.
</event>
<event>
 7    1  0.2682317E-010  0.4778726E+02  0.7816164E-02  0.1312668E+00
        -11   -1    0    0    0    0  0.00000000000E+00  0.00000000000E+00  0.45593999997E+02  0.45594000000E+02  0.51100000000E-03 0. -1.
         11   -1    0    0    0    0 -0.00000000000E+00 -0.00000000000E+00 -0.45593999997E+02  0.45594000000E+02  0.51100000000E-03 0.  1.
    9900012    2    1    2    0    0  0.11119540367E+02  0.28634893343E+02 -0.30659795058E+02  0.47787258903E+02  0.19999944643E+02 0.  0.
         12    1    1    2    0    0 -0.11119540367E+02 -0.28634893343E+02  0.30659795058E+02  0.43400741097E+02  0.00000000000E+00 0. -1.
         11    1    3    3    0    0  0.34386565147E+01  0.36577330492E+01 -0.25081947580E+01  0.56119881406E+01  0.51100000000E-03 0. -1.
        -11    1    3    3    0    0 -0.39392950808E+01  0.12411807338E+02 -0.18195849272E+02  0.22375431574E+02  0.51100000000E-03 0.  1.
        -12    1    3    3    0    0  0.11620178934E+02  0.12565352956E+02 -0.99557510282E+01  0.19799839188E+02  0.00000000000E+00 0.  1.
</event>
<event>
 7    1  0.2682317E-010  0.4778727E+02  0.7816164E-02  0.1312668E+00
        -11   -1    0    0    0    0  0.00000000000E+00  0.00000000000E+00  0.45593999997E+02  0.45594000000E+02  0.51100000000E-03 0.  1.
         11   -1    0    0    0    0 -0.00000000000E+00 -0.00000000000E+00 -0.45593999997E+02  0.45594000000E+02  0.51100000000E-03 0. -1.
    9900012    2    1    2    0    0 -0.44829916692E+01 -0.22606450936E+02  0.36776003674E+02  0.47787270923E+02  0.19999999445E+02 0.  0.
         12    1    1    2    0    0  0.44829916692E+01  0.22606450936E+02 -0.36776003674E+02  0.43400729077E+02  0.00000000000E+00 0. -1.
         11    1    3    3    0    0 -0.50805480631E+01 -0.22038788646E+01  0.28496894032E+01  0.62281442362E+01  0.51100000000E-03 0. -1.
        -11    1    3    3    0    0 -0.47877969752E+01 -0.45167615924E+01  0.14295418566E+02  0.15737951817E+02  0.51100000000E-03 0.  1.
        -12    1    3    3    0    0  0.53853533691E+01 -0.15885810479E+02  0.19630895705E+02  0.25821174869E+02  0.00000000000E+00 0.  1.
</event>
<event>
 7    1  0.2682317E-010  0.4778727E+02  0.7816164E-02  0.1312668E+00
        -11   -1    0    0    0    0  0.00000000000E+00  0.00000000000E+00  0.45593999997E+02  0.45594000000E+02  0.51100000000E-03 0.  1.
         11   -1    0    0    0    0 -0.00000000000E+00 -0.00000000000E+00 -0.45593999997E+02  0.45594000000E+02  0.51100000000E-03 0. -1.
    9900012    2    1    2    0    0 -0.39820071604E+01 -0.96941991419E+01  0.42116379729E+02  0.47787270519E+02  0.19999997605E+02 0.  0.
         12    1    1    2    0    0  0.39820071604E+01  0.96941991419E+01 -0.42116379729E+02  0.43400729481E+02  0.00000000000E+00 0. -1.
         11    1    3    3    0    0 -0.25186878924E+00 -0.48527619299E+01  0.18906087626E+01  0.52141286894E+01  0.51100000000E-03 0. -1.
        -11    1    3    3    0    0 -0.67602270674E+01 -0.44010126133E+01  0.13909159027E+02  0.16079001434E+02  0.51100000000E-03 0.  1.
         12    1    3    3    0    0  0.30300886963E+01 -0.44042459873E+00  0.26316611939E+02  0.26494140395E+02  0.00000000000E+00 0. -1.
</event>
<event>
 7    1  0.2682317E-010  0.4778727E+02  0.7816164E-02  0.1312668E+00
        -11   -1    0    0    0    0  0.00000000000E+00  0.00000000000E+00  0.45593999997E+02  0.45594000000E+02  0.51100000000E-03 0.  1.
         11   -1    0    0    0    0 -0.00000000000E+00 -0.00000000000E+00 -0.45593999997E+02  0.45594000000E+02  0.51100000000E-03 0. -1.
    9900012    2    1    2    0    0 -0.17469425948E+02  0.39537731234E+02  0.39000538744E+01  0.47787268965E+02  0.19999990521E+02 0.  0.
         12    1    1    2    0    0  0.17469425948E+02 -0.39537731234E+02 -0.39000538744E+01  0.43400731035E+02  0.00000000000E+00 0. -1.
         11    1    3    3    0    0 -0.59536642493E+01  0.75648453060E+01 -0.49375024135E+01  0.10819054157E+02  0.51100000000E-03 0. -1.
        -11    1    3    3    0    0 -0.25734150104E+01  0.77374567355E+01 -0.28186902675E+01  0.86276136118E+01  0.51100000000E-03 0.  1.
        -12    1    3    3    0    0 -0.89423466885E+01  0.24235429193E+02  0.11656246555E+02  0.28340601197E+02  0.00000000000E+00 0.  1.
</event>
<event>
 7    1  0.2682317E-010  0.4778727E+02  0.7816164E-02  0.1312668E+00
        -11   -1    0    0    0    0  0.00000000000E+00  0.00000000000E+00  0.45593999997E+02  0.45594000000E+02  0.51100000000E-03 0. -1.
         11   -1    0    0    0    0 -0.00000000000E+00 -0.00000000000E+00 -0.45593999997E+02  0.45594000000E+02  0.51100000000E-03 0.  1.
    9900012    2    1    2    0    0 -0.28966387860E+02 -0.30361068162E+02 -0.11080503862E+02  0.47787266695E+02  0.19999980170E+02 0.  0.
         12    1    1    2    0    0  0.28966387860E+02  0.30361068162E+02  0.11080503862E+02  0.43400733305E+02  0.00000000000E+00 0. -1.
         11    1    3    3    0    0 -0.57743973783E+00 -0.48351485993E+01  0.15838708492E+01  0.51206196653E+01  0.51100000000E-03 0. -1.
        -11    1    3    3    0    0 -0.13298206823E+02 -0.19463518797E+02 -0.30364389136E+01  0.23767432133E+02  0.51100000000E-03 0.  1.
         12    1    3    3    0    0 -0.15090741299E+02 -0.60624007656E+01 -0.96279357977E+01  0.18899214897E+02  0.00000000000E+00 0. -1.
</event>
<event>
 7    1  0.2682317E-010  0.4778726E+02  0.7816164E-02  0.1312668E+00
        -11   -1    0    0    0    0  0.00000000000E+00  0.00000000000E+00  0.45593999997E+02  0.45594000000E+02  0.51100000000E-03 0. -1.
         11   -1    0    0    0    0 -0.00000000000E+00 -0.00000000000E+00 -0.45593999997E+02  0.45594000000E+02  0.51100000000E-03 0.  1.
    9900012    2    1    2    0    0 -0.54373461529E+01  0.40327937754E+02  0.15090289592E+02  0.47787261105E+02  0.19999954682E+02 0.  0.
         12    1    1    2    0    0  0.54373461529E+01 -0.40327937754E+02 -0.15090289592E+02  0.43400738895E+02  0.00000000000E+00 0. -1.
         11    1    3    3    0    0 -0.45859336091E+01  0.13169341008E+02  0.80151879692E+01  0.16084326784E+02  0.51100000000E-03 0. -1.
        -11    1    3    3    0    0 -0.17389687361E+01  0.42417254901E+01  0.74710849692E+01  0.87654639510E+01  0.51100000000E-03 0.  1.
        -12    1    3    3    0    0  0.88755619242E+00  0.22916871256E+02 -0.39598334657E+00  0.22937470370E+02  0.00000000000E+00 0.  1.
</event>
<event>
 7    1  0.2682317E-010  0.4778725E+02  0.7816164E-02  0.1312668E+00
        -11   -1    0    0    0    0  0.00000000000E+00  0.00000000000E+00  0.45593999997E+02  0.45594000000E+02  0.51100000000E-03 0. -1.
         11   -1    0    0    0    0 -0.00000000000E+00 -0.00000000000E+00 -0.45593999997E+02  0.45594000000E+02  0.51100000000E-03 0.  1.
    9900012    2    1    2    0    0 -0.10143224858E+02  0.56426989217E+01 -0.41819848027E+02  0.47787254032E+02  0.19999922432E+02 0.  0.
         12    1    1    2    0    0  0.10143224858E+02 -0.56426989217E+01  0.41819848027E+02  0.43400745968E+02  0.00000000000E+00 0. -1.
         11    1    3    3    0    0 -0.10336173384E+02  0.82333450256E+01 -0.27336499945E+02  0.30362949133E+02  0.51100000000E-03 0. -1.
        -11    1    3    3    0    0 -0.95039603343E+00  0.32143831360E+01 -0.29644324923E+01  0.44747482419E+01  0.51100000000E-03 0.  1.
        -12    1    3    3    0    0  0.11433445591E+01 -0.58050292400E+01 -0.11518915589E+02  0.12949556657E+02  0.00000000000E+00 0.  1.
</event>
<event>
 7    1  0.2682317E-010  0.4778727E+02  0.7816164E-02  0.1312668E+00
        -11   -1    0    0    0    0  0.00000000000E+00  0.00000000000E+00  0.45593999997E+02  0.45594000000E+02  0.51100000000E-03 0. -1.
         11   -1    0    0    0    0 -0.00000000000E+00 -0.00000000000E+00 -0.45593999997E+02  0.45594000000E+02  0.51100000000E-03 0.  1.
    9900012    2    1    2    0    0 -0.13869492829E+02 -0.22530003291E+01 -0.41063178333E+02  0.47787268939E+02  0.19999990398E+02 0.  0.
         12    1    1    2    0    0  0.13869492829E+02  0.22530003291E+01  0.41063178333E+02  0.43400731061E+02  0.00000000000E+00 0. -1.
         11    1    3    3    0    0 -0.11258280402E+01  0.48591861118E+01 -0.23189436241E+01  0.55006070791E+01  0.51100000000E-03 0. -1.
        -11    1    3    3    0    0 -0.20351431592E+01 -0.32334190384E+01 -0.19935912898E+02  0.20298705123E+02  0.51100000000E-03 0.  1.
        -12    1    3    3    0    0 -0.10708521630E+02 -0.38787674025E+01 -0.18808321812E+02  0.21987956736E+02  0.00000000000E+00 0.  1.
</event>
<event>
 7    1  0.2682317E-010  0.4778727E+02  0.7816164E-02  0.1312668E+00
        -11   -1    0    0    0    0  0.00000000000E+00  0.00000000000E+00  0.45593999997E+02  0.45594000000E+02  0.51100000000E-03 0.  1.
         11   -1    0    0    0    0 -0.00000000000E+00 -0.00000000000E+00 -0.45593999997E+02  0.45594000000E+02  0.51100000000E-03 0. -1.
    9900012    2    1    2    0    0  0.18926647848E+02 -0.27318587687E+02  0.27912365172E+02  0.47787270035E+02  0.19999995398E+02 0.  0.
         12    1    1    2    0    0 -0.18926647848E+02  0.27318587687E+02 -0.27912365172E+02  0.43400729965E+02  0.00000000000E+00 0. -1.
         11    1    3    3    0    0  0.65278739767E+01 -0.62435264862E+01  0.13705122903E+02  0.16414175450E+02  0.51100000000E-03 0. -1.
        -11    1    3    3    0    0  0.11886310529E+02 -0.18192967647E+02  0.16795562888E+02  0.27465603631E+02  0.51100000000E-03 0.  1.
        -12    1    3    3    0    0  0.51246334196E+00 -0.28820935536E+01 -0.25883206196E+01  0.39074909544E+01  0.00000000000E+00 0.  1.
</event>
<event>
 7    1  0.2682317E-010  0.4778723E+02  0.7816164E-02  0.1312668E+00
        -11   -1    0    0    0    0  0.00000000000E+00  0.00000000000E+00  0.45593999997E+02  0.45594000000E+02  0.51100000000E-03 0.  1.
         11   -1    0    0    0    0 -0.00000000000E+00 -0.00000000000E+00 -0.45593999997E+02  0.45594000000E+02  0.51100000000E-03 0. -1.
    9900012    2    1    2    0    0  0.50486594276E+01  0.79473138523E+01  0.42367182691E+02  0.47787228940E+02  0.19999808026E+02 0.  0.
         12    1    1    2    0    0 -0.50486594276E+01 -0.79473138523E+01 -0.42367182691E+02  0.43400771060E+02  0.00000000000E+00 0. -1.
         11    1    3    3    0    0 -0.12175709330E+01 -0.46426447081E+01  0.35840705885E+01  0.59901745474E+01  0.51100000000E-03 0. -1.
        -11    1    3    3    0    0  0.42234048563E+01  0.20713319225E+01  0.91931024435E+01  0.10326698277E+02  0.51100000000E-03 0.  1.
        -12    1    3    3    0    0  0.20428255044E+01  0.10518626638E+02  0.29590009659E+02  0.31470356115E+02  0.00000000000E+00 0.  1.
</event>
<event>
 7    1  0.2682317E-010  0.4778727E+02  0.7816164E-02  0.1312668E+00
        -11   -1    0    0    0    0  0.00000000000E+00  0.00000000000E+00  0.45593999997E+02  0.45594000000E+02  0.51100000000E-03 0.  1.
         11   -1    0    0    0    0 -0.00000000000E+00 -0.00000000000E+00 -0.45593999997E+02  0.45594000000E+02  0.51100000000E-03 0. -1.
    9900012    2    1    2    0    0 -0.20339633849E+02 -0.16641053232E+02  0.34539805547E+02  0.47787268152E+02  0.19999986810E+02 0.  0.
         12    1    1    2    0    0  0.20339633849E+02  0.16641053232E+02 -0.34539805547E+02  0.43400731848E+02  0.00000000000E+00 0. -1.
         11    1    3    3    0    0  0.30085696544E+01 -0.18986672124E+00  0.79248828070E+01  0.84788742474E+01  0.51100000000E-03 0. -1.
        -11    1    3    3    0    0 -0.71332927990E+01 -0.66038105486E+01  0.11459396738E+02  0.15027040753E+02  0.51100000000E-03 0.  1.
         12    1    3    3    0    0 -0.16214910704E+02 -0.98473759622E+01  0.15155526002E+02  0.24281353152E+02  0.00000000000E+00 0. -1.
</event>
<event>
 7    1  0.2682317E-010  0.4778727E+02  0.7816164E-02  0.1312668E+00
        -11   -1    0    0    0    0  0.00000000000E+00  0.00000000000E+00  0.45593999997E+02  0.45594000000E+02  0.51100000000E-03 0. -1.
         11   -1    0    0    0    0 -0.00000000000E+00 -0.00000000000E+00 -0.45593999997E+02  0.45594000000E+02  0.51100000000E-03 0.  1.
    9900012    2    1    2    0    0  0.80268347847E+01 -0.27624866147E+02 -0.32497076761E+02  0.47787270694E+02  0.19999998401E+02 0.  0.
         12    1    1    2    0    0 -0.80268347847E+01  0.27624866147E+02  0.32497076761E+02  0.43400729306E+02  0.00000000000E+00 0. -1.
         11    1    3    3    0    0  0.94611729073E+00 -0.10306507447E+02 -0.20215511707E+02  0.22710925730E+02  0.51100000000E-03 0. -1.
        -11    1    3    3    0    0  0.77783883428E+01 -0.68898824941E+01 -0.99096553598E+01  0.14358797847E+02  0.51100000000E-03 0.  1.
         12    1    3    3    0    0 -0.69767084882E+00 -0.10428476207E+02 -0.23719096937E+01  0.10717547117E+02  0.00000000000E+00 0. -1.
</event>
<event>
 7    1  0.2682317E-010  0.4778727E+02  0.7816164E-02  0.1312668E+00
        -11   -1    0    0    0    0  0.00000000000E+00  0.00000000000E+00  0.45593999997E+02  0.45594000000E+02  0.51100000000E-03 0.  1.
         11   -1    0    0    0    0 -0.00000000000E+00 -0.00000000000E+00 -0.45593999997E+02  0.45594000000E+02  0.51100000000E-03 0. -1.
    9900012    2    1    2    0    0  0.43361730652E+02  0.12471491728E+01 -0.13520734615E+01  0.47787272254E+02  0.20000005516E+02 0.  0.
         12    1    1    2    0    0 -0.43361730652E+02 -0.12471491728E+01  0.13520734615E+01  0.43400727746E+02  0.00000000000E+00 0. -1.
         11    1    3    3    0    0  0.25843482042E+02 -0.32447557361E+01  0.26591808182E+00  0.26047739183E+02  0.51100000000E-03 0. -1.
        -11    1    3    3    0    0  0.18618330839E+02  0.42854970283E+01 -0.36207357040E+01  0.19445242485E+02  0.51100000000E-03 0.  1.
        -12    1    3    3    0    0 -0.11000822286E+01  0.20640788065E+00  0.20027441607E+01  0.22942905867E+01  0.00000000000E+00 0.  1.
</event>
<event>
 7    1  0.2682317E-010  0.4778727E+02  0.7816164E-02  0.1312668E+00
        -11   -1    0    0    0    0  0.00000000000E+00  0.00000000000E+00  0.45593999997E+02  0.45594000000E+02  0.51100000000E-03 0. -1.
         11   -1    0    0    0    0 -0.00000000000E+00 -0.00000000000E+00 -0.45593999997E+02  0.45594000000E+02  0.51100000000E-03 0.  1.
    9900012    2    1    2    0    0  0.40456148935E+01  0.38880343429E+02 -0.18856692749E+02  0.47787274586E+02  0.20000016148E+02 0.  0.
         12    1    1    2    0    0 -0.40456148935E+01 -0.38880343429E+02  0.18856692749E+02  0.43400725414E+02  0.00000000000E+00 0. -1.
         11    1    3    3    0    0 -0.19284633992E+01  0.58406571066E+00 -0.42771569748E+01  0.47280202923E+01  0.51100000000E-03 0. -1.
        -11    1    3    3    0    0  0.20214254150E+01  0.20643552423E+02 -0.13876127545E+02  0.24955747500E+02  0.51100000000E-03 0.  1.
         12    1    3    3    0    0  0.39526528777E+01  0.17652725295E+02 -0.70340822919E+00  0.18103506794E+02  0.00000000000E+00 0. -1.
</event>
<event>
 7    1  0.2682317E-010  0.4778727E+02  0.7816164E-02  0.1312668E+00
        -11   -1    0    0    0    0  0.00000000000E+00  0.00000000000E+00  0.45593999997E+02  0.45594000000E+02  0.51100000000E-03 0. -1.
         11   -1    0    0    0    0 -0.00000000000E+00 -0.00000000000E+00 -0.45593999997E+02  0.45594000000E+02  0.51100000000E-03 0.  1.
    9900012    2    1    2    0    0 -0.54004573777E+01  0.38757843814E+02 -0.18769329588E+02  0.47787272700E+02  0.20000007549E+02 0.  0.
         12    1    1    2    0    0  0.54004573777E+01 -0.38757843814E+02  0.18769329588E+02  0.43400727300E+02  0.00000000000E+00 0. -1.
         11    1    3    3    0    0  0.26988036093E+00  0.99136613187E+01  0.12109504690E+01  0.99909918151E+01  0.51100000000E-03 0. -1.
        -11    1    3    3    0    0  0.49519328994E+00  0.20485456877E+02 -0.81481136172E+01  0.22052004798E+02  0.51100000000E-03 0.  1.
         12    1    3    3    0    0 -0.61655310286E+01  0.83587256182E+01 -0.11832166440E+02  0.15744276087E+02  0.00000000000E+00 0. -1.
</event>
<event>
 7    1  0.2682317E-010  0.4778728E+02  0.7816164E-02  0.1312668E+00
        -11   -1    0    0    0    0  0.00000000000E+00  0.00000000000E+00  0.45593999997E+02  0.45594000000E+02  0.51100000000E-03 0.  1.
         11   -1    0    0    0    0 -0.00000000000E+00 -0.00000000000E+00 -0.45593999997E+02  0.45594000000E+02  0.51100000000E-03 0. -1.
    9900012    2    1    2    0    0  0.25675482333E+01 -0.29779864843E+02  0.31467288802E+02  0.47787275138E+02  0.20000018666E+02 0.  0.
         12    1    1    2    0    0 -0.25675482333E+01  0.29779864843E+02 -0.31467288802E+02  0.43400724862E+02  0.00000000000E+00 0. -1.
         11    1    3    3    0    0 -0.24934153878E+01 -0.70709953167E-01  0.15598609476E+01  0.29419868508E+01  0.51100000000E-03 0. -1.
        -11    1    3    3    0    0 -0.49889465289E+00 -0.13516056779E+02  0.45912931697E+01  0.14283300037E+02  0.51100000000E-03 0.  1.
         12    1    3    3    0    0  0.55598582740E+01 -0.16193098111E+02  0.25316134684E+02  0.30561988250E+02  0.00000000000E+00 0. -1.
</event>
<event>
 7    1  0.2682317E-010  0.4778727E+02  0.7816164E-02  0.1312668E+00
        -11   -1    0    0    0    0  0.00000000000E+00  0.00000000000E+00  0.45593999997E+02  0.45594000000E+02  0.51100000000E-03 0.  1.
         11   -1    0    0    0    0 -0.00000000000E+00 -0.00000000000E+00 -0.45593999997E+02  0.45594000000E+02  0.51100000000E-03 0. -1.
    9900012    2    1    2    0    0  0.19868107919E+02  0.28637994019E+02  0.25860139865E+02  0.47787271348E+02  0.20000001383E+02 0.  0.
         12    1    1    2    0    0 -0.19868107919E+02 -0.28637994019E+02 -0.25860139865E+02  0.43400728652E+02  0.00000000000E+00 0. -1.
         11    1    3    3    0    0  0.60074992548E+01  0.49346170756E+01  0.14536405500E+02  0.16484768063E+02  0.51100000000E-03 0. -1.
        -11    1    3    3    0    0  0.13644514135E+01  0.86082988240E+01  0.71343866143E+01  0.11263392425E+02  0.51100000000E-03 0.  1.
        -12    1    3    3    0    0  0.12496157250E+02  0.15095078119E+02  0.41893477508E+01  0.20039110859E+02  0.00000000000E+00 0.  1.
</event>
<event>
 7    1  0.2682317E-010  0.4778724E+02  0.7816164E-02  0.1312668E+00
        -11   -1    0    0    0    0  0.00000000000E+00  0.00000000000E+00  0.45593999997E+02  0.45594000000E+02  0.51100000000E-03 0.  1.
         11   -1    0    0    0    0 -0.00000000000E+00 -0.00000000000E+00 -0.45593999997E+02  0.45594000000E+02  0.51100000000E-03 0. -1.
    9900012    2    1    2    0    0  0.30142615980E+02 -0.20576765709E+02  0.23487133470E+02  0.47787239364E+02  0.19999855556E+02 0.  0.
         12    1    1    2    0    0 -0.30142615980E+02  0.20576765709E+02 -0.23487133470E+02  0.43400760636E+02  0.00000000000E+00 0. -1.
         11    1    3    3    0    0  0.78497520476E+01 -0.45035457663E+01  0.44910960673E+01  0.10102993409E+02  0.51100000000E-03 0. -1.
        -11    1    3    3    0    0  0.17630759200E+02 -0.21391938894E+01  0.89746845076E+01  0.19898863855E+02  0.51100000000E-03 0.  1.
        -12    1    3    3    0    0  0.46621047323E+01 -0.13934026054E+02  0.10021352895E+02  0.17785382100E+02  0.00000000000E+00 0.  1.
</event>
<event>
 7    1  0.2682317E-010  0.4778727E+02  0.7816164E-02  0.1312668E+00
        -11   -1    0    0    0    0  0.00000000000E+00  0.00000000000E+00  0.45593999997E+02  0.45594000000E+02  0.51100000000E-03 0. -1.
         11   -1    0    0    0    0 -0.00000000000E+00 -0.00000000000E+00 -0.45593999997E+02  0.45594000000E+02  0.51100000000E-03 0.  1.
    9900012    2    1    2    0    0 -0.21487778360E+02 -0.37567226027E+02  0.32561332462E+01  0.47787268509E+02  0.19999988441E+02 0.  0.
         12    1    1    2    0    0  0.21487778360E+02  0.37567226027E+02 -0.32561332462E+01  0.43400731491E+02  0.00000000000E+00 0. -1.
         11    1    3    3    0    0 -0.93805784186E+01 -0.16096597411E+02 -0.33517946517E+01  0.18929612445E+02  0.51100000000E-03 0.  1.
        -11    1    3    3    0    0 -0.14522874318E+02 -0.15028174841E+02  0.30770719113E+01  0.21124116297E+02  0.51100000000E-03 0. -1.
        -12    1    3    3    0    0  0.24156743764E+01 -0.64424537750E+01  0.35308559866E+01  0.77335397674E+01  0.00000000000E+00 0.  1.
</event>
<event>
 7    1  0.2682317E-010  0.4778728E+02  0.7816164E-02  0.1312668E+00
        -11   -1    0    0    0    0  0.00000000000E+00  0.00000000000E+00  0.45593999997E+02  0.45594000000E+02  0.51100000000E-03 0. -1.
         11   -1    0    0    0    0 -0.00000000000E+00 -0.00000000000E+00 -0.45593999997E+02  0.45594000000E+02  0.51100000000E-03 0.  1.
    9900012    2    1    2    0    0 -0.18586297718E+02  0.39112558741E+02 -0.28948294236E+01  0.47787277062E+02  0.20000027438E+02 0.  0.
         12    1    1    2    0    0  0.18586297718E+02 -0.39112558741E+02  0.28948294236E+01  0.43400722938E+02  0.00000000000E+00 0. -1.
         11    1    3    3    0    0 -0.23490805479E+01  0.27230878941E+01  0.31050666200E+01  0.47512973045E+01  0.51100000000E-03 0. -1.
        -11    1    3    3    0    0 -0.75825471538E+01  0.28704301403E+02  0.63325270184E+00  0.29695672237E+02  0.51100000000E-03 0.  1.
        -12    1    3    3    0    0 -0.86546700165E+01  0.76851694437E+01 -0.66331487455E+01  0.13340307521E+02  0.00000000000E+00 0.  1.
</event>
<event>
 7    1  0.2682317E-010  0.4778727E+02  0.7816164E-02  0.1312668E+00
        -11   -1    0    0    0    0  0.00000000000E+00  0.00000000000E+00  0.45593999997E+02  0.45594000000E+02  0.51100000000E-03 0. -1.
         11   -1    0    0    0    0 -0.00000000000E+00 -0.00000000000E+00 -0.45593999997E+02  0.45594000000E+02  0.51100000000E-03 0.  1.
    9900012    2    1    2    0    0 -0.18814831156E+02 -0.14274574953E+02 -0.36412393217E+02  0.47787265660E+02  0.19999975449E+02 0.  0.
         12    1    1    2    0    0  0.18814831156E+02  0.14274574953E+02  0.36412393217E+02  0.43400734340E+02  0.00000000000E+00 0. -1.
         11    1    3    3    0    0 -0.94008640708E+01 -0.84805927679E+01 -0.13051377950E+02  0.18183376079E+02  0.51100000000E-03 0. -1.
        -11    1    3    3    0    0 -0.89234886451E-01 -0.82900409980E+01 -0.13208674615E+02  0.15594929559E+02  0.51100000000E-03 0.  1.
         12    1    3    3    0    0 -0.93247321986E+01  0.24960588133E+01 -0.10152340652E+02  0.14008960022E+02  0.00000000000E+00 0. -1.
</event>
<event>
 7    1  0.2682317E-010  0.4778727E+02  0.7816164E-02  0.1312668E+00
        -11   -1    0    0    0    0  0.00000000000E+00  0.00000000000E+00  0.45593999997E+02  0.45594000000E+02  0.51100000000E-03 0.  1.
         11   -1    0    0    0    0 -0.00000000000E+00 -0.00000000000E+00 -0.45593999997E+02  0.45594000000E+02  0.51100000000E-03 0. -1.
    9900012    2    1    2    0    0 -0.18884149081E+02  0.30274594819E+02  0.24707510294E+02  0.47787271401E+02  0.20000001626E+02 0.  0.
         12    1    1    2    0    0  0.18884149081E+02 -0.30274594819E+02 -0.24707510294E+02  0.43400728599E+02  0.00000000000E+00 0. -1.
         11    1    3    3    0    0 -0.33278226622E+01  0.46236975920E+01  0.10515451505E+02  0.11959419037E+02  0.51100000000E-03 0. -1.
        -11    1    3    3    0    0 -0.62112336509E+01  0.70161884646E+00  0.24691791857E+01  0.67207543165E+01  0.51100000000E-03 0.  1.
         12    1    3    3    0    0 -0.93450927678E+01  0.24949278381E+02  0.11722879604E+02  0.29107098048E+02  0.00000000000E+00 0. -1.
</event>
<event>
 7    1  0.2682317E-010  0.4778727E+02  0.7816164E-02  0.1312668E+00
        -11   -1    0    0    0    0  0.00000000000E+00  0.00000000000E+00  0.45593999997E+02  0.45594000000E+02  0.51100000000E-03 0.  1.
         11   -1    0    0    0    0 -0.00000000000E+00 -0.00000000000E+00 -0.45593999997E+02  0.45594000000E+02  0.51100000000E-03 0. -1.
    9900012    2    1    2    0    0  0.72543918551E+01 -0.74038952529E+01  0.42144741299E+02  0.47787273217E+02  0.20000009905E+02 0.  0.
         12    1    1    2    0    0 -0.72543918551E+01  0.74038952529E+01 -0.42144741299E+02  0.43400726783E+02  0.00000000000E+00 0. -1.
         11    1    3    3    0    0  0.38400364077E+01 -0.51292547158E+01  0.54686400635E+01  0.84238446067E+01  0.51100000000E-03 0. -1.
        -11    1    3    3    0    0 -0.51319869575E+01 -0.14434635905E+01  0.98991360831E+01  0.11243387956E+02  0.51100000000E-03 0.  1.
         12    1    3    3    0    0  0.85463424049E+01 -0.83117694661E+00  0.26776965153E+02  0.28120040655E+02  0.00000000000E+00 0. -1.
</event>
<event>
 7    1  0.2682317E-010  0.4778727E+02  0.7816164E-02  0.1312668E+00
        -11   -1    0    0    0    0  0.00000000000E+00  0.00000000000E+00  0.45593999997E+02  0.45594000000E+02  0.51100000000E-03 0.  1.
         11   -1    0    0    0    0 -0.00000000000E+00 -0.00000000000E+00 -0.45593999997E+02  0.45594000000E+02  0.51100000000E-03 0. -1.
    9900012    2    1    2    0    0 -0.39176835936E+02 -0.17610252590E+02  0.62191409705E+01  0.47787272073E+02  0.20000004688E+02 0.  0.
         12    1    1    2    0    0  0.39176835936E+02  0.17610252590E+02 -0.62191409705E+01  0.43400727927E+02  0.00000000000E+00 0. -1.
         11    1    3    3    0    0 -0.44510709975E+01  0.10664140941E+01 -0.99293168794E+00  0.46835014298E+01  0.51100000000E-03 0. -1.
        -11    1    3    3    0    0 -0.40734308082E+01 -0.20609410625E+01 -0.44142575089E+01  0.63502745003E+01  0.51100000000E-03 0.  1.
        -12    1    3    3    0    0 -0.30652334130E+02 -0.16615725622E+02  0.11626330167E+02  0.36753496143E+02  0.00000000000E+00 0.  1.
</event>
<event>
 7    1  0.2682317E-010  0.4778728E+02  0.7816164E-02  0.1312668E+00
        -11   -1    0    0    0    0  0.00000000000E+00  0.00000000000E+00  0.45593999997E+02  0.45594000000E+02  0.51100000000E-03 0.  1.
         11   -1    0    0    0    0 -0.00000000000E+00 -0.00000000000E+00 -0.45593999997E+02  0.45594000000E+02  0.51100000000E-03 0. -1.
    9900012    2    1    2    0    0 -0.16082315960E+02 -0.39666967479E+01  0.40115424846E+02  0.47787275578E+02  0.20000020671E+02 0.  0.
         12    1    1    2    0    0  0.16082315960E+02  0.39666967479E+01 -0.40115424846E+02  0.43400724422E+02  0.00000000000E+00 0. -1.
         11    1    3    3    0    0 -0.42252107258E+01  0.25176495532E+01  0.46669842473E+01  0.67802438876E+01  0.51100000000E-03 0. -1.
        -11    1    3    3    0    0 -0.41788942686E+01  0.51333016423E+01  0.98821753590E+01  0.11894172235E+02  0.51100000000E-03 0.  1.
         12    1    3    3    0    0 -0.76782109661E+01 -0.11617647943E+02  0.25566265240E+02  0.29112859456E+02  0.00000000000E+00 0. -1.
</event>
<event>
 7    1  0.2682317E-010  0.4778727E+02  0.7816164E-02  0.1312668E+00
        -11   -1    0    0    0    0  0.00000000000E+00  0.00000000000E+00  0.45593999997E+02  0.45594000000E+02  0.51100000000E-03 0.  1.
         11   -1    0    0    0    0 -0.00000000000E+00 -0.00000000000E+00 -0.45593999997E+02  0.45594000000E+02  0.51100000000E-03 0. -1.
    9900012    2    1    2    0    0 -0.19405509463E+02  0.38781639504E+02 -0.17418721351E+01  0.47787268685E+02  0.19999989242E+02 0.  0.
         12    1    1    2    0    0  0.19405509463E+02 -0.38781639504E+02  0.17418721351E+01  0.43400731315E+02  0.00000000000E+00 0. -1.
         11    1    3    3    0    0 -0.50455949205E+01  0.74114403972E+01 -0.48800125596E+01  0.10207938073E+02  0.51100000000E-03 0. -1.
        -11    1    3    3    0    0 -0.10216806440E+02  0.25143926816E+02 -0.37666792817E+01  0.27400512087E+02  0.51100000000E-03 0.  1.
         12    1    3    3    0    0 -0.41431081020E+01  0.62262722913E+01  0.69048197062E+01  0.10178818525E+02  0.00000000000E+00 0. -1.
</event>
<event>
 7    1  0.2682317E-010  0.4778727E+02  0.7816164E-02  0.1312668E+00
        -11   -1    0    0    0    0  0.00000000000E+00  0.00000000000E+00  0.45593999997E+02  0.45594000000E+02  0.51100000000E-03 0.  1.
         11   -1    0    0    0    0 -0.00000000000E+00 -0.00000000000E+00 -0.45593999997E+02  0.45594000000E+02  0.51100000000E-03 0. -1.
    9900012    2    1    2    0    0  0.57122900739E+01  0.43022289079E+02  0.27550249440E+00  0.47787268242E+02  0.19999987224E+02 0.  0.
         12    1    1    2    0    0 -0.57122900739E+01 -0.43022289079E+02 -0.27550249440E+00  0.43400731758E+02  0.00000000000E+00 0. -1.
         11    1    3    3    0    0  0.45673658252E+01  0.30574739621E+02  0.66402631897E+00  0.30921132979E+02  0.51100000000E-03 0. -1.
        -11    1    3    3    0    0  0.19659940134E+01  0.79675040743E+01  0.51551813672E+01  0.96913440154E+01  0.51100000000E-03 0.  1.
         12    1    3    3    0    0 -0.82106976472E+00  0.44800453832E+01 -0.55437051918E+01  0.71747912477E+01  0.00000000000E+00 0. -1.
</event>
<event>
 7    1  0.2682317E-010  0.4778727E+02  0.7816164E-02  0.1312668E+00
        -11   -1    0    0    0    0  0.00000000000E+00  0.00000000000E+00  0.45593999997E+02  0.45594000000E+02  0.51100000000E-03 0.  1.
         11   -1    0    0    0    0 -0.00000000000E+00 -0.00000000000E+00 -0.45593999997E+02  0.45594000000E+02  0.51100000000E-03 0. -1.
    9900012    2    1    2    0    0 -0.28796018065E+02 -0.32176173595E+02  0.43711091343E+01  0.47787269606E+02  0.19999993443E+02 0.  0.
         12    1    1    2    0    0  0.28796018065E+02  0.32176173595E+02 -0.43711091343E+01  0.43400730394E+02  0.00000000000E+00 0. -1.
         11    1    3    3    0    0 -0.10705700568E+02 -0.37357700467E+01  0.17306507254E+01  0.11470098286E+02  0.51100000000E-03 0. -1.
        -11    1    3    3    0    0  0.19967059575E+01 -0.16432183469E+01  0.10454130766E+01  0.27892454138E+01  0.51100000000E-03 0.  1.
        -12    1    3    3    0    0 -0.20087023455E+02 -0.26797185201E+02  0.15950453322E+01  0.33527925907E+02  0.00000000000E+00 0.  1.
</event>
<event>
 7    1  0.2682317E-010  0.4778727E+02  0.7816164E-02  0.1312668E+00
        -11   -1    0    0    0    0  0.00000000000E+00  0.00000000000E+00  0.45593999997E+02  0.45594000000E+02  0.51100000000E-03 0.  1.
         11   -1    0    0    0    0 -0.00000000000E+00 -0.00000000000E+00 -0.45593999997E+02  0.45594000000E+02  0.51100000000E-03 0. -1.
    9900012    2    1    2    0    0  0.95293414353E+01 -0.29550050130E+02  0.30325064302E+02  0.47787270331E+02  0.19999996746E+02 0.  0.
         12    1    1    2    0    0 -0.95293414353E+01  0.29550050130E+02 -0.30325064302E+02  0.43400729669E+02  0.00000000000E+00 0. -1.
         11    1    3    3    0    0 -0.45701821794E+00 -0.63337022551E+01  0.20861700744E+01  0.66840673058E+01  0.51100000000E-03 0. -1.
        -11    1    3    3    0    0 -0.15415171788E+01 -0.11824965916E+02  0.19044905875E+02  0.22470303384E+02  0.51100000000E-03 0.  1.
         12    1    3    3    0    0  0.11527876832E+02 -0.11391381959E+02  0.91939883527E+01  0.18632899641E+02  0.00000000000E+00 0. -1.
</event>
<event>
 7    1  0.2682317E-010  0.4778727E+02  0.7816164E-02  0.1312668E+00
        -11   -1    0    0    0    0  0.00000000000E+00  0.00000000000E+00  0.45593999997E+02  0.45594000000E+02  0.51100000000E-03 0.  1.
         11   -1    0    0    0    0 -0.00000000000E+00 -0.00000000000E+00 -0.45593999997E+02  0.45594000000E+02  0.51100000000E-03 0. -1.
    9900012    2    1    2    0    0 -0.26545157809E+02  0.27929035123E+02  0.19973651472E+02  0.47787272367E+02  0.20000006028E+02 0.  0.
         12    1    1    2    0    0  0.26545157809E+02 -0.27929035123E+02 -0.19973651472E+02  0.43400727633E+02  0.00000000000E+00 0. -1.
         11    1    3    3    0    0 -0.38719916517E+01  0.25198777529E+01 -0.51189444400E+00  0.46480253252E+01  0.51100000000E-03 0. -1.
        -11    1    3    3    0    0 -0.12431249036E+02  0.23235260372E+02  0.19169992550E+02  0.32586836174E+02  0.51100000000E-03 0.  1.
        -12    1    3    3    0    0 -0.10241917121E+02  0.21738969974E+01  0.13155533663E+01  0.10552410868E+02  0.00000000000E+00 0.  1.
</event>
<event>
 7    1  0.2682317E-010  0.4778727E+02  0.7816164E-02  0.1312668E+00
        -11   -1    0    0    0    0  0.00000000000E+00  0.00000000000E+00  0.45593999997E+02  0.45594000000E+02  0.51100000000E-03 0.  1.
         11   -1    0    0    0    0 -0.00000000000E+00 -0.00000000000E+00 -0.45593999997E+02  0.45594000000E+02  0.51100000000E-03 0. -1.
    9900012    2    1    2    0    0  0.34686893805E+02 -0.14116154318E+02  0.21935749356E+02  0.47787268274E+02  0.19999987367E+02 0.  0.
         12    1    1    2    0    0 -0.34686893805E+02  0.14116154318E+02 -0.21935749356E+02  0.43400731726E+02  0.00000000000E+00 0. -1.
         11    1    3    3    0    0  0.16011706047E+02 -0.10609480515E+02  0.68301159131E+00  0.19219841634E+02  0.51100000000E-03 0. -1.
        -11    1    3    3    0    0  0.25073041365E+01 -0.77854448478E+00  0.38217095987E+01  0.46366119166E+01  0.51100000000E-03 0.  1.
         12    1    3    3    0    0  0.16167883621E+02 -0.27281293180E+01  0.17431028166E+02  0.23930814723E+02  0.00000000000E+00 0. -1.
</event>
<event>
 7    1  0.2682317E-010  0.4778727E+02  0.7816164E-02  0.1312668E+00
        -11   -1    0    0    0    0  0.00000000000E+00  0.00000000000E+00  0.45593999997E+02  0.45594000000E+02  0.51100000000E-03 0.  1.
         11   -1    0    0    0    0 -0.00000000000E+00 -0.00000000000E+00 -0.45593999997E+02  0.45594000000E+02  0.51100000000E-03 0. -1.
    9900012    2    1    2    0    0 -0.17662582107E+02  0.32842995170E+02  0.22203471386E+02  0.47787270974E+02  0.19999999678E+02 0.  0.
         12    1    1    2    0    0  0.17662582107E+02 -0.32842995170E+02 -0.22203471386E+02  0.43400729026E+02  0.00000000000E+00 0. -1.
         11    1    3    3    0    0 -0.13490210446E+01 -0.14730032615E+01  0.17467012417E+01  0.26534057127E+01  0.51100000000E-03 0. -1.
        -11    1    3    3    0    0 -0.12693226067E+02  0.14164562618E+02  0.14164637802E+02  0.23714758832E+02  0.51100000000E-03 0.  1.
         12    1    3    3    0    0 -0.36203349954E+01  0.20151435813E+02  0.62921323431E+01  0.21419106430E+02  0.00000000000E+00 0. -1.
</event>
<event>
 7    1  0.2682317E-010  0.4778727E+02  0.7816164E-02  0.1312668E+00
        -11   -1    0    0    0    0  0.00000000000E+00  0.00000000000E+00  0.45593999997E+02  0.45594000000E+02  0.51100000000E-03 0. -1.
         11   -1    0    0    0    0 -0.00000000000E+00 -0.00000000000E+00 -0.45593999997E+02  0.45594000000E+02  0.51100000000E-03 0.  1.
    9900012    2    1    2    0    0  0.35890610500E+02  0.19400919733E+02  0.14801746225E+02  0.47787270745E+02  0.19999998635E+02 0.  0.
         12    1    1    2    0    0 -0.35890610500E+02 -0.19400919733E+02 -0.14801746225E+02  0.43400729255E+02  0.00000000000E+00 0. -1.
         11    1    3    3    0    0  0.81977250809E+01  0.28552392733E+01 -0.44738347291E+01  0.97657711039E+01  0.51100000000E-03 0. -1.
        -11    1    3    3    0    0  0.56716153253E+01  0.62980136527E+01  0.45993057909E+01  0.96429150358E+01  0.51100000000E-03 0.  1.
         12    1    3    3    0    0  0.22021270094E+02  0.10247666807E+02  0.14676275163E+02  0.28378584605E+02  0.00000000000E+00 0. -1.
</event>
<event>
 7    1  0.2682317E-010  0.4778727E+02  0.7816164E-02  0.1312668E+00
        -11   -1    0    0    0    0  0.00000000000E+00  0.00000000000E+00  0.45593999997E+02  0.45594000000E+02  0.51100000000E-03 0.  1.
         11   -1    0    0    0    0 -0.00000000000E+00 -0.00000000000E+00 -0.45593999997E+02  0.45594000000E+02  0.51100000000E-03 0. -1.
    9900012    2    1    2    0    0 -0.29051785432E+01 -0.17227095863E+02  0.39729214048E+02  0.47787270246E+02  0.19999996361E+02 0.  0.
         12    1    1    2    0    0  0.29051785432E+01  0.17227095863E+02 -0.39729214048E+02  0.43400729754E+02  0.00000000000E+00 0. -1.
         11    1    3    3    0    0 -0.32476088882E+01 -0.81433776848E+01  0.26752941742E+01  0.91661749267E+01  0.51100000000E-03 0. -1.
        -11    1    3    3    0    0  0.71170070305E+00 -0.32731624852E+01  0.48450141523E+01  0.58901844574E+01  0.51100000000E-03 0.  1.
        -12    1    3    3    0    0 -0.36927035811E+00 -0.58105556934E+01  0.32208905722E+02  0.32730910862E+02  0.00000000000E+00 0.  1.
</event>
<event>
 7    1  0.2682317E-010  0.4778727E+02  0.7816164E-02  0.1312668E+00
        -11   -1    0    0    0    0  0.00000000000E+00  0.00000000000E+00  0.45593999997E+02  0.45594000000E+02  0.51100000000E-03 0.  1.
         11   -1    0    0    0    0 -0.00000000000E+00 -0.00000000000E+00 -0.45593999997E+02  0.45594000000E+02  0.51100000000E-03 0. -1.
    9900012    2    1    2    0    0  0.16489838818E+02  0.38308517163E+02  0.12006912681E+02  0.47787271623E+02  0.20000002638E+02 0.  0.
         12    1    1    2    0    0 -0.16489838818E+02 -0.38308517163E+02 -0.12006912681E+02  0.43400728377E+02  0.00000000000E+00 0. -1.
         11    1    3    3    0    0  0.77094993349E+01  0.13519509262E+02  0.69379242906E+01  0.17039609867E+02  0.51100000000E-03 0. -1.
        -11    1    3    3    0    0  0.11196001375E+02  0.92529257022E+01  0.13231602558E+01  0.14584849474E+02  0.51100000000E-03 0.  1.
         12    1    3    3    0    0 -0.24156618920E+01  0.15536082199E+02  0.37458281350E+01  0.16162812283E+02  0.00000000000E+00 0. -1.
</event>
<event>
 7    1  0.2682317E-010  0.4778727E+02  0.7816164E-02  0.1312668E+00
        -11   -1    0    0    0    0  0.00000000000E+00  0.00000000000E+00  0.45593999997E+02  0.45594000000E+02  0.51100000000E-03 0. -1.
         11   -1    0    0    0    0 -0.00000000000E+00 -0.00000000000E+00 -0.45593999997E+02  0.45594000000E+02  0.51100000000E-03 0.  1.
    9900012    2    1    2    0    0  0.84642251102E+01 -0.11708120570E+02 -0.40925544086E+02  0.47787270136E+02  0.19999995860E+02 0.  0.
         12    1    1    2    0    0 -0.84642251102E+01  0.11708120570E+02  0.40925544086E+02  0.43400729864E+02  0.00000000000E+00 0. -1.
         11    1    3    3    0    0  0.68366953293E+01 -0.30175653433E+01 -0.58870832712E+01  0.95133513196E+01  0.51100000000E-03 0. -1.
        -11    1    3    3    0    0  0.50811940945E+01 -0.84280915558E+01 -0.15012697116E+02  0.17950831058E+02  0.51100000000E-03 0.  1.
        -12    1    3    3    0    0 -0.34536643136E+01 -0.26246367096E+00 -0.20025763698E+02  0.20323087759E+02  0.00000000000E+00 0.  1.
</event>
<event>
 7    1  0.2682317E-010  0.4778727E+02  0.7816164E-02  0.1312668E+00
        -11   -1    0    0    0    0  0.00000000000E+00  0.00000000000E+00  0.45593999997E+02  0.45594000000E+02  0.51100000000E-03 0.  1.
         11   -1    0    0    0    0 -0.00000000000E+00 -0.00000000000E+00 -0.45593999997E+02  0.45594000000E+02  0.51100000000E-03 0. -1.
    9900012    2    1    2    0    0  0.10779432160E+02 -0.29068660098E+02  0.30371695119E+02  0.47787273946E+02  0.20000013230E+02 0.  0.
         12    1    1    2    0    0 -0.10779432160E+02  0.29068660098E+02 -0.30371695119E+02  0.43400726054E+02  0.00000000000E+00 0. -1.
         11    1    3    3    0    0 -0.12127492756E+01 -0.27876681652E-01  0.60353925876E+01  0.61560946924E+01  0.51100000000E-03 0. -1.
        -11    1    3    3    0    0  0.45426170473E+00 -0.16164554488E+02  0.89257484230E+01  0.18470737957E+02  0.51100000000E-03 0.  1.
         12    1    3    3    0    0  0.11537919731E+02 -0.12876228928E+02  0.15410554109E+02  0.23160441297E+02  0.00000000000E+00 0. -1.
</event>
<event>
 7    1  0.2682317E-010  0.4778727E+02  0.7816164E-02  0.1312668E+00
        -11   -1    0    0    0    0  0.00000000000E+00  0.00000000000E+00  0.45593999997E+02  0.45594000000E+02  0.51100000000E-03 0.  1.
         11   -1    0    0    0    0 -0.00000000000E+00 -0.00000000000E+00 -0.45593999997E+02  0.45594000000E+02  0.51100000000E-03 0. -1.
    9900012    2    1    2    0    0 -0.19752052123E+00 -0.26833745597E+02  0.34110619926E+02  0.47787270642E+02  0.19999998163E+02 0.  0.
         12    1    1    2    0    0  0.19752052123E+00  0.26833745597E+02 -0.34110619926E+02  0.43400729358E+02  0.00000000000E+00 0. -1.
         11    1    3    3    0    0 -0.24885152128E+01 -0.97367517197E+01  0.13611070138E+02  0.16919168791E+02  0.51100000000E-03 0. -1.
        -11    1    3    3    0    0 -0.14151785858E+01 -0.11992441447E+02  0.32559597357E+01  0.12506904347E+02  0.51100000000E-03 0.  1.
         12    1    3    3    0    0  0.37061732774E+01 -0.51045524305E+01  0.17243590052E+02  0.18361197503E+02  0.00000000000E+00 0. -1.
</event>
<event>
 7    1  0.2682317E-010  0.4778727E+02  0.7816164E-02  0.1312668E+00
        -11   -1    0    0    0    0  0.00000000000E+00  0.00000000000E+00  0.45593999997E+02  0.45594000000E+02  0.51100000000E-03 0.  1.
         11   -1    0    0    0    0 -0.00000000000E+00 -0.00000000000E+00 -0.45593999997E+02  0.45594000000E+02  0.51100000000E-03 0. -1.
    9900012    2    1    2    0    0  0.23109868752E+02  0.30733045159E+02  0.20125535877E+02  0.47787270826E+02  0.19999999003E+02 0.  0.
         12    1    1    2    0    0 -0.23109868752E+02 -0.30733045159E+02 -0.20125535877E+02  0.43400729174E+02  0.00000000000E+00 0. -1.
         11    1    3    3    0    0  0.40647777375E+01  0.37338370376E+01 -0.21656624498E+01  0.59290851897E+01  0.51100000000E-03 0. -1.
        -11    1    3    3    0    0  0.16276187476E+02  0.12121467913E+02  0.12560828072E+02  0.23866685259E+02  0.51100000000E-03 0.  1.
        -12    1    3    3    0    0  0.27689035387E+01  0.14877740209E+02  0.97303702549E+01  0.17991500377E+02  0.00000000000E+00 0.  1.
</event>
<event>
 7    1  0.2682317E-010  0.4778727E+02  0.7816164E-02  0.1312668E+00
        -11   -1    0    0    0    0  0.00000000000E+00  0.00000000000E+00  0.45593999997E+02  0.45594000000E+02  0.51100000000E-03 0.  1.
         11   -1    0    0    0    0 -0.00000000000E+00 -0.00000000000E+00 -0.45593999997E+02  0.45594000000E+02  0.51100000000E-03 0. -1.
    9900012    2    1    2    0    0 -0.15260163681E+02  0.11630672487E+02  0.38929146694E+02  0.47787267282E+02  0.19999982847E+02 0.  0.
         12    1    1    2    0    0  0.15260163681E+02 -0.11630672487E+02 -0.38929146694E+02  0.43400732718E+02  0.00000000000E+00 0. -1.
         11    1    3    3    0    0 -0.56798595178E+01 -0.45210108504E+00  0.10618157248E+01  0.57959168755E+01  0.51100000000E-03 0. -1.
        -11    1    3    3    0    0 -0.38309758878E+01 -0.88302195351E+00  0.93006164210E+01  0.10097404127E+02  0.51100000000E-03 0.  1.
        -12    1    3    3    0    0 -0.57493282755E+01  0.12965795526E+02  0.28566714548E+02  0.31893946280E+02  0.00000000000E+00 0.  1.
</event>
<event>
 7    1  0.2682317E-010  0.4778727E+02  0.7816164E-02  0.1312668E+00
        -11   -1    0    0    0    0  0.00000000000E+00  0.00000000000E+00  0.45593999997E+02  0.45594000000E+02  0.51100000000E-03 0.  1.
         11   -1    0    0    0    0 -0.00000000000E+00 -0.00000000000E+00 -0.45593999997E+02  0.45594000000E+02  0.51100000000E-03 0. -1.
    9900012    2    1    2    0    0  0.20016296300E+02  0.23258775982E+02  0.30692026068E+02  0.47787271413E+02  0.20000001680E+02 0.  0.
         12    1    1    2    0    0 -0.20016296300E+02 -0.23258775982E+02 -0.30692026068E+02  0.43400728587E+02  0.00000000000E+00 0. -1.
         11    1    3    3    0    0  0.15360122740E+02  0.17466866443E+02  0.10201381214E+02  0.25398680534E+02  0.51100000000E-03 0. -1.
        -11    1    3    3    0    0  0.10619903966E+00  0.36913348569E+01  0.58909907619E+01  0.69527694971E+01  0.51100000000E-03 0.  1.
         12    1    3    3    0    0  0.45499745206E+01  0.21005746820E+01  0.14599654092E+02  0.15435821382E+02  0.00000000000E+00 0. -1.
</event>
<event>
 7    1  0.2682317E-010  0.4778728E+02  0.7816164E-02  0.1312668E+00
        -11   -1    0    0    0    0  0.00000000000E+00  0.00000000000E+00  0.45593999997E+02  0.45594000000E+02  0.51100000000E-03 0.  1.
         11   -1    0    0    0    0 -0.00000000000E+00 -0.00000000000E+00 -0.45593999997E+02  0.45594000000E+02  0.51100000000E-03 0. -1.
    9900012    2    1    2    0    0 -0.16041665993E+02  0.39874343155E+01  0.40129639683E+02  0.47787278101E+02  0.20000032172E+02 0.  0.
         12    1    1    2    0    0  0.16041665993E+02 -0.39874343155E+01 -0.40129639683E+02  0.43400721899E+02  0.00000000000E+00 0. -1.
         11    1    3    3    0    0  0.43259313750E+00  0.53223773526E+01  0.11905328374E+02  0.13048052784E+02  0.51100000000E-03 0. -1.
        -11    1    3    3    0    0  0.28126637593E+00 -0.87104994427E+00 -0.80445686522E+00  0.12186016120E+01  0.51100000000E-03 0.  1.
        -12    1    3    3    0    0 -0.16755525506E+02 -0.46389309288E+00  0.29028768175E+02  0.33520623705E+02  0.00000000000E+00 0.  1.
</event>
<event>
 7    1  0.2682317E-010  0.4778727E+02  0.7816164E-02  0.1312668E+00
        -11   -1    0    0    0    0  0.00000000000E+00  0.00000000000E+00  0.45593999997E+02  0.45594000000E+02  0.51100000000E-03 0.  1.
         11   -1    0    0    0    0 -0.00000000000E+00 -0.00000000000E+00 -0.45593999997E+02  0.45594000000E+02  0.51100000000E-03 0. -1.
    9900012    2    1    2    0    0 -0.38702359564E+02 -0.19338366484E+02  0.34319379214E+01  0.47787271296E+02  0.20000001148E+02 0.  0.
         12    1    1    2    0    0  0.38702359564E+02  0.19338366484E+02 -0.34319379214E+01  0.43400728704E+02  0.00000000000E+00 0. -1.
         11    1    3    3    0    0 -0.24640173028E+02 -0.13017526174E+02  0.81254641172E+01  0.29027870779E+02  0.51100000000E-03 0.  1.
        -11    1    3    3    0    0  0.15534112410E+00 -0.25676752526E+01  0.12976705678E+01  0.28811518931E+01  0.51100000000E-03 0. -1.
        -12    1    3    3    0    0 -0.14217527660E+02 -0.37531650572E+01 -0.59911967636E+01  0.15878248624E+02  0.00000000000E+00 0.  1.
</event>
<event>
 7    1  0.2682317E-010  0.4778727E+02  0.7816164E-02  0.1312668E+00
        -11   -1    0    0    0    0  0.00000000000E+00  0.00000000000E+00  0.45593999997E+02  0.45594000000E+02  0.51100000000E-03 0.  1.
         11   -1    0    0    0    0 -0.00000000000E+00 -0.00000000000E+00 -0.45593999997E+02  0.45594000000E+02  0.51100000000E-03 0. -1.
    9900012    2    1    2    0    0  0.23516284886E+02  0.24363399811E+02  0.27148348504E+02  0.47787265770E+02  0.19999975951E+02 0.  0.
         12    1    1    2    0    0 -0.23516284886E+02 -0.24363399811E+02 -0.27148348504E+02  0.43400734230E+02  0.00000000000E+00 0. -1.
         11    1    3    3    0    0  0.16100715883E+02  0.34317362518E+01  0.12471211055E+02  0.20652868350E+02  0.51100000000E-03 0. -1.
        -11    1    3    3    0    0  0.44636716174E+01  0.71670606663E+01  0.76801480517E+01  0.11413842353E+02  0.51100000000E-03 0.  1.
        -12    1    3    3    0    0  0.29518973855E+01  0.13764602893E+02  0.69969893982E+01  0.15720555067E+02  0.00000000000E+00 0.  1.
</event>
<event>
 7    1  0.2682317E-010  0.4778727E+02  0.7816164E-02  0.1312668E+00
        -11   -1    0    0    0    0  0.00000000000E+00  0.00000000000E+00  0.45593999997E+02  0.45594000000E+02  0.51100000000E-03 0.  1.
         11   -1    0    0    0    0 -0.00000000000E+00 -0.00000000000E+00 -0.45593999997E+02  0.45594000000E+02  0.51100000000E-03 0. -1.
    9900012    2    1    2    0    0  0.19834468515E+02  0.38587916639E+02 -0.10906416484E+01  0.47787274764E+02  0.20000016960E+02 0.  0.
         12    1    1    2    0    0 -0.19834468515E+02 -0.38587916639E+02  0.10906416484E+01  0.43400725236E+02  0.00000000000E+00 0. -1.
         11    1    3    3    0    0  0.26982627204E+01  0.15860349651E+02 -0.25935175329E+01  0.16295939562E+02  0.51100000000E-03 0.  1.
        -11    1    3    3    0    0  0.98500570383E+01  0.89272208450E+01 -0.55000205063E+01  0.14386421428E+02  0.51100000000E-03 0. -1.
         12    1    3    3    0    0  0.72861487561E+01  0.13800346143E+02  0.70028963908E+01  0.17104913774E+02  0.00000000000E+00 0. -1.
</event>
<event>
 7    1  0.2682317E-010  0.4778727E+02  0.7816164E-02  0.1312668E+00
        -11   -1    0    0    0    0  0.00000000000E+00  0.00000000000E+00  0.45593999997E+02  0.45594000000E+02  0.51100000000E-03 0.  1.
         11   -1    0    0    0    0 -0.00000000000E+00 -0.00000000000E+00 -0.45593999997E+02  0.45594000000E+02  0.51100000000E-03 0. -1.
    9900012    2    1    2    0    0 -0.38180251104E+02  0.19840638808E+02  0.56780673865E+01  0.47787274524E+02  0.20000015863E+02 0.  0.
         12    1    1    2    0    0  0.38180251104E+02 -0.19840638808E+02 -0.56780673865E+01  0.43400725476E+02  0.00000000000E+00 0. -1.
         11    1    3    3    0    0 -0.24898696357E+01 -0.11777413266E+01 -0.37151319146E+01  0.46247952213E+01  0.51100000000E-03 0. -1.
        -11    1    3    3    0    0 -0.11402209242E+02  0.46263431863E+01 -0.27041741167E+00  0.12307987355E+02  0.51100000000E-03 0.  1.
        -12    1    3    3    0    0 -0.24288172226E+02  0.16392036948E+02  0.96636167128E+01  0.30854491948E+02  0.00000000000E+00 0.  1.
</event>
<event>
 7    1  0.2682317E-010  0.4778722E+02  0.7816164E-02  0.1312668E+00
        -11   -1    0    0    0    0  0.00000000000E+00  0.00000000000E+00  0.45593999997E+02  0.45594000000E+02  0.51100000000E-03 0.  1.
         11   -1    0    0    0    0 -0.00000000000E+00 -0.00000000000E+00 -0.45593999997E+02  0.45594000000E+02  0.51100000000E-03 0. -1.
    9900012    2    1    2    0    0  0.45944908359E+01  0.77244706915E+01  0.42459990646E+02  0.47787221215E+02  0.19999772807E+02 0.  0.
         12    1    1    2    0    0 -0.45944908359E+01 -0.77244706915E+01 -0.42459990646E+02  0.43400778785E+02  0.00000000000E+00 0. -1.
         11    1    3    3    0    0 -0.54584263025E+01  0.68294324496E+00  0.78325353594E+01  0.95712820245E+01  0.51100000000E-03 0. -1.
        -11    1    3    3    0    0 -0.80513975848E+00  0.14275689745E+01  0.15028501729E+02  0.15117607869E+02  0.51100000000E-03 0.  1.
        -12    1    3    3    0    0  0.10858056897E+02  0.56139584720E+01  0.19598953558E+02  0.23098331322E+02  0.00000000000E+00 0.  1.
</event>
<event>
 7    1  0.2682317E-010  0.4778727E+02  0.7816164E-02  0.1312668E+00
        -11   -1    0    0    0    0  0.00000000000E+00  0.00000000000E+00  0.45593999997E+02  0.45594000000E+02  0.51100000000E-03 0.  1.
         11   -1    0    0    0    0 -0.00000000000E+00 -0.00000000000E+00 -0.45593999997E+02  0.45594000000E+02  0.51100000000E-03 0. -1.
    9900012    2    1    2    0    0 -0.10697427140E+02 -0.37240982205E+02  0.19552440124E+02  0.47787267082E+02  0.19999981934E+02 0.  0.
         12    1    1    2    0    0  0.10697427140E+02  0.37240982205E+02 -0.19552440124E+02  0.43400732918E+02  0.00000000000E+00 0. -1.
         11    1    3    3    0    0 -0.14944804052E+01 -0.14082648496E+01  0.51110469112E+01  0.55081287528E+01  0.51100000000E-03 0. -1.
        -11    1    3    3    0    0 -0.63474158939E+01 -0.25352189790E+02  0.16924740686E+02  0.31136314221E+02  0.51100000000E-03 0.  1.
        -12    1    3    3    0    0 -0.28555308410E+01 -0.10480527566E+02 -0.24833474741E+01  0.11142824109E+02  0.00000000000E+00 0.  1.
</event>
<event>
 7    1  0.2682317E-010  0.4778727E+02  0.7816164E-02  0.1312668E+00
        -11   -1    0    0    0    0  0.00000000000E+00  0.00000000000E+00  0.45593999997E+02  0.45594000000E+02  0.51100000000E-03 0.  1.
         11   -1    0    0    0    0 -0.00000000000E+00 -0.00000000000E+00 -0.45593999997E+02  0.45594000000E+02  0.51100000000E-03 0. -1.
    9900012    2    1    2    0    0 -0.12755957510E+02  0.33609098675E+02  0.24317423772E+02  0.47787273454E+02  0.20000010988E+02 0.  0.
         12    1    1    2    0    0  0.12755957510E+02 -0.33609098675E+02 -0.24317423772E+02  0.43400726546E+02  0.00000000000E+00 0. -1.
         11    1    3    3    0    0 -0.85594633568E+00  0.16717822685E+02  0.12953631782E+02  0.21166360482E+02  0.51100000000E-03 0. -1.
        -11    1    3    3    0    0 -0.47244877734E+01  0.13037049800E+02  0.12151761887E+02  0.18437753915E+02  0.51100000000E-03 0.  1.
         12    1    3    3    0    0 -0.71755234011E+01  0.38542261905E+01 -0.78796989656E+00  0.81831590578E+01  0.00000000000E+00 0. -1.
</event>
<event>
 7    1  0.2682317E-010  0.4778727E+02  0.7816164E-02  0.1312668E+00
        -11   -1    0    0    0    0  0.00000000000E+00  0.00000000000E+00  0.45593999997E+02  0.45594000000E+02  0.51100000000E-03 0.  1.
         11   -1    0    0    0    0 -0.00000000000E+00 -0.00000000000E+00 -0.45593999997E+02  0.45594000000E+02  0.51100000000E-03 0. -1.
    9900012    2    1    2    0    0  0.94126490758E+01  0.10852721413E+02  0.40954164021E+02  0.47787273332E+02  0.20000010429E+02 0.  0.
         12    1    1    2    0    0 -0.94126490758E+01 -0.10852721413E+02 -0.40954164021E+02  0.43400726668E+02  0.00000000000E+00 0. -1.
         11    1    3    3    0    0 -0.44618344177E+01 -0.98939079442E+00  0.12657059324E+02  0.13456894571E+02  0.51100000000E-03 0. -1.
        -11    1    3    3    0    0  0.43006961855E+01  0.14079082809E+00  0.56947706255E+01  0.71376622557E+01  0.51100000000E-03 0.  1.
         12    1    3    3    0    0  0.95737873080E+01  0.11701321379E+02  0.22602334071E+02  0.27192716505E+02  0.00000000000E+00 0. -1.
</event>
<event>
 7    1  0.2682317E-010  0.4778727E+02  0.7816164E-02  0.1312668E+00
        -11   -1    0    0    0    0  0.00000000000E+00  0.00000000000E+00  0.45593999997E+02  0.45594000000E+02  0.51100000000E-03 0.  1.
         11   -1    0    0    0    0 -0.00000000000E+00 -0.00000000000E+00 -0.45593999997E+02  0.45594000000E+02  0.51100000000E-03 0. -1.
    9900012    2    1    2    0    0  0.15289061846E+02  0.18515789868E+02  0.36152914615E+02  0.47787272797E+02  0.20000007992E+02 0.  0.
         12    1    1    2    0    0 -0.15289061846E+02 -0.18515789868E+02 -0.36152914615E+02  0.43400727203E+02  0.00000000000E+00 0. -1.
         11    1    3    3    0    0  0.83542517832E+00  0.28051658673E+01 -0.16067862572E+01  0.33389598843E+01  0.51100000000E-03 0. -1.
        -11    1    3    3    0    0  0.52388215838E+01  0.10232446531E+02  0.12362790749E+02  0.16881552327E+02  0.51100000000E-03 0.  1.
        -12    1    3    3    0    0  0.92148150842E+01  0.54781774698E+01  0.25396910123E+02  0.27566760586E+02  0.00000000000E+00 0.  1.
</event>
<event>
 7    1  0.2682317E-010  0.4778728E+02  0.7816164E-02  0.1312668E+00
        -11   -1    0    0    0    0  0.00000000000E+00  0.00000000000E+00  0.45593999997E+02  0.45594000000E+02  0.51100000000E-03 0.  1.
         11   -1    0    0    0    0 -0.00000000000E+00 -0.00000000000E+00 -0.45593999997E+02  0.45594000000E+02  0.51100000000E-03 0. -1.
    9900012    2    1    2    0    0  0.24711223842E+02 -0.42946350673E+01  0.35419403745E+02  0.47787278395E+02  0.20000033516E+02 0.  0.
         12    1    1    2    0    0 -0.24711223842E+02  0.42946350673E+01 -0.35419403745E+02  0.43400721605E+02  0.00000000000E+00 0. -1.
         11    1    3    3    0    0  0.18612105069E+01 -0.68868276686E+00 -0.12242703891E+01  0.23317861718E+01  0.51100000000E-03 0. -1.
        -11    1    3    3    0    0  0.93130547138E+01 -0.82652053244E+01  0.14841810757E+02  0.19373330998E+02  0.51100000000E-03 0.  1.
         12    1    3    3    0    0  0.13536958622E+02  0.46592530239E+01  0.21801863378E+02  0.26082161226E+02  0.00000000000E+00 0. -1.
</event>
<event>
 7    1  0.2682317E-010  0.4778727E+02  0.7816164E-02  0.1312668E+00
        -11   -1    0    0    0    0  0.00000000000E+00  0.00000000000E+00  0.45593999997E+02  0.45594000000E+02  0.51100000000E-03 0. -1.
         11   -1    0    0    0    0 -0.00000000000E+00 -0.00000000000E+00 -0.45593999997E+02  0.45594000000E+02  0.51100000000E-03 0.  1.
    9900012    2    1    2    0    0 -0.21119090674E+02 -0.17111826989E+02 -0.33834781491E+02  0.47787273596E+02  0.20000011635E+02 0.  0.
         12    1    1    2    0    0  0.21119090674E+02  0.17111826989E+02  0.33834781491E+02  0.43400726404E+02  0.00000000000E+00 0. -1.
         11    1    3    3    0    0 -0.10100649684E+02  0.38348961749E+00 -0.84542478826E+01  0.13177423718E+02  0.51100000000E-03 0. -1.
        -11    1    3    3    0    0 -0.28120086100E+00  0.15818016460E+01 -0.13054472412E+01  0.20701118646E+01  0.51100000000E-03 0.  1.
        -12    1    3    3    0    0 -0.10737240130E+02 -0.19077118252E+02 -0.24075086368E+02  0.32539738014E+02  0.00000000000E+00 0.  1.
</event>
<event>
 7    1  0.2682317E-010  0.4778727E+02  0.7816164E-02  0.1312668E+00
        -11   -1    0    0    0    0  0.00000000000E+00  0.00000000000E+00  0.45593999997E+02  0.45594000000E+02  0.51100000000E-03 0. -1.
         11   -1    0    0    0    0 -0.00000000000E+00 -0.00000000000E+00 -0.45593999997E+02  0.45594000000E+02  0.51100000000E-03 0.  1.
    9900012    2    1    2    0    0 -0.18853875736E+02  0.54532543181E+01 -0.38709383087E+02  0.47787274754E+02  0.20000016915E+02 0.  0.
         12    1    1    2    0    0  0.18853875736E+02 -0.54532543181E+01  0.38709383087E+02  0.43400725246E+02  0.00000000000E+00 0. -1.
         11    1    3    3    0    0 -0.21247110439E+01  0.15128308147E+01 -0.29859805832E+01  0.39647363593E+01  0.51100000000E-03 0. -1.
        -11    1    3    3    0    0 -0.20339783231E+02  0.32386583421E+01 -0.34020655524E+02  0.39769343624E+02  0.51100000000E-03 0.  1.
         12    1    3    3    0    0  0.36106185393E+01  0.70176516124E+00 -0.17027469797E+01  0.40531947713E+01  0.00000000000E+00 0. -1.
</event>
<event>
 7    1  0.2682317E-010  0.4778728E+02  0.7816164E-02  0.1312668E+00
        -11   -1    0    0    0    0  0.00000000000E+00  0.00000000000E+00  0.45593999997E+02  0.45594000000E+02  0.51100000000E-03 0.  1.
         11   -1    0    0    0    0 -0.00000000000E+00 -0.00000000000E+00 -0.45593999997E+02  0.45594000000E+02  0.51100000000E-03 0. -1.
    9900012    2    1    2    0    0  0.40224129656E+01 -0.19592658656E+02  0.38517149356E+02  0.47787275654E+02  0.20000021017E+02 0.  0.
         12    1    1    2    0    0 -0.40224129656E+01  0.19592658656E+02 -0.38517149356E+02  0.43400724346E+02  0.00000000000E+00 0. -1.
         11    1    3    3    0    0 -0.14285467994E+01  0.12050905902E+01  0.45354838378E+01  0.49054666641E+01  0.51100000000E-03 0. -1.
        -11    1    3    3    0    0  0.36142247111E+00 -0.18425148844E+01  0.16475622213E+02  0.16582268086E+02  0.51100000000E-03 0.  1.
         12    1    3    3    0    0  0.50895372939E+01 -0.18955234362E+02  0.17506043305E+02  0.26299540904E+02  0.00000000000E+00 0. -1.
</event>
<event>
 7    1  0.2682317E-010  0.4778726E+02  0.7816164E-02  0.1312668E+00
        -11   -1    0    0    0    0  0.00000000000E+00  0.00000000000E+00  0.45593999997E+02  0.45594000000E+02  0.51100000000E-03 0.  1.
         11   -1    0    0    0    0 -0.00000000000E+00 -0.00000000000E+00 -0.45593999997E+02  0.45594000000E+02  0.51100000000E-03 0. -1.
    9900012    2    1    2    0    0 -0.65395497110E+01  0.40499021943E+02  0.14166425002E+02  0.47787261688E+02  0.19999957338E+02 0.  0.
         12    1    1    2    0    0  0.65395497110E+01 -0.40499021943E+02 -0.14166425002E+02  0.43400738312E+02  0.00000000000E+00 0. -1.
         11    1    3    3    0    0 -0.10689663128E+01  0.10223410554E+02  0.51326650769E+01  0.11489345647E+02  0.51100000000E-03 0. -1.
        -11    1    3    3    0    0 -0.35159092487E+01  0.82453172012E+01  0.10888532021E+02  0.14103439418E+02  0.51100000000E-03 0.  1.
         12    1    3    3    0    0 -0.19546741495E+01  0.22030294187E+02 -0.18547720962E+01  0.22194476622E+02  0.00000000000E+00 0. -1.
</event>
<event>
 7    1  0.2682317E-010  0.4778726E+02  0.7816164E-02  0.1312668E+00
        -11   -1    0    0    0    0  0.00000000000E+00  0.00000000000E+00  0.45593999997E+02  0.45594000000E+02  0.51100000000E-03 0.  1.
         11   -1    0    0    0    0 -0.00000000000E+00 -0.00000000000E+00 -0.45593999997E+02  0.45594000000E+02  0.51100000000E-03 0. -1.
    9900012    2    1    2    0    0 -0.87219139241E+01  0.38807202825E+02  0.17365289535E+02  0.47787262055E+02  0.19999959012E+02 0.  0.
         12    1    1    2    0    0  0.87219139241E+01 -0.38807202825E+02 -0.17365289535E+02  0.43400737945E+02  0.00000000000E+00 0. -1.
         11    1    3    3    0    0 -0.56221596185E+01  0.21934887125E+01  0.27077968561E+01  0.66145472697E+01  0.51100000000E-03 0. -1.
        -11    1    3    3    0    0 -0.58434157996E+01  0.18006316629E+02  0.33442725311E+01  0.19223868127E+02  0.51100000000E-03 0.  1.
        -12    1    3    3    0    0  0.27436614940E+01  0.18607397483E+02  0.11313220147E+02  0.21948846658E+02  0.00000000000E+00 0.  1.
</event>
<event>
 7    1  0.2682317E-010  0.4778727E+02  0.7816164E-02  0.1312668E+00
        -11   -1    0    0    0    0  0.00000000000E+00  0.00000000000E+00  0.45593999997E+02  0.45594000000E+02  0.51100000000E-03 0. -1.
         11   -1    0    0    0    0 -0.00000000000E+00 -0.00000000000E+00 -0.45593999997E+02  0.45594000000E+02  0.51100000000E-03 0.  1.
    9900012    2    1    2    0    0 -0.90740799674E+01 -0.41649476119E+02 -0.81612120407E+01  0.47787272238E+02  0.20000005444E+02 0.  0.
         12    1    1    2    0    0  0.90740799674E+01  0.41649476119E+02  0.81612120407E+01  0.43400727762E+02  0.00000000000E+00 0. -1.
         11    1    3    3    0    0  0.24896482430E+01 -0.31839079901E+00 -0.19271897134E+01  0.31644559607E+01  0.51100000000E-03 0. -1.
        -11    1    3    3    0    0 -0.39426931831E+01 -0.18423862531E+02 -0.78857196067E+01  0.20424693733E+02  0.51100000000E-03 0.  1.
         12    1    3    3    0    0 -0.76210350273E+01 -0.22907222789E+02  0.16516972795E+01  0.24198122545E+02  0.00000000000E+00 0. -1.
</event>
<event>
 7    1  0.2682317E-010  0.4778727E+02  0.7816164E-02  0.1312668E+00
        -11   -1    0    0    0    0  0.00000000000E+00  0.00000000000E+00  0.45593999997E+02  0.45594000000E+02  0.51100000000E-03 0. -1.
         11   -1    0    0    0    0 -0.00000000000E+00 -0.00000000000E+00 -0.45593999997E+02  0.45594000000E+02  0.51100000000E-03 0.  1.
    9900012    2    1    2    0    0 -0.38248747442E+02  0.63229676335E+01 -0.19510933133E+02  0.47787272906E+02  0.20000008487E+02 0.  0.
         12    1    1    2    0    0  0.38248747442E+02 -0.63229676335E+01  0.19510933133E+02  0.43400727094E+02  0.00000000000E+00 0. -1.
         11    1    3    3    0    0 -0.21745817788E+02  0.12175765908E+02 -0.13373532001E+02  0.28283939350E+02  0.51100000000E-03 0. -1.
        -11    1    3    3    0    0 -0.41787555371E+01  0.10849815485E+01 -0.20660401853E+01  0.47861994430E+01  0.51100000000E-03 0.  1.
        -12    1    3    3    0    0 -0.12324174117E+02 -0.69377798232E+01 -0.40713609471E+01  0.14717134113E+02  0.00000000000E+00 0.  1.
</event>
<event>
 7    1  0.2682317E-010  0.4778729E+02  0.7816164E-02  0.1312668E+00
        -11   -1    0    0    0    0  0.00000000000E+00  0.00000000000E+00  0.45593999997E+02  0.45594000000E+02  0.51100000000E-03 0.  1.
         11   -1    0    0    0    0 -0.00000000000E+00 -0.00000000000E+00 -0.45593999997E+02  0.45594000000E+02  0.51100000000E-03 0. -1.
    9900012    2    1    2    0    0  0.37742922929E+02  0.11687956537E+02  0.17957870344E+02  0.47787289562E+02  0.20000084430E+02 0.  0.
         12    1    1    2    0    0 -0.37742922929E+02 -0.11687956537E+02 -0.17957870344E+02  0.43400710438E+02  0.00000000000E+00 0. -1.
         11    1    3    3    0    0  0.10375691224E+01  0.16361850335E+01  0.10957156064E+01  0.22258131321E+01  0.51100000000E-03 0. -1.
        -11    1    3    3    0    0  0.28445194254E+02  0.15535711741E+02  0.12845885990E+02  0.34864081840E+02  0.51100000000E-03 0.  1.
         12    1    3    3    0    0  0.82601595525E+01 -0.54839402372E+01  0.40162687477E+01  0.10697394590E+02  0.00000000000E+00 0. -1.
</event>
<event>
 7    1  0.2682317E-010  0.4778727E+02  0.7816164E-02  0.1312668E+00
        -11   -1    0    0    0    0  0.00000000000E+00  0.00000000000E+00  0.45593999997E+02  0.45594000000E+02  0.51100000000E-03 0. -1.
         11   -1    0    0    0    0 -0.00000000000E+00 -0.00000000000E+00 -0.45593999997E+02  0.45594000000E+02  0.51100000000E-03 0.  1.
    9900012    2    1    2    0    0  0.37840023997E+02 -0.18412428526E+02 -0.10617823825E+02  0.47787272781E+02  0.20000007919E+02 0.  0.
         12    1    1    2    0    0 -0.37840023997E+02  0.18412428526E+02  0.10617823825E+02  0.43400727219E+02  0.00000000000E+00 0. -1.
         11    1    3    3    0    0  0.19070559332E+01  0.76997311807E+00  0.19610994492E+00  0.20659574793E+01  0.51100000000E-03 0. -1.
        -11    1    3    3    0    0  0.35706178324E+02 -0.13271583499E+02 -0.71347031859E+01  0.38755258855E+02  0.51100000000E-03 0.  1.
        -12    1    3    3    0    0  0.22678973973E+00 -0.59108181453E+01 -0.36792305841E+01  0.69660564470E+01  0.00000000000E+00 0.  1.
</event>
<event>
 7    1  0.2682317E-010  0.4778727E+02  0.7816164E-02  0.1312668E+00
        -11   -1    0    0    0    0  0.00000000000E+00  0.00000000000E+00  0.45593999997E+02  0.45594000000E+02  0.51100000000E-03 0. -1.
         11   -1    0    0    0    0 -0.00000000000E+00 -0.00000000000E+00 -0.45593999997E+02  0.45594000000E+02  0.51100000000E-03 0.  1.
    9900012    2    1    2    0    0 -0.41132606633E+02  0.74888975161E+00 -0.13826465332E+02  0.47787270653E+02  0.19999998216E+02 0.  0.
         12    1    1    2    0    0  0.41132606633E+02 -0.74888975161E+00  0.13826465332E+02  0.43400729347E+02  0.00000000000E+00 0. -1.
         11    1    3    3    0    0 -0.28655795482E+02 -0.13684343759E+01 -0.30206431072E+01  0.28847036457E+02  0.51100000000E-03 0. -1.
        -11    1    3    3    0    0 -0.51323558672E+01  0.30788257994E+01 -0.18027687138E+00  0.59877161808E+01  0.51100000000E-03 0.  1.
        -12    1    3    3    0    0 -0.73444552840E+01 -0.96150167191E+00 -0.10625545353E+02  0.12952518015E+02  0.00000000000E+00 0.  1.
</event>
<event>
 7    1  0.2682317E-010  0.4778727E+02  0.7816164E-02  0.1312668E+00
        -11   -1    0    0    0    0  0.00000000000E+00  0.00000000000E+00  0.45593999997E+02  0.45594000000E+02  0.51100000000E-03 0.  1.
         11   -1    0    0    0    0 -0.00000000000E+00 -0.00000000000E+00 -0.45593999997E+02  0.45594000000E+02  0.51100000000E-03 0. -1.
    9900012    2    1    2    0    0  0.75182864414E+01  0.14966041877E+02  0.40038933152E+02  0.47787271799E+02  0.20000003439E+02 0.  0.
         12    1    1    2    0    0 -0.75182864414E+01 -0.14966041877E+02 -0.40038933152E+02  0.43400728201E+02  0.00000000000E+00 0. -1.
         11    1    3    3    0    0 -0.44394409562E+01  0.18841065135E+01  0.25864205949E+01  0.54724825365E+01  0.51100000000E-03 0. -1.
        -11    1    3    3    0    0  0.36690792683E+01 -0.34563855938E+00  0.48217021372E+01  0.60688071688E+01  0.51100000000E-03 0.  1.
        -12    1    3    3    0    0  0.82886481294E+01  0.13427573923E+02  0.32630810420E+02  0.36245982093E+02  0.00000000000E+00 0.  1.
</event>
<event>
 7    1  0.2682317E-010  0.4778727E+02  0.7816164E-02  0.1312668E+00
        -11   -1    0    0    0    0  0.00000000000E+00  0.00000000000E+00  0.45593999997E+02  0.45594000000E+02  0.51100000000E-03 0.  1.
         11   -1    0    0    0    0 -0.00000000000E+00 -0.00000000000E+00 -0.45593999997E+02  0.45594000000E+02  0.51100000000E-03 0. -1.
    9900012    2    1    2    0    0  0.18553923817E+01 -0.14406494807E+02  0.40897845149E+02  0.47787270612E+02  0.19999998030E+02 0.  0.
         12    1    1    2    0    0 -0.18553923817E+01  0.14406494807E+02 -0.40897845149E+02  0.43400729388E+02  0.00000000000E+00 0. -1.
         11    1    3    3    0    0 -0.45330184959E+01 -0.76077769810E+01  0.11812799036E+02  0.14763764716E+02  0.51100000000E-03 0. -1.
        -11    1    3    3    0    0 -0.27601033981E+00 -0.59211091797E+01  0.23643145418E+02  0.24374864946E+02  0.51100000000E-03 0.  1.
         12    1    3    3    0    0  0.66644212174E+01 -0.87760864670E+00  0.54419006955E+01  0.86486409499E+01  0.00000000000E+00 0. -1.
</event>
<event>
 7    1  0.2682317E-010  0.4778727E+02  0.7816164E-02  0.1312668E+00
        -11   -1    0    0    0    0  0.00000000000E+00  0.00000000000E+00  0.45593999997E+02  0.45594000000E+02  0.51100000000E-03 0. -1.
         11   -1    0    0    0    0 -0.00000000000E+00 -0.00000000000E+00 -0.45593999997E+02  0.45594000000E+02  0.51100000000E-03 0.  1.
    9900012    2    1    2    0    0  0.41864404900E+01  0.28689140332E+02 -0.32295986061E+02  0.47787265298E+02  0.19999973800E+02 0.  0.
         12    1    1    2    0    0 -0.41864404900E+01 -0.28689140332E+02  0.32295986061E+02  0.43400734702E+02  0.00000000000E+00 0. -1.
         11    1    3    3    0    0 -0.20792640187E+01 -0.49252777944E-01 -0.46931430069E+01  0.51333572095E+01  0.51100000000E-03 0. -1.
        -11    1    3    3    0    0 -0.32377472939E+01  0.83657781051E+01 -0.13185948502E+02  0.15947993259E+02  0.51100000000E-03 0.  1.
         12    1    3    3    0    0  0.95034518026E+01  0.20372615005E+02 -0.14416894552E+02  0.26705914829E+02  0.00000000000E+00 0. -1.
</event>
<event>
 7    1  0.2682317E-010  0.4778723E+02  0.7816164E-02  0.1312668E+00
        -11   -1    0    0    0    0  0.00000000000E+00  0.00000000000E+00  0.45593999997E+02  0.45594000000E+02  0.51100000000E-03 0.  1.
         11   -1    0    0    0    0 -0.00000000000E+00 -0.00000000000E+00 -0.45593999997E+02  0.45594000000E+02  0.51100000000E-03 0. -1.
    9900012    2    1    2    0    0 -0.29331808593E+02  0.31861627661E+02 -0.28476040731E+01  0.47787226257E+02  0.19999795796E+02 0.  0.
         12    1    1    2    0    0  0.29331808593E+02 -0.31861627661E+02  0.28476040731E+01  0.43400773743E+02  0.00000000000E+00 0. -1.
         11    1    3    3    0    0 -0.65784448596E+01  0.17041250700E+02  0.12763972950E+01  0.18311454134E+02  0.51100000000E-03 0. -1.
        -11    1    3    3    0    0 -0.34805245733E+01  0.37784563398E+01  0.32417052434E+01  0.60744906587E+01  0.51100000000E-03 0.  1.
         12    1    3    3    0    0 -0.19272839160E+02  0.11041920621E+02 -0.73657066115E+01  0.23401281464E+02  0.00000000000E+00 0. -1.
</event>
<event>
 7    1  0.2682317E-010  0.4778726E+02  0.7816164E-02  0.1312668E+00
        -11   -1    0    0    0    0  0.00000000000E+00  0.00000000000E+00  0.45593999997E+02  0.45594000000E+02  0.51100000000E-03 0. -1.
         11   -1    0    0    0    0 -0.00000000000E+00 -0.00000000000E+00 -0.45593999997E+02  0.45594000000E+02  0.51100000000E-03 0.  1.
    9900012    2    1    2    0    0  0.35783892380E+01 -0.43089478569E+02 -0.37571341152E+01  0.47787261646E+02  0.19999957149E+02 0.  0.
         12    1    1    2    0    0 -0.35783892380E+01  0.43089478569E+02  0.37571341152E+01  0.43400738354E+02  0.00000000000E+00 0. -1.
         11    1    3    3    0    0  0.62582493679E+01 -0.22831508217E+02 -0.14497310861E+01  0.23718034765E+02  0.51100000000E-03 0.  1.
        -11    1    3    3    0    0  0.50555569270E+01 -0.79251927089E+01 -0.88817667386E+00  0.94422557358E+01  0.51100000000E-03 0. -1.
         12    1    3    3    0    0 -0.77354170570E+01 -0.12332777643E+02 -0.14192263552E+01  0.14626971145E+02  0.00000000000E+00 0. -1.
</event>
<event>
 7    1  0.2682317E-010  0.4778727E+02  0.7816164E-02  0.1312668E+00
        -11   -1    0    0    0    0  0.00000000000E+00  0.00000000000E+00  0.45593999997E+02  0.45594000000E+02  0.51100000000E-03 0. -1.
         11   -1    0    0    0    0 -0.00000000000E+00 -0.00000000000E+00 -0.45593999997E+02  0.45594000000E+02  0.51100000000E-03 0.  1.
    9900012    2    1    2    0    0 -0.27820144147E+02  0.15956400265E+02  0.29241341866E+02  0.47787271851E+02  0.20000003676E+02 0.  0.
         12    1    1    2    0    0  0.27820144147E+02 -0.15956400265E+02 -0.29241341866E+02  0.43400728149E+02  0.00000000000E+00 0. -1.
         11    1    3    3    0    0 -0.83806791928E+01 -0.22475056452E+01  0.47217528488E+01  0.98783609766E+01  0.51100000000E-03 0. -1.
        -11    1    3    3    0    0 -0.11175823797E+02  0.55219119136E+01  0.55632721267E+01  0.13650661000E+02  0.51100000000E-03 0.  1.
        -12    1    3    3    0    0 -0.82636411570E+01  0.12681993997E+02  0.18956316891E+02  0.24258249874E+02  0.00000000000E+00 0.  1.
</event>
<event>
 7    1  0.2682317E-010  0.4778727E+02  0.7816164E-02  0.1312668E+00
        -11   -1    0    0    0    0  0.00000000000E+00  0.00000000000E+00  0.45593999997E+02  0.45594000000E+02  0.51100000000E-03 0.  1.
         11   -1    0    0    0    0 -0.00000000000E+00 -0.00000000000E+00 -0.45593999997E+02  0.45594000000E+02  0.51100000000E-03 0. -1.
    9900012    2    1    2    0    0  0.33259424146E+02 -0.25327333212E+02  0.11660202756E+02  0.47787269240E+02  0.19999991774E+02 0.  0.
         12    1    1    2    0    0 -0.33259424146E+02  0.25327333212E+02 -0.11660202756E+02  0.43400730760E+02  0.00000000000E+00 0. -1.
         11    1    3    3    0    0  0.47111785627E+01 -0.15530147815E+01  0.16668751352E+01  0.52331187010E+01  0.51100000000E-03 0.  1.
        -11    1    3    3    0    0  0.15552224257E+02 -0.13678416291E+02  0.14746219219E+02  0.25424825134E+02  0.51100000000E-03 0. -1.
        -12    1    3    3    0    0  0.12996021326E+02 -0.10095902139E+02 -0.47528915974E+01  0.17129325405E+02  0.00000000000E+00 0.  1.
</event>
<event>
 7    1  0.2682317E-010  0.4778728E+02  0.7816164E-02  0.1312668E+00
        -11   -1    0    0    0    0  0.00000000000E+00  0.00000000000E+00  0.45593999997E+02  0.45594000000E+02  0.51100000000E-03 0. -1.
         11   -1    0    0    0    0 -0.00000000000E+00 -0.00000000000E+00 -0.45593999997E+02  0.45594000000E+02  0.51100000000E-03 0.  1.
    9900012    2    1    2    0    0  0.39542315937E+02 -0.14376452881E+01 -0.17831458865E+02  0.47787279973E+02  0.20000040709E+02 0.  0.
         12    1    1    2    0    0 -0.39542315937E+02  0.14376452881E+01  0.17831458865E+02  0.43400720027E+02  0.00000000000E+00 0. -1.
         11    1    3    3    0    0  0.13463188542E+02  0.16120826308E+01 -0.84022301261E+01  0.15951605796E+02  0.51100000000E-03 0.  1.
        -11    1    3    3    0    0  0.17938425128E+02 -0.52201034230E+01 -0.12921322832E+02  0.22715570867E+02  0.51100000000E-03 0. -1.
         12    1    3    3    0    0  0.81407022667E+01  0.21703755041E+01  0.34920940933E+01  0.91201033098E+01  0.00000000000E+00 0. -1.
</event>
<event>
 7    1  0.2682317E-010  0.4778727E+02  0.7816164E-02  0.1312668E+00
        -11   -1    0    0    0    0  0.00000000000E+00  0.00000000000E+00  0.45593999997E+02  0.45594000000E+02  0.51100000000E-03 0.  1.
         11   -1    0    0    0    0 -0.00000000000E+00 -0.00000000000E+00 -0.45593999997E+02  0.45594000000E+02  0.51100000000E-03 0. -1.
    9900012    2    1    2    0    0 -0.22835072866E+02  0.30539127851E+02  0.20725451929E+02  0.47787271431E+02  0.20000001761E+02 0.  0.
         12    1    1    2    0    0  0.22835072866E+02 -0.30539127851E+02 -0.20725451929E+02  0.43400728569E+02  0.00000000000E+00 0. -1.
         11    1    3    3    0    0 -0.33651112338E+01  0.17157957523E+02  0.35852752758E+01  0.17848632413E+02  0.51100000000E-03 0. -1.
        -11    1    3    3    0    0 -0.41233621797E+01  0.63083874674E+01  0.39951075419E+01  0.85298741279E+01  0.51100000000E-03 0.  1.
        -12    1    3    3    0    0 -0.15346599452E+02  0.70727828608E+01  0.13145069111E+02  0.21408764889E+02  0.00000000000E+00 0.  1.
</event>
<event>
 7    1  0.2682317E-010  0.4778727E+02  0.7816164E-02  0.1312668E+00
        -11   -1    0    0    0    0  0.00000000000E+00  0.00000000000E+00  0.45593999997E+02  0.45594000000E+02  0.51100000000E-03 0.  1.
         11   -1    0    0    0    0 -0.00000000000E+00 -0.00000000000E+00 -0.45593999997E+02  0.45594000000E+02  0.51100000000E-03 0. -1.
    9900012    2    1    2    0    0 -0.12374887193E+02  0.15503985500E+01  0.41570202256E+02  0.47787270924E+02  0.19999999453E+02 0.  0.
         12    1    1    2    0    0  0.12374887193E+02 -0.15503985500E+01 -0.41570202256E+02  0.43400729076E+02  0.00000000000E+00 0. -1.
         11    1    3    3    0    0 -0.49486506838E+01  0.50315873030E+01  0.22180077017E+02  0.23275777777E+02  0.51100000000E-03 0. -1.
        -11    1    3    3    0    0 -0.39633485917E+01  0.43311477320E+01  0.11349130930E+02  0.12777705031E+02  0.51100000000E-03 0.  1.
         12    1    3    3    0    0 -0.34628879177E+01 -0.78123364851E+01  0.80409943088E+01  0.11733788116E+02  0.00000000000E+00 0. -1.
</event>
<event>
 7    1  0.2682317E-010  0.4778727E+02  0.7816164E-02  0.1312668E+00
        -11   -1    0    0    0    0  0.00000000000E+00  0.00000000000E+00  0.45593999997E+02  0.45594000000E+02  0.51100000000E-03 0.  1.
         11   -1    0    0    0    0 -0.00000000000E+00 -0.00000000000E+00 -0.45593999997E+02  0.45594000000E+02  0.51100000000E-03 0. -1.
    9900012    2    1    2    0    0  0.12311294673E+02  0.32919516570E+02  0.25462932446E+02  0.47787268711E+02  0.19999989359E+02 0.  0.
         12    1    1    2    0    0 -0.12311294673E+02 -0.32919516570E+02 -0.25462932446E+02  0.43400731289E+02  0.00000000000E+00 0. -1.
         11    1    3    3    0    0 -0.74056909853E-01  0.77803280289E+01  0.49932534523E+01  0.92450835023E+01  0.51100000000E-03 0. -1.
        -11    1    3    3    0    0  0.49104918297E+01  0.24206610073E+02  0.12909619863E+02  0.27869897497E+02  0.51100000000E-03 0.  1.
        -12    1    3    3    0    0  0.74748597528E+01  0.93257846753E+00  0.75600591309E+01  0.10672287711E+02  0.00000000000E+00 0.  1.
</event>
<event>
 7    1  0.2682317E-010  0.4778727E+02  0.7816164E-02  0.1312668E+00
        -11   -1    0    0    0    0  0.00000000000E+00  0.00000000000E+00  0.45593999997E+02  0.45594000000E+02  0.51100000000E-03 0.  1.
         11   -1    0    0    0    0 -0.00000000000E+00 -0.00000000000E+00 -0.45593999997E+02  0.45594000000E+02  0.51100000000E-03 0. -1.
    9900012    2    1    2    0    0 -0.57751965861E+01  0.45685186575E+01  0.42771476826E+02  0.47787268575E+02  0.19999988741E+02 0.  0.
         12    1    1    2    0    0  0.57751965861E+01 -0.45685186575E+01 -0.42771476826E+02  0.43400731425E+02  0.00000000000E+00 0. -1.
         11    1    3    3    0    0 -0.54769254590E+01  0.41861077818E+01  0.94998517319E+01  0.11737435582E+02  0.51100000000E-03 0. -1.
        -11    1    3    3    0    0 -0.39508150253E+01 -0.39724763830E+01  0.60687183563E+01  0.82594703660E+01  0.51100000000E-03 0.  1.
         12    1    3    3    0    0  0.36525438982E+01  0.43548872587E+01  0.27202906738E+02  0.27790362627E+02  0.00000000000E+00 0. -1.
</event>
<event>
 7    1  0.2682317E-010  0.4778727E+02  0.7816164E-02  0.1312668E+00
        -11   -1    0    0    0    0  0.00000000000E+00  0.00000000000E+00  0.45593999997E+02  0.45594000000E+02  0.51100000000E-03 0. -1.
         11   -1    0    0    0    0 -0.00000000000E+00 -0.00000000000E+00 -0.45593999997E+02  0.45594000000E+02  0.51100000000E-03 0.  1.
    9900012    2    1    2    0    0  0.40168424130E+02 -0.15581251113E+02  0.52293179644E+01  0.47787269019E+02  0.19999990765E+02 0.  0.
         12    1    1    2    0    0 -0.40168424130E+02  0.15581251113E+02 -0.52293179644E+01  0.43400730981E+02  0.00000000000E+00 0. -1.
         11    1    3    3    0    0  0.49615761158E+01 -0.15764125040E+01  0.50783004867E+01  0.72726508255E+01  0.51100000000E-03 0. -1.
        -11    1    3    3    0    0  0.36140782384E+02 -0.12406193057E+02  0.14736401830E+01  0.38239265071E+02  0.51100000000E-03 0.  1.
         12    1    3    3    0    0 -0.93393437074E+00 -0.15986455526E+01 -0.13226227052E+01  0.22753531225E+01  0.00000000000E+00 0. -1.
</event>
<event>
 7    1  0.2682317E-010  0.4778727E+02  0.7816164E-02  0.1312668E+00
        -11   -1    0    0    0    0  0.00000000000E+00  0.00000000000E+00  0.45593999997E+02  0.45594000000E+02  0.51100000000E-03 0.  1.
         11   -1    0    0    0    0 -0.00000000000E+00 -0.00000000000E+00 -0.45593999997E+02  0.45594000000E+02  0.51100000000E-03 0. -1.
    9900012    2    1    2    0    0 -0.28185726957E+02 -0.21343181489E+02  0.25172532731E+02  0.47787274151E+02  0.20000014162E+02 0.  0.
         12    1    1    2    0    0  0.28185726957E+02  0.21343181489E+02 -0.25172532731E+02  0.43400725849E+02  0.00000000000E+00 0. -1.
         11    1    3    3    0    0 -0.42046264385E+01  0.25892790811E+01  0.54627732071E+01  0.73637722005E+01  0.51100000000E-03 0. -1.
        -11    1    3    3    0    0 -0.26986104521E+01 -0.48501676119E+00  0.45584813538E+01  0.53195387154E+01  0.51100000000E-03 0.  1.
        -12    1    3    3    0    0 -0.21282490067E+02 -0.23447443809E+02  0.15151278170E+02  0.35103963235E+02  0.00000000000E+00 0.  1.
</event>
<event>
 7    1  0.2682317E-010  0.4778727E+02  0.7816164E-02  0.1312668E+00
        -11   -1    0    0    0    0  0.00000000000E+00  0.00000000000E+00  0.45593999997E+02  0.45594000000E+02  0.51100000000E-03 0. -1.
         11   -1    0    0    0    0 -0.00000000000E+00 -0.00000000000E+00 -0.45593999997E+02  0.45594000000E+02  0.51100000000E-03 0.  1.
    9900012    2    1    2    0    0 -0.11859856974E+02  0.39058652534E+02 -0.14744104495E+02  0.47787272326E+02  0.20000005845E+02 0.  0.
         12    1    1    2    0    0  0.11859856974E+02 -0.39058652534E+02  0.14744104495E+02  0.43400727674E+02  0.00000000000E+00 0. -1.
         11    1    3    3    0    0 -0.11511739677E+02  0.18708875652E+02 -0.11475128799E+02  0.24783477556E+02  0.51100000000E-03 0.  1.
        -11    1    3    3    0    0 -0.26578851222E+01  0.11983091720E+02 -0.63170494322E+01  0.13804490367E+02  0.51100000000E-03 0. -1.
         12    1    3    3    0    0  0.23097678257E+01  0.83666851622E+01  0.30480737358E+01  0.91993044036E+01  0.00000000000E+00 0. -1.
</event>
<event>
 7    1  0.2682317E-010  0.4778727E+02  0.7816164E-02  0.1312668E+00
        -11   -1    0    0    0    0  0.00000000000E+00  0.00000000000E+00  0.45593999997E+02  0.45594000000E+02  0.51100000000E-03 0.  1.
         11   -1    0    0    0    0 -0.00000000000E+00 -0.00000000000E+00 -0.45593999997E+02  0.45594000000E+02  0.51100000000E-03 0. -1.
    9900012    2    1    2    0    0  0.31671872180E+01  0.39829198101E+02  0.16947782028E+02  0.47787269454E+02  0.19999992748E+02 0.  0.
         12    1    1    2    0    0 -0.31671872180E+01 -0.39829198101E+02 -0.16947782028E+02  0.43400730546E+02  0.00000000000E+00 0. -1.
         11    1    3    3    0    0  0.16439940664E+00  0.12085836191E+02  0.21587578838E+01  0.12278220534E+02  0.51100000000E-03 0.  1.
        -11    1    3    3    0    0 -0.35147615989E+01  0.20837977432E+02  0.46887884930E+01  0.21646237326E+02  0.51100000000E-03 0. -1.
         12    1    3    3    0    0  0.65175494103E+01  0.69053844778E+01  0.10100235651E+02  0.13862811595E+02  0.00000000000E+00 0. -1.
</event>
<event>
 7    1  0.2682317E-010  0.4778727E+02  0.7816164E-02  0.1312668E+00
        -11   -1    0    0    0    0  0.00000000000E+00  0.00000000000E+00  0.45593999997E+02  0.45594000000E+02  0.51100000000E-03 0. -1.
         11   -1    0    0    0    0 -0.00000000000E+00 -0.00000000000E+00 -0.45593999997E+02  0.45594000000E+02  0.51100000000E-03 0.  1.
    9900012    2    1    2    0    0 -0.20522485054E+02  0.17018600973E+02 -0.34246429283E+02  0.47787273157E+02  0.20000009634E+02 0.  0.
         12    1    1    2    0    0  0.20522485054E+02 -0.17018600973E+02  0.34246429283E+02  0.43400726843E+02  0.00000000000E+00 0. -1.
         11    1    3    3    0    0 -0.10145169309E+02  0.10547890850E+02 -0.99354375806E+01  0.17688849083E+02  0.51100000000E-03 0. -1.
        -11    1    3    3    0    0 -0.10539979491E+02  0.20786458238E+01 -0.85322644784E+01  0.13719018680E+02  0.51100000000E-03 0.  1.
         12    1    3    3    0    0  0.16266374643E+00  0.43920642991E+01 -0.15778727224E+02  0.16379405395E+02  0.00000000000E+00 0. -1.
</event>
<event>
 7    1  0.2682317E-010  0.4778727E+02  0.7816164E-02  0.1312668E+00
        -11   -1    0    0    0    0  0.00000000000E+00  0.00000000000E+00  0.45593999997E+02  0.45594000000E+02  0.51100000000E-03 0.  1.
         11   -1    0    0    0    0 -0.00000000000E+00 -0.00000000000E+00 -0.45593999997E+02  0.45594000000E+02  0.51100000000E-03 0. -1.
    9900012    2    1    2    0    0 -0.42232369857E+01  0.39887904343E+02  0.16575358790E+02  0.47787272327E+02  0.20000005847E+02 0.  0.
         12    1    1    2    0    0  0.42232369857E+01 -0.39887904343E+02 -0.16575358790E+02  0.43400727673E+02  0.00000000000E+00 0. -1.
         11    1    3    3    0    0 -0.55443462051E+01  0.20973670584E+02  0.16582932595E+02  0.27306195017E+02  0.51100000000E-03 0. -1.
        -11    1    3    3    0    0 -0.29542836989E+01  0.61429994804E+01  0.13366841014E+01  0.69462910562E+01  0.51100000000E-03 0.  1.
         12    1    3    3    0    0  0.42753929183E+01  0.12771234279E+02 -0.13442579060E+01  0.13534786254E+02  0.00000000000E+00 0. -1.
</event>
<event>
 7    1  0.2682317E-010  0.4778727E+02  0.7816164E-02  0.1312668E+00
        -11   -1    0    0    0    0  0.00000000000E+00  0.00000000000E+00  0.45593999997E+02  0.45594000000E+02  0.51100000000E-03 0. -1.
         11   -1    0    0    0    0 -0.00000000000E+00 -0.00000000000E+00 -0.45593999997E+02  0.45594000000E+02  0.51100000000E-03 0.  1.
    9900012    2    1    2    0    0 -0.32060619840E+02 -0.30387551286E+01 -0.29094775240E+02  0.47787270472E+02  0.19999997390E+02 0.  0.
         12    1    1    2    0    0  0.32060619840E+02  0.30387551286E+01  0.29094775240E+02  0.43400729528E+02  0.00000000000E+00 0. -1.
         11    1    3    3    0    0 -0.26698235791E+01 -0.28186861947E+00 -0.74525510702E+01  0.79213588213E+01  0.51100000000E-03 0. -1.
        -11    1    3    3    0    0 -0.52956676910E+01 -0.27554987823E+01 -0.12934459254E+02  0.14245599542E+02  0.51100000000E-03 0.  1.
         12    1    3    3    0    0 -0.24095128570E+02 -0.13877268420E-02 -0.87077649155E+01  0.25620312109E+02  0.00000000000E+00 0. -1.
</event>
<event>
 7    1  0.2682317E-010  0.4778727E+02  0.7816164E-02  0.1312668E+00
        -11   -1    0    0    0    0  0.00000000000E+00  0.00000000000E+00  0.45593999997E+02  0.45594000000E+02  0.51100000000E-03 0.  1.
         11   -1    0    0    0    0 -0.00000000000E+00 -0.00000000000E+00 -0.45593999997E+02  0.45594000000E+02  0.51100000000E-03 0. -1.
    9900012    2    1    2    0    0 -0.18042454235E+02  0.17010289047E+02  0.35619424693E+02  0.47787268396E+02  0.19999987925E+02 0.  0.
         12    1    1    2    0    0  0.18042454235E+02 -0.17010289047E+02 -0.35619424693E+02  0.43400731604E+02  0.00000000000E+00 0. -1.
         11    1    3    3    0    0 -0.45729677212E+01  0.12876555321E+02  0.20288022670E+02  0.24460612724E+02  0.51100000000E-03 0. -1.
        -11    1    3    3    0    0 -0.10085108691E+01  0.97710445203E+00  0.87936483592E+01  0.89050591806E+01  0.51100000000E-03 0.  1.
        -12    1    3    3    0    0 -0.12460975645E+02  0.31566292741E+01  0.65377536641E+01  0.14421596491E+02  0.00000000000E+00 0.  1.
</event>
<event>
 7    1  0.2682317E-010  0.4778727E+02  0.7816164E-02  0.1312668E+00
        -11   -1    0    0    0    0  0.00000000000E+00  0.00000000000E+00  0.45593999997E+02  0.45594000000E+02  0.51100000000E-03 0.  1.
         11   -1    0    0    0    0 -0.00000000000E+00 -0.00000000000E+00 -0.45593999997E+02  0.45594000000E+02  0.51100000000E-03 0. -1.
    9900012    2    1    2    0    0  0.30197139561E+02 -0.96695837239E+01  0.29635368833E+02  0.47787272207E+02  0.20000005302E+02 0.  0.
         12    1    1    2    0    0 -0.30197139561E+02  0.96695837239E+01 -0.29635368833E+02  0.43400727793E+02  0.00000000000E+00 0. -1.
         11    1    3    3    0    0  0.25848982973E+02 -0.67248196010E+01  0.14677827436E+02  0.30476740933E+02  0.51100000000E-03 0. -1.
        -11    1    3    3    0    0  0.60476599641E+01 -0.28610960422E+01  0.96919668455E+01  0.11776853705E+02  0.51100000000E-03 0.  1.
         12    1    3    3    0    0 -0.16995033763E+01 -0.83668080676E-01  0.52655745515E+01  0.55336775685E+01  0.00000000000E+00 0. -1.
</event>
<event>
 7    1  0.2682317E-010  0.4778727E+02  0.7816164E-02  0.1312668E+00
        -11   -1    0    0    0    0  0.00000000000E+00  0.00000000000E+00  0.45593999997E+02  0.45594000000E+02  0.51100000000E-03 0. -1.
         11   -1    0    0    0    0 -0.00000000000E+00 -0.00000000000E+00 -0.45593999997E+02  0.45594000000E+02  0.51100000000E-03 0.  1.
    9900012    2    1    2    0    0  0.18187302901E+02  0.20153312606E+02 -0.33862800645E+02  0.47787271166E+02  0.20000000553E+02 0.  0.
         12    1    1    2    0    0 -0.18187302901E+02 -0.20153312606E+02  0.33862800645E+02  0.43400728834E+02  0.00000000000E+00 0. -1.
         11    1    3    3    0    0 -0.21323682038E+01  0.36867595279E+01  0.24758699188E-01  0.42590847875E+01  0.51100000000E-03 0. -1.
        -11    1    3    3    0    0  0.44047337991E+01  0.56100868748E+01 -0.46513333890E+01  0.85152602509E+01  0.51100000000E-03 0.  1.
         12    1    3    3    0    0  0.15914937306E+02  0.10856466203E+02 -0.29236225956E+02  0.35012926127E+02  0.00000000000E+00 0. -1.
</event>
<event>
 7    1  0.2682317E-010  0.4778726E+02  0.7816164E-02  0.1312668E+00
        -11   -1    0    0    0    0  0.00000000000E+00  0.00000000000E+00  0.45593999997E+02  0.45594000000E+02  0.51100000000E-03 0.  1.
         11   -1    0    0    0    0 -0.00000000000E+00 -0.00000000000E+00 -0.45593999997E+02  0.45594000000E+02  0.51100000000E-03 0. -1.
    9900012    2    1    2    0    0 -0.23413610083E+02  0.27170579297E+01  0.36442342361E+02  0.47787264319E+02  0.19999969335E+02 0.  0.
         12    1    1    2    0    0  0.23413610083E+02 -0.27170579297E+01 -0.36442342361E+02  0.43400735681E+02  0.00000000000E+00 0. -1.
         11    1    3    3    0    0 -0.11548552643E+02  0.23783076820E-01  0.40776954778E+01  0.12247335811E+02  0.51100000000E-03 0. -1.
        -11    1    3    3    0    0 -0.85652336996E+01 -0.49764358401E+00  0.12562664580E+02  0.15212870179E+02  0.51100000000E-03 0.  1.
        -12    1    3    3    0    0 -0.32998237401E+01  0.31909184368E+01  0.19801982303E+02  0.20327058329E+02  0.00000000000E+00 0.  1.
</event>
<event>
 7    1  0.2682317E-010  0.4778727E+02  0.7816164E-02  0.1312668E+00
        -11   -1    0    0    0    0  0.00000000000E+00  0.00000000000E+00  0.45593999997E+02  0.45594000000E+02  0.51100000000E-03 0. -1.
         11   -1    0    0    0    0 -0.00000000000E+00 -0.00000000000E+00 -0.45593999997E+02  0.45594000000E+02  0.51100000000E-03 0.  1.
    9900012    2    1    2    0    0 -0.26684531912E+02  0.32879090848E+02  0.95144458885E+01  0.47787267992E+02  0.19999986080E+02 0.  0.
         12    1    1    2    0    0  0.26684531912E+02 -0.32879090848E+02 -0.95144458885E+01  0.43400732008E+02  0.00000000000E+00 0. -1.
         11    1    3    3    0    0 -0.33987114941E+01  0.44276947169E+01 -0.33901341609E+01  0.65305995296E+01  0.51100000000E-03 0. -1.
        -11    1    3    3    0    0 -0.95405002674E+01  0.18015917105E+02  0.12345932921E+01  0.20423482449E+02  0.51100000000E-03 0.  1.
        -12    1    3    3    0    0 -0.13745320150E+02  0.10435479025E+02  0.11669986757E+02  0.20833186013E+02  0.00000000000E+00 0.  1.
</event>
<event>
 7    1  0.2682317E-010  0.4778727E+02  0.7816164E-02  0.1312668E+00
        -11   -1    0    0    0    0  0.00000000000E+00  0.00000000000E+00  0.45593999997E+02  0.45594000000E+02  0.51100000000E-03 0.  1.
         11   -1    0    0    0    0 -0.00000000000E+00 -0.00000000000E+00 -0.45593999997E+02  0.45594000000E+02  0.51100000000E-03 0. -1.
    9900012    2    1    2    0    0  0.74263849846E+01  0.41938933358E+02  0.83425463834E+01  0.47787269530E+02  0.19999993097E+02 0.  0.
         12    1    1    2    0    0 -0.74263849846E+01 -0.41938933358E+02 -0.83425463834E+01  0.43400730470E+02  0.00000000000E+00 0. -1.
         11    1    3    3    0    0 -0.10914660626E+01  0.10422492367E+02  0.15858257034E+01  0.10598796570E+02  0.51100000000E-03 0. -1.
        -11    1    3    3    0    0  0.79751280420E+01  0.32890245228E+02  0.40235181675E+01  0.34081660716E+02  0.51100000000E-03 0.  1.
         12    1    3    3    0    0  0.54272300516E+00 -0.13738042379E+01  0.27332025124E+01  0.31068122438E+01  0.00000000000E+00 0. -1.
</event>
<event>
 7    1  0.2682317E-010  0.4778727E+02  0.7816164E-02  0.1312668E+00
        -11   -1    0    0    0    0  0.00000000000E+00  0.00000000000E+00  0.45593999997E+02  0.45594000000E+02  0.51100000000E-03 0. -1.
         11   -1    0    0    0    0 -0.00000000000E+00 -0.00000000000E+00 -0.45593999997E+02  0.45594000000E+02  0.51100000000E-03 0.  1.
    9900012    2    1    2    0    0  0.44814310429E+01 -0.40991850019E+02 -0.13535435585E+02  0.47787274100E+02  0.20000013932E+02 0.  0.
         12    1    1    2    0    0 -0.44814310429E+01  0.40991850019E+02  0.13535435585E+02  0.43400725900E+02  0.00000000000E+00 0. -1.
         11    1    3    3    0    0  0.15950415068E+01 -0.44356882867E+01 -0.23908610030E+00  0.47198146584E+01  0.51100000000E-03 0. -1.
        -11    1    3    3    0    0 -0.43696878587E+01 -0.20225119049E+02 -0.14326373743E+02  0.25167331949E+02  0.51100000000E-03 0.  1.
        -12    1    3    3    0    0  0.72560773948E+01 -0.16331042683E+02  0.10300242589E+01  0.17900127493E+02  0.00000000000E+00 0.  1.
</event>
<event>
 7    1  0.2682317E-010  0.4778727E+02  0.7816164E-02  0.1312668E+00
        -11   -1    0    0    0    0  0.00000000000E+00  0.00000000000E+00  0.45593999997E+02  0.45594000000E+02  0.51100000000E-03 0. -1.
         11   -1    0    0    0    0 -0.00000000000E+00 -0.00000000000E+00 -0.45593999997E+02  0.45594000000E+02  0.51100000000E-03 0.  1.
    9900012    2    1    2    0    0 -0.19962488794E+02 -0.11526116889E+02 -0.36773235101E+02  0.47787272480E+02  0.20000006547E+02 0.  0.
         12    1    1    2    0    0  0.19962488794E+02  0.11526116889E+02  0.36773235101E+02  0.43400727520E+02  0.00000000000E+00 0. -1.
         11    1    3    3    0    0 -0.27285771572E+01 -0.23234748731E+01  0.26287872181E+00  0.35934348849E+01  0.51100000000E-03 0. -1.
        -11    1    3    3    0    0 -0.15931332635E+02 -0.11996910242E+02 -0.35571441584E+02  0.40780640891E+02  0.51100000000E-03 0.  1.
        -12    1    3    3    0    0 -0.13025790021E+01  0.27942682258E+01 -0.14646722394E+01  0.34131967045E+01  0.00000000000E+00 0.  1.
</event>
<event>
 7    1  0.2682317E-010  0.4778727E+02  0.7816164E-02  0.1312668E+00
        -11   -1    0    0    0    0  0.00000000000E+00  0.00000000000E+00  0.45593999997E+02  0.45594000000E+02  0.51100000000E-03 0.  1.
         11   -1    0    0    0    0 -0.00000000000E+00 -0.00000000000E+00 -0.45593999997E+02  0.45594000000E+02  0.51100000000E-03 0. -1.
    9900012    2    1    2    0    0 -0.79257652408E+01 -0.26795156923E+02  0.33208808643E+02  0.47787272348E+02  0.20000005945E+02 0.  0.
         12    1    1    2    0    0  0.79257652408E+01  0.26795156923E+02 -0.33208808643E+02  0.43400727652E+02  0.00000000000E+00 0. -1.
         11    1    3    3    0    0 -0.61351485444E+01 -0.21113844181E+01  0.48056721559E+01  0.80741858384E+01  0.51100000000E-03 0. -1.
        -11    1    3    3    0    0 -0.32757768022E+01 -0.38638550603E+01  0.83407210857E+00  0.51337867240E+01  0.51100000000E-03 0.  1.
        -12    1    3    3    0    0  0.14851601057E+01 -0.20819917445E+02  0.27569064379E+02  0.34579299786E+02  0.00000000000E+00 0.  1.
</event>
<event>
 7    1  0.2682317E-010  0.4778727E+02  0.7816164E-02  0.1312668E+00
        -11   -1    0    0    0    0  0.00000000000E+00  0.00000000000E+00  0.45593999997E+02  0.45594000000E+02  0.51100000000E-03 0. -1.
         11   -1    0    0    0    0 -0.00000000000E+00 -0.00000000000E+00 -0.45593999997E+02  0.45594000000E+02  0.51100000000E-03 0.  1.
    9900012    2    1    2    0    0  0.31194035773E+02 -0.23312002687E+02 -0.19160013555E+02  0.47787268941E+02  0.19999990407E+02 0.  0.
         12    1    1    2    0    0 -0.31194035773E+02  0.23312002687E+02  0.19160013555E+02  0.43400731059E+02  0.00000000000E+00 0. -1.
         11    1    3    3    0    0  0.32154629617E+01 -0.85257765893E+01 -0.34402574985E+01  0.97397864672E+01  0.51100000000E-03 0. -1.
        -11    1    3    3    0    0  0.84597413506E+01 -0.11641023092E+02 -0.35156779788E+01  0.14813528758E+02  0.51100000000E-03 0.  1.
        -12    1    3    3    0    0  0.19518831460E+02 -0.31452030057E+01 -0.12204078077E+02  0.23233953715E+02  0.00000000000E+00 0.  1.
</event>
<event>
 7    1  0.2682317E-010  0.4778727E+02  0.7816164E-02  0.1312668E+00
        -11   -1    0    0    0    0  0.00000000000E+00  0.00000000000E+00  0.45593999997E+02  0.45594000000E+02  0.51100000000E-03 0.  1.
         11   -1    0    0    0    0 -0.00000000000E+00 -0.00000000000E+00 -0.45593999997E+02  0.45594000000E+02  0.51100000000E-03 0. -1.
    9900012    2    1    2    0    0  0.39304014411E+02 -0.23056265171E+00  0.18405560063E+02  0.47787270177E+02  0.19999996044E+02 0.  0.
         12    1    1    2    0    0 -0.39304014411E+02  0.23056265171E+00 -0.18405560063E+02  0.43400729823E+02  0.00000000000E+00 0. -1.
         11    1    3    3    0    0  0.67940023347E+01  0.54257743739E+01 -0.13741981040E+01  0.88026084753E+01  0.51100000000E-03 0. -1.
        -11    1    3    3    0    0  0.11322830453E+02  0.57783072394E+00  0.48796838467E+01  0.12343082780E+02  0.51100000000E-03 0.  1.
        -12    1    3    3    0    0  0.21187181623E+02 -0.62341677496E+01  0.14900074320E+02  0.26641578921E+02  0.00000000000E+00 0.  1.
</event>
<event>
 7    1  0.2682317E-010  0.4778727E+02  0.7816164E-02  0.1312668E+00
        -11   -1    0    0    0    0  0.00000000000E+00  0.00000000000E+00  0.45593999997E+02  0.45594000000E+02  0.51100000000E-03 0.  1.
         11   -1    0    0    0    0 -0.00000000000E+00 -0.00000000000E+00 -0.45593999997E+02  0.45594000000E+02  0.51100000000E-03 0. -1.
    9900012    2    1    2    0    0  0.23945370673E+02  0.16782471216E+02  0.32071663083E+02  0.47787266254E+02  0.19999978160E+02 0.  0.
         12    1    1    2    0    0 -0.23945370673E+02 -0.16782471216E+02 -0.32071663083E+02  0.43400733746E+02  0.00000000000E+00 0. -1.
         11    1    3    3    0    0 -0.10990229439E+01 -0.17557948701E+00 -0.17406341970E+00  0.11264892022E+01  0.51100000000E-03 0. -1.
        -11    1    3    3    0    0  0.42652840541E+01  0.10038681477E+02  0.58997328637E+01  0.12400589582E+02  0.51100000000E-03 0.  1.
         12    1    3    3    0    0  0.20779109562E+02  0.69193692263E+01  0.26345993639E+02  0.34260187470E+02  0.00000000000E+00 0. -1.
</event>
<event>
 7    1  0.2682317E-010  0.4778727E+02  0.7816164E-02  0.1312668E+00
        -11   -1    0    0    0    0  0.00000000000E+00  0.00000000000E+00  0.45593999997E+02  0.45594000000E+02  0.51100000000E-03 0.  1.
         11   -1    0    0    0    0 -0.00000000000E+00 -0.00000000000E+00 -0.45593999997E+02  0.45594000000E+02  0.51100000000E-03 0. -1.
    9900012    2    1    2    0    0  0.41082039477E+01 -0.41132016823E+02  0.13225105320E+02  0.47787267767E+02  0.19999985057E+02 0.  0.
         12    1    1    2    0    0 -0.41082039477E+01  0.41132016823E+02 -0.13225105320E+02  0.43400732233E+02  0.00000000000E+00 0. -1.
         11    1    3    3    0    0  0.33662631274E+01 -0.50194636485E+01  0.19010979250E+01  0.63356859410E+01  0.51100000000E-03 0. -1.
        -11    1    3    3    0    0 -0.43158138450E+01 -0.22611355713E+01 -0.11779086992E+01  0.50126292882E+01  0.51100000000E-03 0.  1.
        -12    1    3    3    0    0  0.50577546653E+01 -0.33851417603E+02  0.12501916095E+02  0.36438952538E+02  0.00000000000E+00 0.  1.
</event>
<event>
 7    1  0.2682317E-010  0.4778728E+02  0.7816164E-02  0.1312668E+00
        -11   -1    0    0    0    0  0.00000000000E+00  0.00000000000E+00  0.45593999997E+02  0.45594000000E+02  0.51100000000E-03 0.  1.
         11   -1    0    0    0    0 -0.00000000000E+00 -0.00000000000E+00 -0.45593999997E+02  0.45594000000E+02  0.51100000000E-03 0. -1.
    9900012    2    1    2    0    0 -0.21409790649E+02  0.30695712569E+02  0.21977632079E+02  0.47787283214E+02  0.20000055485E+02 0.  0.
         12    1    1    2    0    0  0.21409790649E+02 -0.30695712569E+02 -0.21977632079E+02  0.43400716786E+02  0.00000000000E+00 0. -1.
         11    1    3    3    0    0 -0.28171600536E+01  0.59226881334E+01 -0.36054787988E+01  0.74842570187E+01  0.51100000000E-03 0. -1.
        -11    1    3    3    0    0 -0.57797225111E+01  0.84387386364E+01  0.66039448866E+01  0.12174957511E+02  0.51100000000E-03 0.  1.
         12    1    3    3    0    0 -0.12812908084E+02  0.16334285800E+02  0.18979165991E+02  0.28128068684E+02  0.00000000000E+00 0. -1.
</event>
<event>
 7    1  0.2682317E-010  0.4778728E+02  0.7816164E-02  0.1312668E+00
        -11   -1    0    0    0    0  0.00000000000E+00  0.00000000000E+00  0.45593999997E+02  0.45594000000E+02  0.51100000000E-03 0.  1.
         11   -1    0    0    0    0 -0.00000000000E+00 -0.00000000000E+00 -0.45593999997E+02  0.45594000000E+02  0.51100000000E-03 0. -1.
    9900012    2    1    2    0    0  0.20144860614E+02  0.38201709337E+02 -0.42937910542E+01  0.47787278266E+02  0.20000032924E+02 0.  0.
         12    1    1    2    0    0 -0.20144860614E+02 -0.38201709337E+02  0.42937910542E+01  0.43400721734E+02  0.00000000000E+00 0. -1.
         11    1    3    3    0    0  0.13297121548E+02  0.17871103052E+02  0.12794044526E+00  0.22275684833E+02  0.51100000000E-03 0. -1.
        -11    1    3    3    0    0  0.53232177650E+01  0.90498439011E+00  0.47478567527E+00  0.54204304090E+01  0.51100000000E-03 0.  1.
         12    1    3    3    0    0  0.15245213012E+01  0.19425621895E+02 -0.48965171747E+01  0.20091163023E+02  0.00000000000E+00 0. -1.
</event>
<event>
 7    1  0.2682317E-010  0.4778727E+02  0.7816164E-02  0.1312668E+00
        -11   -1    0    0    0    0  0.00000000000E+00  0.00000000000E+00  0.45593999997E+02  0.45594000000E+02  0.51100000000E-03 0.  1.
         11   -1    0    0    0    0 -0.00000000000E+00 -0.00000000000E+00 -0.45593999997E+02  0.45594000000E+02  0.51100000000E-03 0. -1.
    9900012    2    1    2    0    0 -0.35525722899E+02 -0.23581857792E+02  0.80896262952E+01  0.47787273531E+02  0.20000011336E+02 0.  0.
         12    1    1    2    0    0  0.35525722899E+02  0.23581857792E+02 -0.80896262952E+01  0.43400726469E+02  0.00000000000E+00 0. -1.
         11    1    3    3    0    0 -0.14728436007E+02 -0.15303157571E+02  0.53869031502E-02  0.21239432388E+02  0.51100000000E-03 0. -1.
        -11    1    3    3    0    0 -0.16794130716E+02 -0.10162491480E+02  0.30823860761E+01  0.19870082127E+02  0.51100000000E-03 0.  1.
        -12    1    3    3    0    0 -0.40031561764E+01  0.18837912585E+01  0.50018533159E+01  0.66777590157E+01  0.00000000000E+00 0.  1.
</event>
<event>
 7    1  0.2682317E-010  0.4778727E+02  0.7816164E-02  0.1312668E+00
        -11   -1    0    0    0    0  0.00000000000E+00  0.00000000000E+00  0.45593999997E+02  0.45594000000E+02  0.51100000000E-03 0.  1.
         11   -1    0    0    0    0 -0.00000000000E+00 -0.00000000000E+00 -0.45593999997E+02  0.45594000000E+02  0.51100000000E-03 0. -1.
    9900012    2    1    2    0    0  0.38389998329E+01 -0.39314027131E+01  0.43051471711E+02  0.47787273469E+02  0.20000011052E+02 0.  0.
         12    1    1    2    0    0 -0.38389998329E+01  0.39314027131E+01 -0.43051471711E+02  0.43400726531E+02  0.00000000000E+00 0. -1.
         11    1    3    3    0    0  0.11670188405E+01 -0.39106243923E+01  0.49717876380E+01  0.64322304600E+01  0.51100000000E-03 0.  1.
        -11    1    3    3    0    0  0.41855121394E+01  0.56908748879E+01  0.78809175812E+01  0.10583639782E+02  0.51100000000E-03 0. -1.
         12    1    3    3    0    0 -0.15135311471E+01 -0.57116532086E+01  0.30198766491E+02  0.30771403226E+02  0.00000000000E+00 0. -1.
</event>
<event>
 7    1  0.2682317E-010  0.4778727E+02  0.7816164E-02  0.1312668E+00
        -11   -1    0    0    0    0  0.00000000000E+00  0.00000000000E+00  0.45593999997E+02  0.45594000000E+02  0.51100000000E-03 0.  1.
         11   -1    0    0    0    0 -0.00000000000E+00 -0.00000000000E+00 -0.45593999997E+02  0.45594000000E+02  0.51100000000E-03 0. -1.
    9900012    2    1    2    0    0 -0.30590899599E+02 -0.19316213345E+02  0.23972987629E+02  0.47787269913E+02  0.19999994840E+02 0.  0.
         12    1    1    2    0    0  0.30590899599E+02  0.19316213345E+02 -0.23972987629E+02  0.43400730087E+02  0.00000000000E+00 0. -1.
         11    1    3    3    0    0 -0.30070199324E+01 -0.12797106297E+01  0.58468581325E+01  0.66981772485E+01  0.51100000000E-03 0. -1.
        -11    1    3    3    0    0 -0.20202270697E+02 -0.44402596936E+01  0.63211632222E+01  0.21628794516E+02  0.51100000000E-03 0.  1.
         12    1    3    3    0    0 -0.73816089689E+01 -0.13596243022E+02  0.11804966274E+02  0.19460298148E+02  0.00000000000E+00 0. -1.
</event>
<event>
 7    1  0.2682317E-010  0.4778727E+02  0.7816164E-02  0.1312668E+00
        -11   -1    0    0    0    0  0.00000000000E+00  0.00000000000E+00  0.45593999997E+02  0.45594000000E+02  0.51100000000E-03 0.  1.
         11   -1    0    0    0    0 -0.00000000000E+00 -0.00000000000E+00 -0.45593999997E+02  0.45594000000E+02  0.51100000000E-03 0. -1.
    9900012    2    1    2    0    0 -0.73115706842E+01 -0.39723051105E+02 -0.15882173955E+02  0.47787270692E+02  0.19999998394E+02 0.  0.
         12    1    1    2    0    0  0.73115706842E+01  0.39723051105E+02  0.15882173955E+02  0.43400729308E+02  0.00000000000E+00 0. -1.
         11    1    3    3    0    0  0.12629666036E+01 -0.14575480810E+02 -0.32784818981E+01  0.14992937314E+02  0.51100000000E-03 0. -1.
        -11    1    3    3    0    0  0.15866930341E+01 -0.29377286563E+01 -0.69709717815E+01  0.77293138300E+01  0.51100000000E-03 0.  1.
        -12    1    3    3    0    0 -0.10161230322E+02 -0.22209841638E+02 -0.56327202750E+01  0.25065019548E+02  0.00000000000E+00 0.  1.
</event>
<event>
 7    1  0.2682317E-010  0.4778727E+02  0.7816164E-02  0.1312668E+00
        -11   -1    0    0    0    0  0.00000000000E+00  0.00000000000E+00  0.45593999997E+02  0.45594000000E+02  0.51100000000E-03 0. -1.
         11   -1    0    0    0    0 -0.00000000000E+00 -0.00000000000E+00 -0.45593999997E+02  0.45594000000E+02  0.51100000000E-03 0.  1.
    9900012    2    1    2    0    0 -0.10696826797E+01  0.40872819101E+02 -0.14556516569E+02  0.47787265710E+02  0.19999975677E+02 0.  0.
         12    1    1    2    0    0  0.10696826797E+01 -0.40872819101E+02  0.14556516569E+02  0.43400734290E+02  0.00000000000E+00 0. -1.
         11    1    3    3    0    0  0.35995491227E+01  0.11325094217E+02 -0.65752216561E+01  0.13581165377E+02  0.51100000000E-03 0. -1.
        -11    1    3    3    0    0  0.23017152703E+01  0.23144288561E+02 -0.84061610313E+01  0.24730942758E+02  0.51100000000E-03 0.  1.
         12    1    3    3    0    0 -0.69709470727E+01  0.64034363235E+01  0.42486611877E+00  0.94751575743E+01  0.00000000000E+00 0. -1.
</event>
<event>
 7    1  0.2682317E-010  0.4778727E+02  0.7816164E-02  0.1312668E+00
        -11   -1    0    0    0    0  0.00000000000E+00  0.00000000000E+00  0.45593999997E+02  0.45594000000E+02  0.51100000000E-03 0.  1.
         11   -1    0    0    0    0 -0.00000000000E+00 -0.00000000000E+00 -0.45593999997E+02  0.45594000000E+02  0.51100000000E-03 0. -1.
    9900012    2    1    2    0    0 -0.74121014053E+00  0.43394394865E+02  0.24454417276E-01  0.47787268484E+02  0.19999988324E+02 0.  0.
         12    1    1    2    0    0  0.74121014053E+00 -0.43394394865E+02 -0.24454417276E-01  0.43400731516E+02  0.00000000000E+00 0. -1.
         11    1    3    3    0    0 -0.58815003970E+01  0.10326037141E+02  0.34395780828E-01  0.11883613646E+02  0.51100000000E-03 0. -1.
        -11    1    3    3    0    0 -0.18427583378E+01  0.24893930761E+02 -0.17033720589E+01  0.25020092399E+02  0.51100000000E-03 0.  1.
         12    1    3    3    0    0  0.69830485943E+01  0.81744269632E+01  0.16934306954E+01  0.10883562439E+02  0.00000000000E+00 0. -1.
</event>
<event>
 7    1  0.2682317E-010  0.4778727E+02  0.7816164E-02  0.1312668E+00
        -11   -1    0    0    0    0  0.00000000000E+00  0.00000000000E+00  0.45593999997E+02  0.45594000000E+02  0.51100000000E-03 0.  1.
         11   -1    0    0    0    0 -0.00000000000E+00 -0.00000000000E+00 -0.45593999997E+02  0.45594000000E+02  0.51100000000E-03 0. -1.
    9900012    2    1    2    0    0 -0.18072206613E+02 -0.39298148539E+02  0.35600400368E+01  0.47787274021E+02  0.20000013572E+02 0.  0.
         12    1    1    2    0    0  0.18072206613E+02  0.39298148539E+02 -0.35600400368E+01  0.43400725979E+02  0.00000000000E+00 0. -1.
         11    1    3    3    0    0 -0.11388387789E+02 -0.21229299355E+02  0.27524834791E+01  0.24247777076E+02  0.51100000000E-03 0. -1.
        -11    1    3    3    0    0 -0.10482160102E+02 -0.12681584292E+02 -0.15803616754E+01  0.16528635874E+02  0.51100000000E-03 0.  1.
         12    1    3    3    0    0  0.37983412785E+01 -0.53872648913E+01  0.23879182331E+01  0.70108610716E+01  0.00000000000E+00 0. -1.
</event>
<event>
 7    1  0.2682317E-010  0.4778727E+02  0.7816164E-02  0.1312668E+00
        -11   -1    0    0    0    0  0.00000000000E+00  0.00000000000E+00  0.45593999997E+02  0.45594000000E+02  0.51100000000E-03 0.  1.
         11   -1    0    0    0    0 -0.00000000000E+00 -0.00000000000E+00 -0.45593999997E+02  0.45594000000E+02  0.51100000000E-03 0. -1.
    9900012    2    1    2    0    0 -0.31143397992E+02  0.25926404639E+02  0.15541364141E+02  0.47787266188E+02  0.19999977859E+02 0.  0.
         12    1    1    2    0    0  0.31143397992E+02 -0.25926404639E+02 -0.15541364141E+02  0.43400733812E+02  0.00000000000E+00 0. -1.
         11    1    3    3    0    0 -0.17417512887E+02  0.47668900980E+01  0.13309621929E+02  0.22432989826E+02  0.51100000000E-03 0. -1.
        -11    1    3    3    0    0 -0.25107887196E+01  0.35270818526E+01 -0.77383811658E-01  0.43301679996E+01  0.51100000000E-03 0.  1.
         12    1    3    3    0    0 -0.11215096386E+02  0.17632432688E+02  0.23091260236E+01  0.21024108363E+02  0.00000000000E+00 0. -1.
</event>
<event>
 7    1  0.2682317E-010  0.4778727E+02  0.7816164E-02  0.1312668E+00
        -11   -1    0    0    0    0  0.00000000000E+00  0.00000000000E+00  0.45593999997E+02  0.45594000000E+02  0.51100000000E-03 0. -1.
         11   -1    0    0    0    0 -0.00000000000E+00 -0.00000000000E+00 -0.45593999997E+02  0.45594000000E+02  0.51100000000E-03 0.  1.
    9900012    2    1    2    0    0 -0.13147457916E+02  0.30846195434E+02 -0.27555038931E+02  0.47787267369E+02  0.19999983243E+02 0.  0.
         12    1    1    2    0    0  0.13147457916E+02 -0.30846195434E+02  0.27555038931E+02  0.43400732631E+02  0.00000000000E+00 0. -1.
         11    1    3    3    0    0 -0.14666899826E+01  0.19654370858E+01  0.12400691183E+01  0.27480709821E+01  0.51100000000E-03 0.  1.
        -11    1    3    3    0    0  0.27398087052E+01  0.29818802617E+01 -0.75560115701E+01  0.85727167657E+01  0.51100000000E-03 0. -1.
        -12    1    3    3    0    0 -0.14420576639E+02  0.25898878086E+02 -0.21239096480E+02  0.36466479621E+02  0.00000000000E+00 0.  1.
</event>
<event>
 7    1  0.2682317E-010  0.4778728E+02  0.7816164E-02  0.1312668E+00
        -11   -1    0    0    0    0  0.00000000000E+00  0.00000000000E+00  0.45593999997E+02  0.45594000000E+02  0.51100000000E-03 0.  1.
         11   -1    0    0    0    0 -0.00000000000E+00 -0.00000000000E+00 -0.45593999997E+02  0.45594000000E+02  0.51100000000E-03 0. -1.
    9900012    2    1    2    0    0  0.34778066780E+02  0.66718852801E+01  0.25091724585E+02  0.47787278522E+02  0.20000034094E+02 0.  0.
         12    1    1    2    0    0 -0.34778066780E+02 -0.66718852801E+01 -0.25091724585E+02  0.43400721478E+02  0.00000000000E+00 0. -1.
         11    1    3    3    0    0  0.50360932045E+01  0.62166548456E+01  0.26328474150E+01  0.84226431721E+01  0.51100000000E-03 0. -1.
        -11    1    3    3    0    0  0.88584121925E+01 -0.24173184878E+01  0.13799189561E+02  0.16575057407E+02  0.51100000000E-03 0.  1.
         12    1    3    3    0    0  0.20883561383E+02  0.28725489224E+01  0.86596876094E+01  0.22789577943E+02  0.00000000000E+00 0. -1.
</event>
<event>
 7    1  0.2682317E-010  0.4778727E+02  0.7816164E-02  0.1312668E+00
        -11   -1    0    0    0    0  0.00000000000E+00  0.00000000000E+00  0.45593999997E+02  0.45594000000E+02  0.51100000000E-03 0.  1.
         11   -1    0    0    0    0 -0.00000000000E+00 -0.00000000000E+00 -0.45593999997E+02  0.45594000000E+02  0.51100000000E-03 0. -1.
    9900012    2    1    2    0    0 -0.33541692782E+01  0.35260952913E+02  0.25080631897E+02  0.47787270188E+02  0.19999996094E+02 0.  0.
         12    1    1    2    0    0  0.33541692782E+01 -0.35260952913E+02 -0.25080631897E+02  0.43400729812E+02  0.00000000000E+00 0. -1.
         11    1    3    3    0    0  0.40086092124E+01  0.14917351755E+01  0.46409202727E+00  0.43022788522E+01  0.51100000000E-03 0. -1.
        -11    1    3    3    0    0 -0.14220250184E+01  0.30578051597E+01 -0.44698411787E+00  0.34017822696E+01  0.51100000000E-03 0.  1.
        -12    1    3    3    0    0 -0.59407534722E+01  0.30711412578E+02  0.25063523987E+02  0.40083209066E+02  0.00000000000E+00 0.  1.
</event>
<event>
 7    1  0.2682317E-010  0.4778727E+02  0.7816164E-02  0.1312668E+00
        -11   -1    0    0    0    0  0.00000000000E+00  0.00000000000E+00  0.45593999997E+02  0.45594000000E+02  0.51100000000E-03 0.  1.
         11   -1    0    0    0    0 -0.00000000000E+00 -0.00000000000E+00 -0.45593999997E+02  0.45594000000E+02  0.51100000000E-03 0. -1.
    9900012    2    1    2    0    0  0.36678560643E+02 -0.15696873796E+01  0.23148275396E+02  0.47787269786E+02  0.19999994263E+02 0.  0.
         12    1    1    2    0    0 -0.36678560643E+02  0.15696873796E+01 -0.23148275396E+02  0.43400730214E+02  0.00000000000E+00 0. -1.
         11    1    3    3    0    0  0.17517785498E+02  0.24920430040E+01  0.97039553506E+01  0.20180432027E+02  0.51100000000E-03 0. -1.
        -11    1    3    3    0    0  0.13349985763E+02 -0.29980839717E+01  0.16101147571E+02  0.21129542843E+02  0.51100000000E-03 0.  1.
        -12    1    3    3    0    0  0.58107893821E+01 -0.10636464119E+01 -0.26568275261E+01  0.64772949166E+01  0.00000000000E+00 0.  1.
</event>
<event>
 7    1  0.2682317E-010  0.4778727E+02  0.7816164E-02  0.1312668E+00
        -11   -1    0    0    0    0  0.00000000000E+00  0.00000000000E+00  0.45593999997E+02  0.45594000000E+02  0.51100000000E-03 0. -1.
         11   -1    0    0    0    0 -0.00000000000E+00 -0.00000000000E+00 -0.45593999997E+02  0.45594000000E+02  0.51100000000E-03 0.  1.
    9900012    2    1    2    0    0  0.44336876846E+00  0.73585711232E+01 -0.42770060533E+02  0.47787271633E+02  0.20000002682E+02 0.  0.
         12    1    1    2    0    0 -0.44336876846E+00 -0.73585711232E+01  0.42770060533E+02  0.43400728367E+02  0.00000000000E+00 0. -1.
         11    1    3    3    0    0  0.10708500213E+01  0.87026918378E+01 -0.15703642268E+02  0.17985770646E+02  0.51100000000E-03 0. -1.
        -11    1    3    3    0    0 -0.20041157436E+01  0.51239914294E+01 -0.15885483414E+02  0.16811316178E+02  0.51100000000E-03 0.  1.
         12    1    3    3    0    0  0.13766344908E+01 -0.64681121439E+01 -0.11180934851E+02  0.12990184809E+02  0.00000000000E+00 0. -1.
</event>
<event>
 7    1  0.2682317E-010  0.4778727E+02  0.7816164E-02  0.1312668E+00
        -11   -1    0    0    0    0  0.00000000000E+00  0.00000000000E+00  0.45593999997E+02  0.45594000000E+02  0.51100000000E-03 0.  1.
         11   -1    0    0    0    0 -0.00000000000E+00 -0.00000000000E+00 -0.45593999997E+02  0.45594000000E+02  0.51100000000E-03 0. -1.
    9900012    2    1    2    0    0 -0.69616976497E+01 -0.39042547012E+02  0.17630593855E+02  0.47787267851E+02  0.19999985440E+02 0.  0.
         12    1    1    2    0    0  0.69616976497E+01  0.39042547012E+02 -0.17630593855E+02  0.43400732149E+02  0.00000000000E+00 0. -1.
         11    1    3    3    0    0 -0.16139755074E+01  0.80818884590E+00  0.68737459886E+00  0.19314684179E+01  0.51100000000E-03 0.  1.
        -11    1    3    3    0    0 -0.28175055115E+01 -0.53946223789E+01  0.82107368390E+01  0.10220395668E+02  0.51100000000E-03 0. -1.
        -12    1    3    3    0    0 -0.25302166309E+01 -0.34456113479E+02  0.87324824175E+01  0.35635403765E+02  0.00000000000E+00 0.  1.
</event>
<event>
 7    1  0.2682317E-010  0.4778727E+02  0.7816164E-02  0.1312668E+00
        -11   -1    0    0    0    0  0.00000000000E+00  0.00000000000E+00  0.45593999997E+02  0.45594000000E+02  0.51100000000E-03 0. -1.
         11   -1    0    0    0    0 -0.00000000000E+00 -0.00000000000E+00 -0.45593999997E+02  0.45594000000E+02  0.51100000000E-03 0.  1.
    9900012    2    1    2    0    0 -0.12461859408E+02  0.29360327852E+02 -0.29432916661E+02  0.47787269883E+02  0.19999994706E+02 0.  0.
         12    1    1    2    0    0  0.12461859408E+02 -0.29360327852E+02  0.29432916661E+02  0.43400730117E+02  0.00000000000E+00 0. -1.
         11    1    3    3    0    0 -0.36778898110E+01  0.37176458057E+01 -0.13031216695E+02  0.14041380723E+02  0.51100000000E-03 0. -1.
        -11    1    3    3    0    0 -0.88853643563E+01  0.15510868252E+02 -0.15345100804E+02  0.23558625865E+02  0.51100000000E-03 0.  1.
        -12    1    3    3    0    0  0.10139475942E+00  0.10131813794E+02 -0.10565991615E+01  0.10187263295E+02  0.00000000000E+00 0.  1.
</event>
<event>
 7    1  0.2682317E-010  0.4778727E+02  0.7816164E-02  0.1312668E+00
        -11   -1    0    0    0    0  0.00000000000E+00  0.00000000000E+00  0.45593999997E+02  0.45594000000E+02  0.51100000000E-03 0.  1.
         11   -1    0    0    0    0 -0.00000000000E+00 -0.00000000000E+00 -0.45593999997E+02  0.45594000000E+02  0.51100000000E-03 0. -1.
    9900012    2    1    2    0    0  0.42902078882E+02 -0.58387589463E+01  0.29906484467E+01  0.47787268940E+02  0.19999990403E+02 0.  0.
         12    1    1    2    0    0 -0.42902078882E+02  0.58387589463E+01 -0.29906484467E+01  0.43400731060E+02  0.00000000000E+00 0. -1.
         11    1    3    3    0    0  0.31233608412E+01  0.71708488925E+00  0.55041105372E+01  0.63690522647E+01  0.51100000000E-03 0. -1.
        -11    1    3    3    0    0 -0.12218292159E+00  0.34421497595E+00 -0.81084778801E+00  0.88931828523E+00  0.51100000000E-03 0.  1.
        -12    1    3    3    0    0  0.39900900963E+02 -0.69000588115E+01 -0.17026143025E+01  0.40528898390E+02  0.00000000000E+00 0.  1.
</event>
<event>
 7    1  0.2682317E-010  0.4778728E+02  0.7816164E-02  0.1312668E+00
        -11   -1    0    0    0    0  0.00000000000E+00  0.00000000000E+00  0.45593999997E+02  0.45594000000E+02  0.51100000000E-03 0. -1.
         11   -1    0    0    0    0 -0.00000000000E+00 -0.00000000000E+00 -0.45593999997E+02  0.45594000000E+02  0.51100000000E-03 0.  1.
    9900012    2    1    2    0    0 -0.22369600926E+02 -0.10252828291E+02 -0.35750570728E+02  0.47787276032E+02  0.20000022742E+02 0.  0.
         12    1    1    2    0    0  0.22369600926E+02  0.10252828291E+02  0.35750570728E+02  0.43400723968E+02  0.00000000000E+00 0. -1.
         11    1    3    3    0    0 -0.91624349083E+01 -0.11543367027E+02 -0.95213568828E+01  0.17545819243E+02  0.51100000000E-03 0.  1.
        -11    1    3    3    0    0  0.63262638687E+00  0.78189685445E-01 -0.95592156063E-01  0.64456798997E+00  0.51100000000E-03 0. -1.
        -12    1    3    3    0    0 -0.13839792405E+02  0.12123490505E+01 -0.26133621689E+02  0.29596888799E+02  0.00000000000E+00 0.  1.
</event>
<event>
 7    1  0.2682317E-010  0.4778727E+02  0.7816164E-02  0.1312668E+00
        -11   -1    0    0    0    0  0.00000000000E+00  0.00000000000E+00  0.45593999997E+02  0.45594000000E+02  0.51100000000E-03 0.  1.
         11   -1    0    0    0    0 -0.00000000000E+00 -0.00000000000E+00 -0.45593999997E+02  0.45594000000E+02  0.51100000000E-03 0. -1.
    9900012    2    1    2    0    0 -0.15882815624E+02 -0.38951604608E+02  0.10683243873E+02  0.47787273815E+02  0.20000012634E+02 0.  0.
         12    1    1    2    0    0  0.15882815624E+02  0.38951604608E+02 -0.10683243873E+02  0.43400726185E+02  0.00000000000E+00 0. -1.
         11    1    3    3    0    0  0.81563097511E+00 -0.39729326492E+01  0.51733692812E+01  0.65736745967E+01  0.51100000000E-03 0. -1.
        -11    1    3    3    0    0 -0.42787532316E+01 -0.56502957316E+01  0.61109045662E+01  0.93582437428E+01  0.51100000000E-03 0.  1.
        -12    1    3    3    0    0 -0.12419693367E+02 -0.29328376227E+02 -0.60102997400E+00  0.31855355476E+02  0.00000000000E+00 0.  1.
</event>
<event>
 7    1  0.2682317E-010  0.4778727E+02  0.7816164E-02  0.1312668E+00
        -11   -1    0    0    0    0  0.00000000000E+00  0.00000000000E+00  0.45593999997E+02  0.45594000000E+02  0.51100000000E-03 0.  1.
         11   -1    0    0    0    0 -0.00000000000E+00 -0.00000000000E+00 -0.45593999997E+02  0.45594000000E+02  0.51100000000E-03 0. -1.
    9900012    2    1    2    0    0  0.13184269556E+02  0.21155309087E+02  0.35528179927E+02  0.47787266881E+02  0.19999981018E+02 0.  0.
         12    1    1    2    0    0 -0.13184269556E+02 -0.21155309087E+02 -0.35528179927E+02  0.43400733119E+02  0.00000000000E+00 0. -1.
         11    1    3    3    0    0  0.82142271733E+01  0.92199120694E+01  0.17086177521E+02  0.21081218398E+02  0.51100000000E-03 0. -1.
        -11    1    3    3    0    0  0.81217584016E+01  0.48834732445E+01  0.16016143153E+02  0.18609892859E+02  0.51100000000E-03 0.  1.
         12    1    3    3    0    0 -0.31517160188E+01  0.70519237733E+01  0.24258592530E+01  0.80961556237E+01  0.00000000000E+00 0. -1.
</event>
<event>
 7    1  0.2682317E-010  0.4778727E+02  0.7816164E-02  0.1312668E+00
        -11   -1    0    0    0    0  0.00000000000E+00  0.00000000000E+00  0.45593999997E+02  0.45594000000E+02  0.51100000000E-03 0.  1.
         11   -1    0    0    0    0 -0.00000000000E+00 -0.00000000000E+00 -0.45593999997E+02  0.45594000000E+02  0.51100000000E-03 0. -1.
    9900012    2    1    2    0    0  0.15841111225E+02  0.23062704655E+02  0.33178218234E+02  0.47787270559E+02  0.19999997787E+02 0.  0.
         12    1    1    2    0    0 -0.15841111225E+02 -0.23062704655E+02 -0.33178218234E+02  0.43400729441E+02  0.00000000000E+00 0. -1.
         11    1    3    3    0    0  0.92397046082E+01  0.14284320002E+02  0.18672684797E+02  0.25260306747E+02  0.51100000000E-03 0. -1.
        -11    1    3    3    0    0  0.77587881430E+01  0.27492367463E+01  0.14159121345E+02  0.16377967324E+02  0.51100000000E-03 0.  1.
         12    1    3    3    0    0 -0.11573815259E+01  0.60291479067E+01  0.34641209196E+00  0.61489964885E+01  0.00000000000E+00 0. -1.
</event>
<event>
 7    1  0.2682317E-010  0.4778727E+02  0.7816164E-02  0.1312668E+00
        -11   -1    0    0    0    0  0.00000000000E+00  0.00000000000E+00  0.45593999997E+02  0.45594000000E+02  0.51100000000E-03 0.  1.
         11   -1    0    0    0    0 -0.00000000000E+00 -0.00000000000E+00 -0.45593999997E+02  0.45594000000E+02  0.51100000000E-03 0. -1.
    9900012    2    1    2    0    0  0.50300770468E+01 -0.25401624868E+02  0.34829280174E+02  0.47787274448E+02  0.20000015517E+02 0.  0.
         12    1    1    2    0    0 -0.50300770468E+01  0.25401624868E+02 -0.34829280174E+02  0.43400725552E+02  0.00000000000E+00 0. -1.
         11    1    3    3    0    0 -0.25043908233E+01 -0.84789763363E+01  0.66246826025E+01  0.11047689032E+02  0.51100000000E-03 0.  1.
        -11    1    3    3    0    0  0.75187972175E+00 -0.11448946995E+02  0.61340189471E+01  0.13010376593E+02  0.51100000000E-03 0. -1.
        -12    1    3    3    0    0  0.67825881484E+01 -0.54737015374E+01  0.22070578624E+02  0.23729208822E+02  0.00000000000E+00 0.  1.
</event>
<event>
 7    1  0.2682317E-010  0.4778726E+02  0.7816164E-02  0.1312668E+00
        -11   -1    0    0    0    0  0.00000000000E+00  0.00000000000E+00  0.45593999997E+02  0.45594000000E+02  0.51100000000E-03 0.  1.
         11   -1    0    0    0    0 -0.00000000000E+00 -0.00000000000E+00 -0.45593999997E+02  0.45594000000E+02  0.51100000000E-03 0. -1.
    9900012    2    1    2    0    0 -0.20529271070E+02 -0.17529974504E+02  0.33983421326E+02  0.47787263810E+02  0.19999967017E+02 0.  0.
         12    1    1    2    0    0  0.20529271070E+02  0.17529974504E+02 -0.33983421326E+02  0.43400736190E+02  0.00000000000E+00 0. -1.
         11    1    3    3    0    0 -0.50350998330E+01 -0.12390816548E+02  0.10522460488E+02  0.17017835939E+02  0.51100000000E-03 0. -1.
        -11    1    3    3    0    0 -0.85238813275E+01 -0.70116568387E+01  0.19819245934E+02  0.22685290260E+02  0.51100000000E-03 0.  1.
         12    1    3    3    0    0 -0.69702899093E+01  0.18724988827E+01  0.36417149042E+01  0.80841376120E+01  0.00000000000E+00 0. -1.
</event>
<event>
 7    1  0.2682317E-010  0.4778727E+02  0.7816164E-02  0.1312668E+00
        -11   -1    0    0    0    0  0.00000000000E+00  0.00000000000E+00  0.45593999997E+02  0.45594000000E+02  0.51100000000E-03 0.  1.
         11   -1    0    0    0    0 -0.00000000000E+00 -0.00000000000E+00 -0.45593999997E+02  0.45594000000E+02  0.51100000000E-03 0. -1.
    9900012    2    1    2    0    0  0.41185466950E+01  0.37857019128E+02  0.20820826392E+02  0.47787272635E+02  0.20000007252E+02 0.  0.
         12    1    1    2    0    0 -0.41185466950E+01 -0.37857019128E+02 -0.20820826392E+02  0.43400727365E+02  0.00000000000E+00 0. -1.
         11    1    3    3    0    0 -0.63279923769E+00  0.83908643083E+01 -0.20909790708E+01  0.86705958533E+01  0.51100000000E-03 0. -1.
        -11    1    3    3    0    0  0.41644981915E+01  0.10929156662E+02  0.33620000921E+01  0.12169328470E+02  0.51100000000E-03 0.  1.
        -12    1    3    3    0    0  0.58684774120E+00  0.18536998158E+02  0.19549805371E+02  0.26947348312E+02  0.00000000000E+00 0.  1.
</event>
<event>
 7    1  0.2682317E-010  0.4778727E+02  0.7816164E-02  0.1312668E+00
        -11   -1    0    0    0    0  0.00000000000E+00  0.00000000000E+00  0.45593999997E+02  0.45594000000E+02  0.51100000000E-03 0.  1.
         11   -1    0    0    0    0 -0.00000000000E+00 -0.00000000000E+00 -0.45593999997E+02  0.45594000000E+02  0.51100000000E-03 0. -1.
    9900012    2    1    2    0    0  0.25109707756E+02  0.34812591168E+02  0.64194704734E+01  0.47787268110E+02  0.19999986621E+02 0.  0.
         12    1    1    2    0    0 -0.25109707756E+02 -0.34812591168E+02 -0.64194704734E+01  0.43400731890E+02  0.00000000000E+00 0. -1.
         11    1    3    3    0    0  0.68248572865E+01  0.35831466922E+01  0.20005541609E+01  0.79636571003E+01  0.51100000000E-03 0. -1.
        -11    1    3    3    0    0  0.11191225702E+02  0.17879390114E+02 -0.54300089149E+01  0.21780751149E+02  0.51100000000E-03 0.  1.
         12    1    3    3    0    0  0.70936247675E+01  0.13350054362E+02  0.98489252274E+01  0.18042859860E+02  0.00000000000E+00 0. -1.
</event>
<event>
 7    1  0.2682317E-010  0.4778727E+02  0.7816164E-02  0.1312668E+00
        -11   -1    0    0    0    0  0.00000000000E+00  0.00000000000E+00  0.45593999997E+02  0.45594000000E+02  0.51100000000E-03 0.  1.
         11   -1    0    0    0    0 -0.00000000000E+00 -0.00000000000E+00 -0.45593999997E+02  0.45594000000E+02  0.51100000000E-03 0. -1.
    9900012    2    1    2    0    0 -0.21523240619E+02  0.10906711010E+02  0.36075156372E+02  0.47787272598E+02  0.20000007083E+02 0.  0.
         12    1    1    2    0    0  0.21523240619E+02 -0.10906711010E+02 -0.36075156372E+02  0.43400727402E+02  0.00000000000E+00 0. -1.
         11    1    3    3    0    0 -0.76480695545E+01  0.46954393225E+01  0.18846160886E+02  0.20873856825E+02  0.51100000000E-03 0. -1.
        -11    1    3    3    0    0 -0.12540070460E+02  0.10380278645E+02  0.13091644757E+02  0.20890062580E+02  0.51100000000E-03 0.  1.
         12    1    3    3    0    0 -0.13351006044E+01 -0.41690069577E+01  0.41373507289E+01  0.60233531933E+01  0.00000000000E+00 0. -1.
</event>
<event>
 7    1  0.2682317E-010  0.4778728E+02  0.7816164E-02  0.1312668E+00
        -11   -1    0    0    0    0  0.00000000000E+00  0.00000000000E+00  0.45593999997E+02  0.45594000000E+02  0.51100000000E-03 0.  1.
         11   -1    0    0    0    0 -0.00000000000E+00 -0.00000000000E+00 -0.45593999997E+02  0.45594000000E+02  0.51100000000E-03 0. -1.
    9900012    2    1    2    0    0  0.23466854215E+02  0.35714615211E+02  0.75759974021E+01  0.47787277390E+02  0.20000028934E+02 0.  0.
         12    1    1    2    0    0 -0.23466854215E+02 -0.35714615211E+02 -0.75759974021E+01  0.43400722610E+02  0.00000000000E+00 0. -1.
         11    1    3    3    0    0  0.21495484088E+02  0.33752436928E+02  0.95216135876E+00  0.40027358722E+02  0.51100000000E-03 0.  1.
        -11    1    3    3    0    0  0.15162658253E+01  0.25789674164E+01  0.38136416691E+01  0.48470607619E+01  0.51100000000E-03 0. -1.
        -12    1    3    3    0    0  0.45510430209E+00 -0.61678913388E+00  0.28101943742E+01  0.29128579063E+01  0.00000000000E+00 0.  1.
</event>
<event>
 7    1  0.2682317E-010  0.4778727E+02  0.7816164E-02  0.1312668E+00
        -11   -1    0    0    0    0  0.00000000000E+00  0.00000000000E+00  0.45593999997E+02  0.45594000000E+02  0.51100000000E-03 0. -1.
         11   -1    0    0    0    0 -0.00000000000E+00 -0.00000000000E+00 -0.45593999997E+02  0.45594000000E+02  0.51100000000E-03 0.  1.
    9900012    2    1    2    0    0 -0.67757304746E+01 -0.39425724631E+02 -0.16832267126E+02  0.47787268408E+02  0.19999987979E+02 0.  0.
         12    1    1    2    0    0  0.67757304746E+01  0.39425724631E+02  0.16832267126E+02  0.43400731592E+02  0.00000000000E+00 0. -1.
         11    1    3    3    0    0  0.42876288333E+01 -0.10590514355E+02 -0.11885017352E+01  0.11487179461E+02  0.51100000000E-03 0. -1.
        -11    1    3    3    0    0 -0.76721661538E+00 -0.13919643937E+02 -0.10522770629E+02  0.17466362261E+02  0.51100000000E-03 0.  1.
        -12    1    3    3    0    0 -0.10296142692E+02 -0.14915566339E+02 -0.51209947615E+01  0.18833726686E+02  0.00000000000E+00 0.  1.
</event>
<event>
 7    1  0.2682317E-010  0.4778727E+02  0.7816164E-02  0.1312668E+00
        -11   -1    0    0    0    0  0.00000000000E+00  0.00000000000E+00  0.45593999997E+02  0.45594000000E+02  0.51100000000E-03 0. -1.
         11   -1    0    0    0    0 -0.00000000000E+00 -0.00000000000E+00 -0.45593999997E+02  0.45594000000E+02  0.51100000000E-03 0.  1.
    9900012    2    1    2    0    0  0.15474651642E+02  0.30769695137E+02 -0.26408035695E+02  0.47787270380E+02  0.19999996970E+02 0.  0.
         12    1    1    2    0    0 -0.15474651642E+02 -0.30769695137E+02  0.26408035695E+02  0.43400729620E+02  0.00000000000E+00 0. -1.
         11    1    3    3    0    0  0.91786175620E+01  0.11982532684E+02 -0.18000635173E+02  0.23491508610E+02  0.51100000000E-03 0. -1.
        -11    1    3    3    0    0 -0.62763430414E+00 -0.12619386852E+01 -0.13228662249E+01  0.19329742303E+01  0.51100000000E-03 0.  1.
        -12    1    3    3    0    0  0.69236683846E+01  0.20049101138E+02 -0.70845342972E+01  0.22362787540E+02  0.00000000000E+00 0.  1.
</event>
<event>
 7    1  0.2682317E-010  0.4778727E+02  0.7816164E-02  0.1312668E+00
        -11   -1    0    0    0    0  0.00000000000E+00  0.00000000000E+00  0.45593999997E+02  0.45594000000E+02  0.51100000000E-03 0.  1.
         11   -1    0    0    0    0 -0.00000000000E+00 -0.00000000000E+00 -0.45593999997E+02  0.45594000000E+02  0.51100000000E-03 0. -1.
    9900012    2    1    2    0    0 -0.78953686484E+01  0.38993505287E+02  0.17343382330E+02  0.47787271766E+02  0.20000003288E+02 0.  0.
         12    1    1    2    0    0  0.78953686484E+01 -0.38993505287E+02 -0.17343382330E+02  0.43400728234E+02  0.00000000000E+00 0. -1.
         11    1    3    3    0    0 -0.15241810636E+00  0.23790417541E+02  0.11765438087E+02  0.26541151665E+02  0.51100000000E-03 0. -1.
        -11    1    3    3    0    0 -0.50920529705E+01  0.16548779002E+02  0.36271515189E+01  0.17690317078E+02  0.51100000000E-03 0.  1.
         12    1    3    3    0    0 -0.26508975715E+01 -0.13456912557E+01  0.19507927234E+01  0.35558030232E+01  0.00000000000E+00 0. -1.
</event>
<event>
 7    1  0.2682317E-010  0.4778727E+02  0.7816164E-02  0.1312668E+00
        -11   -1    0    0    0    0  0.00000000000E+00  0.00000000000E+00  0.45593999997E+02  0.45594000000E+02  0.51100000000E-03 0.  1.
         11   -1    0    0    0    0 -0.00000000000E+00 -0.00000000000E+00 -0.45593999997E+02  0.45594000000E+02  0.51100000000E-03 0. -1.
    9900012    2    1    2    0    0  0.91792044254E+01  0.40857956066E+02 -0.11401445149E+02  0.47787270522E+02  0.19999997617E+02 0.  0.
         12    1    1    2    0    0 -0.91792044254E+01 -0.40857956066E+02  0.11401445149E+02  0.43400729478E+02  0.00000000000E+00 0. -1.
         11    1    3    3    0    0  0.42878956588E+01  0.89376407361E+01 -0.10706015304E+02  0.14590621476E+02  0.51100000000E-03 0. -1.
        -11    1    3    3    0    0 -0.45276856987E+00 -0.24031319187E+00  0.27279586746E+00  0.58066139399E+00  0.51100000000E-03 0.  1.
        -12    1    3    3    0    0  0.53440773365E+01  0.32160628521E+02 -0.96822571281E+00  0.32615987652E+02  0.00000000000E+00 0.  1.
</event>
<event>
 7    1  0.2682317E-010  0.4778728E+02  0.7816164E-02  0.1312668E+00
        -11   -1    0    0    0    0  0.00000000000E+00  0.00000000000E+00  0.45593999997E+02  0.45594000000E+02  0.51100000000E-03 0.  1.
         11   -1    0    0    0    0 -0.00000000000E+00 -0.00000000000E+00 -0.45593999997E+02  0.45594000000E+02  0.51100000000E-03 0. -1.
    9900012    2    1    2    0    0 -0.46692095227E+01 -0.13416738257E+02  0.41009906746E+02  0.47787276108E+02  0.20000023085E+02 0.  0.
         12    1    1    2    0    0  0.46692095227E+01  0.13416738257E+02 -0.41009906746E+02  0.43400723892E+02  0.00000000000E+00 0. -1.
         11    1    3    3    0    0 -0.90094483624E+00 -0.49380103724E+01  0.43254730573E+01  0.66261123947E+01  0.51100000000E-03 0. -1.
        -11    1    3    3    0    0  0.25114257309E+01 -0.10232097768E+02  0.13776306077E+02  0.17343289576E+02  0.51100000000E-03 0.  1.
         12    1    3    3    0    0 -0.62796904174E+01  0.17533698834E+01  0.22908127612E+02  0.23817874137E+02  0.00000000000E+00 0. -1.
</event>
<event>
 7    1  0.2682317E-010  0.4778727E+02  0.7816164E-02  0.1312668E+00
        -11   -1    0    0    0    0  0.00000000000E+00  0.00000000000E+00  0.45593999997E+02  0.45594000000E+02  0.51100000000E-03 0.  1.
         11   -1    0    0    0    0 -0.00000000000E+00 -0.00000000000E+00 -0.45593999997E+02  0.45594000000E+02  0.51100000000E-03 0. -1.
    9900012    2    1    2    0    0  0.19601096923E+02  0.70145253327E+01  0.38081706905E+02  0.47787274580E+02  0.20000016120E+02 0.  0.
         12    1    1    2    0    0 -0.19601096923E+02 -0.70145253327E+01 -0.38081706905E+02  0.43400725420E+02  0.00000000000E+00 0. -1.
         11    1    3    3    0    0  0.35193929563E+01  0.28054823377E+01  0.15043537842E+02  0.15702384818E+02  0.51100000000E-03 0. -1.
        -11    1    3    3    0    0 -0.26748620758E+01 -0.10135134377E+01  0.28669067785E+01  0.40498458428E+01  0.51100000000E-03 0.  1.
        -12    1    3    3    0    0  0.18756566042E+02  0.52225564327E+01  0.20171262285E+02  0.28035043919E+02  0.00000000000E+00 0.  1.
</event>
<event>
 7    1  0.2682317E-010  0.4778727E+02  0.7816164E-02  0.1312668E+00
        -11   -1    0    0    0    0  0.00000000000E+00  0.00000000000E+00  0.45593999997E+02  0.45594000000E+02  0.51100000000E-03 0.  1.
         11   -1    0    0    0    0 -0.00000000000E+00 -0.00000000000E+00 -0.45593999997E+02  0.45594000000E+02  0.51100000000E-03 0. -1.
    9900012    2    1    2    0    0 -0.29252313780E+02  0.15835721930E+02  0.27877508220E+02  0.47787269417E+02  0.19999992582E+02 0.  0.
         12    1    1    2    0    0  0.29252313780E+02 -0.15835721930E+02 -0.27877508220E+02  0.43400730583E+02  0.00000000000E+00 0. -1.
         11    1    3    3    0    0 -0.13178672627E+02  0.26137847744E+00  0.12070788674E+02  0.17873155021E+02  0.51100000000E-03 0.  1.
        -11    1    3    3    0    0 -0.14373158304E+02  0.17612708166E+02  0.13902669121E+02  0.26647314640E+02  0.51100000000E-03 0. -1.
         12    1    3    3    0    0 -0.17004828487E+01 -0.20383647139E+01  0.19040504258E+01  0.32667997566E+01  0.00000000000E+00 0. -1.
</event>
<event>
 7    1  0.2682317E-010  0.4778727E+02  0.7816164E-02  0.1312668E+00
        -11   -1    0    0    0    0  0.00000000000E+00  0.00000000000E+00  0.45593999997E+02  0.45594000000E+02  0.51100000000E-03 0.  1.
         11   -1    0    0    0    0 -0.00000000000E+00 -0.00000000000E+00 -0.45593999997E+02  0.45594000000E+02  0.51100000000E-03 0. -1.
    9900012    2    1    2    0    0  0.23663037643E+02 -0.11238622008E+02  0.34603142701E+02  0.47787268901E+02  0.19999990229E+02 0.  0.
         12    1    1    2    0    0 -0.23663037643E+02  0.11238622008E+02 -0.34603142701E+02  0.43400731099E+02  0.00000000000E+00 0. -1.
         11    1    3    3    0    0  0.64615059118E+00  0.15158621718E+01  0.38867662111E+01  0.42216466635E+01  0.51100000000E-03 0. -1.
        -11    1    3    3    0    0 -0.14702554204E+01 -0.48670065839E+01  0.63199034882E+01  0.81111395284E+01  0.51100000000E-03 0.  1.
         12    1    3    3    0    0  0.24487142472E+02 -0.78874775956E+01  0.24396473002E+02  0.35454482709E+02  0.00000000000E+00 0. -1.
</event>
<event>
 7    1  0.2682317E-010  0.4778727E+02  0.7816164E-02  0.1312668E+00
        -11   -1    0    0    0    0  0.00000000000E+00  0.00000000000E+00  0.45593999997E+02  0.45594000000E+02  0.51100000000E-03 0. -1.
         11   -1    0    0    0    0 -0.00000000000E+00 -0.00000000000E+00 -0.45593999997E+02  0.45594000000E+02  0.51100000000E-03 0.  1.
    9900012    2    1    2    0    0 -0.25283434923E+02  0.72994897663E+01 -0.34512154807E+02  0.47787268880E+02  0.19999990131E+02 0.  0.
         12    1    1    2    0    0  0.25283434923E+02 -0.72994897663E+01  0.34512154807E+02  0.43400731120E+02  0.00000000000E+00 0. -1.
         11    1    3    3    0    0 -0.70931545315E+01 -0.26413674557E+00 -0.15495352858E+01  0.72652370430E+01  0.51100000000E-03 0. -1.
        -11    1    3    3    0    0 -0.48459194703E+01 -0.36460013494E+01 -0.71279940486E+01  0.93586623387E+01  0.51100000000E-03 0.  1.
        -12    1    3    3    0    0 -0.13344360921E+02  0.11209627861E+02 -0.25834625472E+02  0.31163369498E+02  0.00000000000E+00 0.  1.
</event>
<event>
 7    1  0.2682317E-010  0.4778727E+02  0.7816164E-02  0.1312668E+00
        -11   -1    0    0    0    0  0.00000000000E+00  0.00000000000E+00  0.45593999997E+02  0.45594000000E+02  0.51100000000E-03 0.  1.
         11   -1    0    0    0    0 -0.00000000000E+00 -0.00000000000E+00 -0.45593999997E+02  0.45594000000E+02  0.51100000000E-03 0. -1.
    9900012    2    1    2    0    0  0.31995457464E+02 -0.22634991563E+02  0.18643261573E+02  0.47787270243E+02  0.19999996346E+02 0.  0.
         12    1    1    2    0    0 -0.31995457464E+02  0.22634991563E+02 -0.18643261573E+02  0.43400729757E+02  0.00000000000E+00 0. -1.
         11    1    3    3    0    0  0.29057598077E+01 -0.48475764731E+01 -0.12505654706E+01  0.57884671529E+01  0.51100000000E-03 0. -1.
        -11    1    3    3    0    0  0.15178205912E+02 -0.65179352205E+01  0.19199736605E+01  0.16629723791E+02  0.51100000000E-03 0.  1.
        -12    1    3    3    0    0  0.13911491744E+02 -0.11269479869E+02  0.17973853383E+02  0.25369079299E+02  0.00000000000E+00 0.  1.
</event>
<event>
 7    1  0.2682317E-010  0.4778727E+02  0.7816164E-02  0.1312668E+00
        -11   -1    0    0    0    0  0.00000000000E+00  0.00000000000E+00  0.45593999997E+02  0.45594000000E+02  0.51100000000E-03 0.  1.
         11   -1    0    0    0    0 -0.00000000000E+00 -0.00000000000E+00 -0.45593999997E+02  0.45594000000E+02  0.51100000000E-03 0. -1.
    9900012    2    1    2    0    0  0.20752636314E+02  0.81345876679E+01  0.37239494531E+02  0.47787269782E+02  0.19999994244E+02 0.  0.
         12    1    1    2    0    0 -0.20752636314E+02 -0.81345876679E+01 -0.37239494531E+02  0.43400730218E+02  0.00000000000E+00 0. -1.
         11    1    3    3    0    0  0.16586862449E+01 -0.34494707607E+01  0.88087407703E+01  0.96043741496E+01  0.51100000000E-03 0. -1.
        -11    1    3    3    0    0  0.94311799155E+01  0.30204375390E+01  0.21165654092E+02  0.23367822127E+02  0.51100000000E-03 0.  1.
        -12    1    3    3    0    0  0.96627701539E+01  0.85636208896E+01  0.72650996684E+01  0.14815073506E+02  0.00000000000E+00 0.  1.
</event>
<event>
 7    1  0.2682317E-010  0.4778727E+02  0.7816164E-02  0.1312668E+00
        -11   -1    0    0    0    0  0.00000000000E+00  0.00000000000E+00  0.45593999997E+02  0.45594000000E+02  0.51100000000E-03 0.  1.
         11   -1    0    0    0    0 -0.00000000000E+00 -0.00000000000E+00 -0.45593999997E+02  0.45594000000E+02  0.51100000000E-03 0. -1.
    9900012    2    1    2    0    0  0.95315197041E+01  0.23615105534E+02  0.35143991526E+02  0.47787271693E+02  0.20000002955E+02 0.  0.
         12    1    1    2    0    0 -0.95315197041E+01 -0.23615105534E+02 -0.35143991526E+02  0.43400728307E+02  0.00000000000E+00 0. -1.
         11    1    3    3    0    0  0.25528067363E+01  0.79812204454E+01  0.15042882745E+02  0.17219321229E+02  0.51100000000E-03 0. -1.
        -11    1    3    3    0    0 -0.70723995218E+00  0.79477966762E+01  0.17729876656E+02  0.19442638371E+02  0.51100000000E-03 0.  1.
         12    1    3    3    0    0  0.76859529200E+01  0.76860884119E+01  0.23712321252E+01  0.11125312093E+02  0.00000000000E+00 0. -1.
</event>
<event>
 7    1  0.2682317E-010  0.4778727E+02  0.7816164E-02  0.1312668E+00
        -11   -1    0    0    0    0  0.00000000000E+00  0.00000000000E+00  0.45593999997E+02  0.45594000000E+02  0.51100000000E-03 0. -1.
         11   -1    0    0    0    0 -0.00000000000E+00 -0.00000000000E+00 -0.45593999997E+02  0.45594000000E+02  0.51100000000E-03 0.  1.
    9900012    2    1    2    0    0 -0.42890191245E+02 -0.65868584885E+01  0.81733371920E+00  0.47787271386E+02  0.20000001557E+02 0.  0.
         12    1    1    2    0    0  0.42890191245E+02  0.65868584885E+01 -0.81733371920E+00  0.43400728614E+02  0.00000000000E+00 0. -1.
         11    1    3    3    0    0 -0.15388768358E+02 -0.44277406281E+01 -0.68701259812E+01  0.17424629405E+02  0.51100000000E-03 0. -1.
        -11    1    3    3    0    0 -0.21766936128E+02 -0.32376974261E+00  0.16433522099E+01  0.21831283562E+02  0.51100000000E-03 0.  1.
        -12    1    3    3    0    0 -0.57344867604E+01 -0.18353481178E+01  0.60441074904E+01  0.85313584191E+01  0.00000000000E+00 0.  1.
</event>
<event>
 7    1  0.2682317E-010  0.4778727E+02  0.7816164E-02  0.1312668E+00
        -11   -1    0    0    0    0  0.00000000000E+00  0.00000000000E+00  0.45593999997E+02  0.45594000000E+02  0.51100000000E-03 0.  1.
         11   -1    0    0    0    0 -0.00000000000E+00 -0.00000000000E+00 -0.45593999997E+02  0.45594000000E+02  0.51100000000E-03 0. -1.
    9900012    2    1    2    0    0  0.10296835842E+02  0.37556527558E+02 -0.19159997817E+02  0.47787272968E+02  0.20000008770E+02 0.  0.
         12    1    1    2    0    0 -0.10296835842E+02 -0.37556527558E+02  0.19159997817E+02  0.43400727032E+02  0.00000000000E+00 0. -1.
         11    1    3    3    0    0 -0.29064112966E+01  0.42487992794E+01 -0.25326471558E+01  0.57370570695E+01  0.51100000000E-03 0. -1.
        -11    1    3    3    0    0  0.12132951265E+01  0.74337212771E+01  0.22382519453E+01  0.78576121768E+01  0.51100000000E-03 0.  1.
         12    1    3    3    0    0  0.11989952012E+02  0.25874007001E+02 -0.18865602606E+02  0.34192603722E+02  0.00000000000E+00 0. -1.
</event>
<event>
 7    1  0.2682317E-010  0.4778728E+02  0.7816164E-02  0.1312668E+00
        -11   -1    0    0    0    0  0.00000000000E+00  0.00000000000E+00  0.45593999997E+02  0.45594000000E+02  0.51100000000E-03 0.  1.
         11   -1    0    0    0    0 -0.00000000000E+00 -0.00000000000E+00 -0.45593999997E+02  0.45594000000E+02  0.51100000000E-03 0. -1.
    9900012    2    1    2    0    0  0.19160933647E+02  0.29649539674E+02  0.25246503364E+02  0.47787279808E+02  0.20000039955E+02 0.  0.
         12    1    1    2    0    0 -0.19160933647E+02 -0.29649539674E+02 -0.25246503364E+02  0.43400720192E+02  0.00000000000E+00 0. -1.
         11    1    3    3    0    0  0.17830936776E+02  0.18901008826E+02  0.13197024326E+02  0.29143642399E+02  0.51100000000E-03 0.  1.
        -11    1    3    3    0    0  0.38964005156E+01  0.64607626246E+01  0.26468130369E+01  0.79955619054E+01  0.51100000000E-03 0. -1.
        -12    1    3    3    0    0 -0.25664036444E+01  0.42877682229E+01  0.94026660009E+01  0.10648075503E+02  0.00000000000E+00 0.  1.
</event>
<event>
 7    1  0.2682317E-010  0.4778727E+02  0.7816164E-02  0.1312668E+00
        -11   -1    0    0    0    0  0.00000000000E+00  0.00000000000E+00  0.45593999997E+02  0.45594000000E+02  0.51100000000E-03 0. -1.
         11   -1    0    0    0    0 -0.00000000000E+00 -0.00000000000E+00 -0.45593999997E+02  0.45594000000E+02  0.51100000000E-03 0.  1.
    9900012    2    1    2    0    0  0.21612192416E+02 -0.29698372762E+02 -0.23120197983E+02  0.47787265438E+02  0.19999974440E+02 0.  0.
         12    1    1    2    0    0 -0.21612192416E+02  0.29698372762E+02  0.23120197983E+02  0.43400734562E+02  0.00000000000E+00 0. -1.
         11    1    3    3    0    0  0.10256063918E+02 -0.74947615529E+01 -0.28683592302E+01  0.13022510616E+02  0.51100000000E-03 0. -1.
        -11    1    3    3    0    0  0.13777386788E+02 -0.15490605898E+02 -0.12408887802E+02  0.24161037944E+02  0.51100000000E-03 0.  1.
        -12    1    3    3    0    0 -0.24212582899E+01 -0.67130053113E+01 -0.78429509506E+01  0.10603716878E+02  0.00000000000E+00 0.  1.
</event>
<event>
 7    1  0.2682317E-010  0.4778727E+02  0.7816164E-02  0.1312668E+00
        -11   -1    0    0    0    0  0.00000000000E+00  0.00000000000E+00  0.45593999997E+02  0.45594000000E+02  0.51100000000E-03 0.  1.
         11   -1    0    0    0    0 -0.00000000000E+00 -0.00000000000E+00 -0.45593999997E+02  0.45594000000E+02  0.51100000000E-03 0. -1.
    9900012    2    1    2    0    0 -0.14333037713E+02  0.40957273108E+02 -0.83011750096E+00  0.47787270910E+02  0.19999999385E+02 0.  0.
         12    1    1    2    0    0  0.14333037713E+02 -0.40957273108E+02  0.83011750096E+00  0.43400729090E+02  0.00000000000E+00 0. -1.
         11    1    3    3    0    0 -0.15414712629E+01  0.71974138308E+01 -0.54022814732E+01  0.91303638966E+01  0.51100000000E-03 0. -1.
        -11    1    3    3    0    0 -0.10834158148E+02  0.11950168581E+02 -0.65772501948E+00  0.16143671031E+02  0.51100000000E-03 0.  1.
        -12    1    3    3    0    0 -0.19574083018E+01  0.21809690696E+02  0.52298889918E+01  0.22513235982E+02  0.00000000000E+00 0.  1.
</event>
<event>
 7    1  0.2682317E-010  0.4778728E+02  0.7816164E-02  0.1312668E+00
        -11   -1    0    0    0    0  0.00000000000E+00  0.00000000000E+00  0.45593999997E+02  0.45594000000E+02  0.51100000000E-03 0.  1.
         11   -1    0    0    0    0 -0.00000000000E+00 -0.00000000000E+00 -0.45593999997E+02  0.45594000000E+02  0.51100000000E-03 0. -1.
    9900012    2    1    2    0    0 -0.31235763005E+02  0.80540484162E+01  0.29035878399E+02  0.47787276264E+02  0.20000023797E+02 0.  0.
         12    1    1    2    0    0  0.31235763005E+02 -0.80540484162E+01 -0.29035878399E+02  0.43400723736E+02  0.00000000000E+00 0. -1.
         11    1    3    3    0    0 -0.12600614478E+01 -0.17447440476E+01  0.13558892443E+01  0.25436828709E+01  0.51100000000E-03 0. -1.
        -11    1    3    3    0    0 -0.29507244053E+02  0.71517750911E+01  0.29226123194E+02  0.42142515537E+02  0.51100000000E-03 0.  1.
        -12    1    3    3    0    0 -0.46845750483E+00  0.26470173726E+01 -0.15461340391E+01  0.31010778564E+01  0.00000000000E+00 0.  1.
</event>
<event>
 7    1  0.2682317E-010  0.4778727E+02  0.7816164E-02  0.1312668E+00
        -11   -1    0    0    0    0  0.00000000000E+00  0.00000000000E+00  0.45593999997E+02  0.45594000000E+02  0.51100000000E-03 0. -1.
         11   -1    0    0    0    0 -0.00000000000E+00 -0.00000000000E+00 -0.45593999997E+02  0.45594000000E+02  0.51100000000E-03 0.  1.
    9900012    2    1    2    0    0  0.32166962068E+02 -0.17499484457E+02 -0.23295458369E+02  0.47787265149E+02  0.19999973122E+02 0.  0.
         12    1    1    2    0    0 -0.32166962068E+02  0.17499484457E+02  0.23295458369E+02  0.43400734851E+02  0.00000000000E+00 0. -1.
         11    1    3    3    0    0  0.79228884975E+00 -0.18100172661E+00 -0.32934167872E+01  0.33922083724E+01  0.51100000000E-03 0. -1.
        -11    1    3    3    0    0  0.17071080129E+02 -0.62311609930E-01 -0.67522823954E+01  0.18358076624E+02  0.51100000000E-03 0.  1.
         12    1    3    3    0    0  0.14303593089E+02 -0.17256171120E+02 -0.13249759186E+02  0.26036980153E+02  0.00000000000E+00 0. -1.
</event>
<event>
 7    1  0.2682317E-010  0.4778727E+02  0.7816164E-02  0.1312668E+00
        -11   -1    0    0    0    0  0.00000000000E+00  0.00000000000E+00  0.45593999997E+02  0.45594000000E+02  0.51100000000E-03 0. -1.
         11   -1    0    0    0    0 -0.00000000000E+00 -0.00000000000E+00 -0.45593999997E+02  0.45594000000E+02  0.51100000000E-03 0.  1.
    9900012    2    1    2    0    0  0.40383236193E+01  0.28574996422E+02 -0.32415809271E+02  0.47787272254E+02  0.20000005517E+02 0.  0.
         12    1    1    2    0    0 -0.40383236193E+01 -0.28574996422E+02  0.32415809271E+02  0.43400727746E+02  0.00000000000E+00 0. -1.
         11    1    3    3    0    0  0.10396260256E+01  0.10234763767E+02 -0.14595164304E+02  0.17856372335E+02  0.51100000000E-03 0.  1.
        -11    1    3    3    0    0  0.84637881365E+00  0.17452828817E+02 -0.69352660633E+01  0.18799348565E+02  0.51100000000E-03 0. -1.
         12    1    3    3    0    0  0.21523187801E+01  0.88740383794E+00 -0.10885378903E+02  0.11131551355E+02  0.00000000000E+00 0. -1.
</event>
<event>
 7    1  0.2682317E-010  0.4778726E+02  0.7816164E-02  0.1312668E+00
        -11   -1    0    0    0    0  0.00000000000E+00  0.00000000000E+00  0.45593999997E+02  0.45594000000E+02  0.51100000000E-03 0.  1.
         11   -1    0    0    0    0 -0.00000000000E+00 -0.00000000000E+00 -0.45593999997E+02  0.45594000000E+02  0.51100000000E-03 0. -1.
    9900012    2    1    2    0    0  0.27921617369E+02 -0.52568003295E+01  0.32808127782E+02  0.47787263661E+02  0.19999966337E+02 0.  0.
         12    1    1    2    0    0 -0.27921617369E+02  0.52568003295E+01 -0.32808127782E+02  0.43400736339E+02  0.00000000000E+00 0. -1.
         11    1    3    3    0    0  0.12550674698E+02 -0.29282673560E+01  0.83317040013E+01  0.15346383186E+02  0.51100000000E-03 0. -1.
        -11    1    3    3    0    0  0.15446635903E+02 -0.47201674275E+01  0.13045143721E+02  0.20761847611E+02  0.51100000000E-03 0.  1.
         12    1    3    3    0    0 -0.75693232139E-01  0.23916344540E+01  0.11431280059E+02  0.11679032863E+02  0.00000000000E+00 0. -1.
</event>
<event>
 7    1  0.2682317E-010  0.4778727E+02  0.7816164E-02  0.1312668E+00
        -11   -1    0    0    0    0  0.00000000000E+00  0.00000000000E+00  0.45593999997E+02  0.45594000000E+02  0.51100000000E-03 0.  1.
         11   -1    0    0    0    0 -0.00000000000E+00 -0.00000000000E+00 -0.45593999997E+02  0.45594000000E+02  0.51100000000E-03 0. -1.
    9900012    2    1    2    0    0  0.40573877126E+02  0.22055230184E+01 -0.15248597925E+02  0.47787267570E+02  0.19999984157E+02 0.  0.
         12    1    1    2    0    0 -0.40573877126E+02 -0.22055230184E+01  0.15248597925E+02  0.43400732430E+02  0.00000000000E+00 0. -1.
         11    1    3    3    0    0  0.24258895152E+02 -0.52134791656E+01 -0.10456168128E+02  0.26925931946E+02  0.51100000000E-03 0.  1.
        -11    1    3    3    0    0  0.68894064659E+01 -0.30848947861E-01 -0.55156203978E+01  0.88253578819E+01  0.51100000000E-03 0. -1.
        -12    1    3    3    0    0  0.94255755084E+01  0.74498511319E+01  0.72319060101E+00  0.12035977742E+02  0.00000000000E+00 0.  1.
</event>
<event>
 7    1  0.2682317E-010  0.4778727E+02  0.7816164E-02  0.1312668E+00
        -11   -1    0    0    0    0  0.00000000000E+00  0.00000000000E+00  0.45593999997E+02  0.45594000000E+02  0.51100000000E-03 0. -1.
         11   -1    0    0    0    0 -0.00000000000E+00 -0.00000000000E+00 -0.45593999997E+02  0.45594000000E+02  0.51100000000E-03 0.  1.
    9900012    2    1    2    0    0  0.77820855430E+01 -0.25501442479E+02 -0.34245274761E+02  0.47787271119E+02  0.20000000342E+02 0.  0.
         12    1    1    2    0    0 -0.77820855430E+01  0.25501442479E+02  0.34245274761E+02  0.43400728881E+02  0.00000000000E+00 0. -1.
         11    1    3    3    0    0  0.10135922907E+02 -0.10754768059E+02 -0.11822466716E+02  0.18925450819E+02  0.51100000000E-03 0. -1.
        -11    1    3    3    0    0  0.29385608428E+01 -0.12350228032E+01 -0.69663200452E+01  0.76609422648E+01  0.51100000000E-03 0.  1.
         12    1    3    3    0    0 -0.52923982071E+01 -0.13511651617E+02 -0.15456488000E+02  0.21200878036E+02  0.00000000000E+00 0. -1.
</event>
<event>
 7    1  0.2682317E-010  0.4778727E+02  0.7816164E-02  0.1312668E+00
        -11   -1    0    0    0    0  0.00000000000E+00  0.00000000000E+00  0.45593999997E+02  0.45594000000E+02  0.51100000000E-03 0.  1.
         11   -1    0    0    0    0 -0.00000000000E+00 -0.00000000000E+00 -0.45593999997E+02  0.45594000000E+02  0.51100000000E-03 0. -1.
    9900012    2    1    2    0    0 -0.18169402827E+02 -0.34728304885E+02  0.18639775028E+02  0.47787267606E+02  0.19999984322E+02 0.  0.
         12    1    1    2    0    0  0.18169402827E+02  0.34728304885E+02 -0.18639775028E+02  0.43400732394E+02  0.00000000000E+00 0. -1.
         11    1    3    3    0    0 -0.11638047904E+02 -0.26121504627E+02  0.49700555000E+01  0.29025482165E+02  0.51100000000E-03 0. -1.
        -11    1    3    3    0    0 -0.34536785930E+01 -0.70657503436E+00  0.12833947509E+01  0.37515658665E+01  0.51100000000E-03 0.  1.
        -12    1    3    3    0    0 -0.30776763300E+01 -0.79002252232E+01  0.12386324777E+02  0.15010219574E+02  0.00000000000E+00 0.  1.
</event>
<event>
 7    1  0.2682317E-010  0.4778727E+02  0.7816164E-02  0.1312668E+00
        -11   -1    0    0    0    0  0.00000000000E+00  0.00000000000E+00  0.45593999997E+02  0.45594000000E+02  0.51100000000E-03 0.  1.
         11   -1    0    0    0    0 -0.00000000000E+00 -0.00000000000E+00 -0.45593999997E+02  0.45594000000E+02  0.51100000000E-03 0. -1.
    9900012    2    1    2    0    0 -0.11795285027E+01 -0.17716815911E+02  0.39602351658E+02  0.47787272928E+02  0.20000008589E+02 0.  0.
         12    1    1    2    0    0  0.11795285027E+01  0.17716815911E+02 -0.39602351658E+02  0.43400727072E+02  0.00000000000E+00 0. -1.
         11    1    3    3    0    0  0.42130303357E+00 -0.61766274756E+01  0.16268348285E+02  0.17406532664E+02  0.51100000000E-03 0.  1.
        -11    1    3    3    0    0 -0.24609141788E+01 -0.10523489847E+02  0.25580159468E+02  0.27769488577E+02  0.51100000000E-03 0. -1.
         12    1    3    3    0    0  0.86008264244E+00 -0.10166985880E+01 -0.22461560948E+01  0.26112516870E+01  0.00000000000E+00 0. -1.
</event>
<event>
 7    1  0.2682317E-010  0.4778727E+02  0.7816164E-02  0.1312668E+00
        -11   -1    0    0    0    0  0.00000000000E+00  0.00000000000E+00  0.45593999997E+02  0.45594000000E+02  0.51100000000E-03 0. -1.
         11   -1    0    0    0    0 -0.00000000000E+00 -0.00000000000E+00 -0.45593999997E+02  0.45594000000E+02  0.51100000000E-03 0.  1.
    9900012    2    1    2    0    0  0.20604012231E+01 -0.10855469998E+02 -0.41970666155E+02  0.47787270748E+02  0.19999998650E+02 0.  0.
         12    1    1    2    0    0 -0.20604012231E+01  0.10855469998E+02  0.41970666155E+02  0.43400729252E+02  0.00000000000E+00 0. -1.
         11    1    3    3    0    0  0.25747721894E+01 -0.66566655067E+00 -0.65432262719E+01  0.70630286769E+01  0.51100000000E-03 0. -1.
        -11    1    3    3    0    0  0.79251870981E+01 -0.58047292138E+01 -0.23489172371E+02  0.25460649849E+02  0.51100000000E-03 0.  1.
         12    1    3    3    0    0 -0.84395580644E+01 -0.43850742333E+01 -0.11938267512E+02  0.15263592223E+02  0.00000000000E+00 0. -1.
</event>
<event>
 7    1  0.2682317E-010  0.4778728E+02  0.7816164E-02  0.1312668E+00
        -11   -1    0    0    0    0  0.00000000000E+00  0.00000000000E+00  0.45593999997E+02  0.45594000000E+02  0.51100000000E-03 0.  1.
         11   -1    0    0    0    0 -0.00000000000E+00 -0.00000000000E+00 -0.45593999997E+02  0.45594000000E+02  0.51100000000E-03 0. -1.
    9900012    2    1    2    0    0  0.10637665113E+02 -0.38230485276E+02  0.17575347376E+02  0.47787276977E+02  0.20000027049E+02 0.  0.
         12    1    1    2    0    0 -0.10637665113E+02  0.38230485276E+02 -0.17575347376E+02  0.43400723023E+02  0.00000000000E+00 0. -1.
         11    1    3    3    0    0 -0.10535048530E+01 -0.21493142922E+01  0.53237707031E+01  0.58371190807E+01  0.51100000000E-03 0. -1.
        -11    1    3    3    0    0 -0.23703025474E+01 -0.28080490927E+01  0.27767370617E+01  0.46058379090E+01  0.51100000000E-03 0.  1.
         12    1    3    3    0    0  0.14061472514E+02 -0.33273121891E+02  0.94748396111E+01  0.37344319987E+02  0.00000000000E+00 0. -1.
</event>
<event>
 7    1  0.2682317E-010  0.4778727E+02  0.7816164E-02  0.1312668E+00
        -11   -1    0    0    0    0  0.00000000000E+00  0.00000000000E+00  0.45593999997E+02  0.45594000000E+02  0.51100000000E-03 0.  1.
         11   -1    0    0    0    0 -0.00000000000E+00 -0.00000000000E+00 -0.45593999997E+02  0.45594000000E+02  0.51100000000E-03 0. -1.
    9900012    2    1    2    0    0 -0.33078290747E+02  0.13463049484E+02  0.24661637924E+02  0.47787269531E+02  0.19999993099E+02 0.  0.
         12    1    1    2    0    0  0.33078290747E+02 -0.13463049484E+02 -0.24661637924E+02  0.43400730469E+02  0.00000000000E+00 0. -1.
         11    1    3    3    0    0  0.12394883769E+01  0.18387900408E+01  0.50782270719E+01  0.55412878202E+01  0.51100000000E-03 0. -1.
        -11    1    3    3    0    0 -0.73023514872E+01  0.90228043482E+00  0.29695654869E+00  0.73638733476E+01  0.51100000000E-03 0.  1.
        -12    1    3    3    0    0 -0.27015427637E+02  0.10721979008E+02  0.19286454304E+02  0.34882108363E+02  0.00000000000E+00 0.  1.
</event>
<event>
 7    1  0.2682317E-010  0.4778727E+02  0.7816164E-02  0.1312668E+00
        -11   -1    0    0    0    0  0.00000000000E+00  0.00000000000E+00  0.45593999997E+02  0.45594000000E+02  0.51100000000E-03 0. -1.
         11   -1    0    0    0    0 -0.00000000000E+00 -0.00000000000E+00 -0.45593999997E+02  0.45594000000E+02  0.51100000000E-03 0.  1.
    9900012    2    1    2    0    0 -0.61433193163E+00 -0.43309183940E+02  0.27495974480E+01  0.47787273008E+02  0.20000008953E+02 0.  0.
         12    1    1    2    0    0  0.61433193163E+00  0.43309183940E+02 -0.27495974480E+01  0.43400726992E+02  0.00000000000E+00 0. -1.
         11    1    3    3    0    0  0.57697109966E+01 -0.58861701447E+01 -0.10438407478E+01  0.83081988255E+01  0.51100000000E-03 0. -1.
        -11    1    3    3    0    0 -0.20348040146E+01 -0.13545655812E+02 -0.34979992677E+01  0.14137228084E+02  0.51100000000E-03 0.  1.
         12    1    3    3    0    0 -0.43492389136E+01 -0.23877357983E+02  0.72914374636E+01  0.25341846098E+02  0.00000000000E+00 0. -1.
</event>
<event>
 7    1  0.2682317E-010  0.4778725E+02  0.7816164E-02  0.1312668E+00
        -11   -1    0    0    0    0  0.00000000000E+00  0.00000000000E+00  0.45593999997E+02  0.45594000000E+02  0.51100000000E-03 0.  1.
         11   -1    0    0    0    0 -0.00000000000E+00 -0.00000000000E+00 -0.45593999997E+02  0.45594000000E+02  0.51100000000E-03 0. -1.
    9900012    2    1    2    0    0 -0.20804238862E+02  0.38076369776E+02 -0.99926298897E+00  0.47787253273E+02  0.19999918972E+02 0.  0.
         12    1    1    2    0    0  0.20804238862E+02 -0.38076369776E+02  0.99926298897E+00  0.43400746727E+02  0.00000000000E+00 0. -1.
         11    1    3    3    0    0 -0.16989756632E+02  0.18398638066E+02 -0.20699788629E+01  0.25128599759E+02  0.51100000000E-03 0.  1.
        -11    1    3    3    0    0 -0.21715276562E+01 -0.60474633642E+00 -0.24391001887E+00  0.22673206327E+01  0.51100000000E-03 0. -1.
        -12    1    3    3    0    0 -0.16429545744E+01  0.20282478046E+02  0.13146258928E+01  0.20391332881E+02  0.00000000000E+00 0.  1.
</event>
<event>
 7    1  0.2682317E-010  0.4778729E+02  0.7816164E-02  0.1312668E+00
        -11   -1    0    0    0    0  0.00000000000E+00  0.00000000000E+00  0.45593999997E+02  0.45594000000E+02  0.51100000000E-03 0.  1.
         11   -1    0    0    0    0 -0.00000000000E+00 -0.00000000000E+00 -0.45593999997E+02  0.45594000000E+02  0.51100000000E-03 0. -1.
    9900012    2    1    2    0    0 -0.29116548091E+02  0.30979496122E+02  0.87246339075E+01  0.47787288145E+02  0.20000077970E+02 0.  0.
         12    1    1    2    0    0  0.29116548091E+02 -0.30979496122E+02 -0.87246339075E+01  0.43400711855E+02  0.00000000000E+00 0. -1.
         11    1    3    3    0    0  0.21693457602E+01  0.28895352038E+01  0.11287032168E+00  0.36149985742E+01  0.51100000000E-03 0. -1.
        -11    1    3    3    0    0 -0.85014028749E+01  0.91019268997E+01  0.74020707141E+01  0.14488256460E+02  0.51100000000E-03 0.  1.
        -12    1    3    3    0    0 -0.22784490976E+02  0.18988034018E+02  0.12096928717E+01  0.29684033111E+02  0.00000000000E+00 0.  1.
</event>
<event>
 7    1  0.2682317E-010  0.4778727E+02  0.7816164E-02  0.1312668E+00
        -11   -1    0    0    0    0  0.00000000000E+00  0.00000000000E+00  0.45593999997E+02  0.45594000000E+02  0.51100000000E-03 0.  1.
         11   -1    0    0    0    0 -0.00000000000E+00 -0.00000000000E+00 -0.45593999997E+02  0.45594000000E+02  0.51100000000E-03 0. -1.
    9900012    2    1    2    0    0  0.88159406158E+01 -0.75663983855E+01  0.41816885115E+02  0.47787273345E+02  0.20000010489E+02 0.  0.
         12    1    1    2    0    0 -0.88159406158E+01  0.75663983855E+01 -0.41816885115E+02  0.43400726655E+02  0.00000000000E+00 0. -1.
         11    1    3    3    0    0  0.22566350254E+00 -0.22025493396E+01  0.98360422435E+00  0.24227309263E+01  0.51100000000E-03 0. -1.
        -11    1    3    3    0    0  0.38401127238E+01  0.53921247286E+01  0.23535894116E+02  0.24449126507E+02  0.51100000000E-03 0.  1.
        -12    1    3    3    0    0  0.47501643895E+01 -0.10755973774E+02  0.17297386774E+02  0.20915415912E+02  0.00000000000E+00 0.  1.
</event>
<event>
 7    1  0.2682317E-010  0.4778727E+02  0.7816164E-02  0.1312668E+00
        -11   -1    0    0    0    0  0.00000000000E+00  0.00000000000E+00  0.45593999997E+02  0.45594000000E+02  0.51100000000E-03 0.  1.
         11   -1    0    0    0    0 -0.00000000000E+00 -0.00000000000E+00 -0.45593999997E+02  0.45594000000E+02  0.51100000000E-03 0. -1.
    9900012    2    1    2    0    0 -0.36614357822E+02 -0.11488262610E+02  0.20273922051E+02  0.47787270838E+02  0.19999999058E+02 0.  0.
         12    1    1    2    0    0  0.36614357822E+02  0.11488262610E+02 -0.20273922051E+02  0.43400729162E+02  0.00000000000E+00 0. -1.
         11    1    3    3    0    0 -0.63810231937E+01 -0.37091317388E+00  0.55351991851E+01  0.84553807637E+01  0.51100000000E-03 0. -1.
        -11    1    3    3    0    0 -0.32338404458E+02 -0.10778000382E+02  0.14883268706E+02  0.37194749398E+02  0.51100000000E-03 0.  1.
         12    1    3    3    0    0  0.21050698301E+01 -0.33934905348E+00 -0.14454584012E+00  0.21371406762E+01  0.00000000000E+00 0. -1.
</event>
<event>
 7    1  0.2682317E-010  0.4778727E+02  0.7816164E-02  0.1312668E+00
        -11   -1    0    0    0    0  0.00000000000E+00  0.00000000000E+00  0.45593999997E+02  0.45594000000E+02  0.51100000000E-03 0.  1.
         11   -1    0    0    0    0 -0.00000000000E+00 -0.00000000000E+00 -0.45593999997E+02  0.45594000000E+02  0.51100000000E-03 0. -1.
    9900012    2    1    2    0    0 -0.44066774014E+01  0.76660749379E+01  0.42490418649E+02  0.47787272038E+02  0.20000004530E+02 0.  0.
         12    1    1    2    0    0  0.44066774014E+01 -0.76660749379E+01 -0.42490418649E+02  0.43400727962E+02  0.00000000000E+00 0. -1.
         11    1    3    3    0    0 -0.68954842078E+00 -0.14643514495E+01  0.13015365180E+01  0.20769688878E+01  0.51100000000E-03 0. -1.
        -11    1    3    3    0    0 -0.14187741658E+01  0.10218772001E+02  0.98352593741E+01  0.14253720516E+02  0.51100000000E-03 0.  1.
        -12    1    3    3    0    0 -0.22983548148E+01 -0.10883456135E+01  0.31353622757E+02  0.31456582634E+02  0.00000000000E+00 0.  1.
</event>
<event>
 7    1  0.2682317E-010  0.4778726E+02  0.7816164E-02  0.1312668E+00
        -11   -1    0    0    0    0  0.00000000000E+00  0.00000000000E+00  0.45593999997E+02  0.45594000000E+02  0.51100000000E-03 0.  1.
         11   -1    0    0    0    0 -0.00000000000E+00 -0.00000000000E+00 -0.45593999997E+02  0.45594000000E+02  0.51100000000E-03 0. -1.
    9900012    2    1    2    0    0 -0.38487062548E+02 -0.11994046497E+02  0.16078342775E+02  0.47787259898E+02  0.19999949181E+02 0.  0.
         12    1    1    2    0    0  0.38487062548E+02  0.11994046497E+02 -0.16078342775E+02  0.43400740102E+02  0.00000000000E+00 0. -1.
         11    1    3    3    0    0 -0.73906383042E+01  0.20472574054E+01  0.18694194628E+01  0.78935116911E+01  0.51100000000E-03 0. -1.
        -11    1    3    3    0    0 -0.24090377480E+02 -0.67563711294E+01  0.15902050817E+02  0.29645742669E+02  0.51100000000E-03 0.  1.
         12    1    3    3    0    0 -0.70060467642E+01 -0.72849327726E+01 -0.16931275046E+01  0.10248005538E+02  0.00000000000E+00 0. -1.
</event>
<event>
 7    1  0.2682317E-010  0.4778727E+02  0.7816164E-02  0.1312668E+00
        -11   -1    0    0    0    0  0.00000000000E+00  0.00000000000E+00  0.45593999997E+02  0.45594000000E+02  0.51100000000E-03 0. -1.
         11   -1    0    0    0    0 -0.00000000000E+00 -0.00000000000E+00 -0.45593999997E+02  0.45594000000E+02  0.51100000000E-03 0.  1.
    9900012    2    1    2    0    0 -0.14373803487E+02 -0.24198793927E+02 -0.33036882316E+02  0.47787269046E+02  0.19999990888E+02 0.  0.
         12    1    1    2    0    0  0.14373803487E+02  0.24198793927E+02  0.33036882316E+02  0.43400730954E+02  0.00000000000E+00 0. -1.
         11    1    3    3    0    0 -0.34396739522E+00 -0.36787617147E+00  0.13649859223E+01  0.14549341139E+01  0.51100000000E-03 0. -1.
        -11    1    3    3    0    0  0.15323200508E+01 -0.87945840319E+01 -0.66024837236E+01  0.11103400588E+02  0.51100000000E-03 0.  1.
        -12    1    3    3    0    0 -0.15562156143E+02 -0.15036333723E+02 -0.27799384515E+02  0.35228934344E+02  0.00000000000E+00 0.  1.
</event>
<event>
 7    1  0.2682317E-010  0.4778728E+02  0.7816164E-02  0.1312668E+00
        -11   -1    0    0    0    0  0.00000000000E+00  0.00000000000E+00  0.45593999997E+02  0.45594000000E+02  0.51100000000E-03 0.  1.
         11   -1    0    0    0    0 -0.00000000000E+00 -0.00000000000E+00 -0.45593999997E+02  0.45594000000E+02  0.51100000000E-03 0. -1.
    9900012    2    1    2    0    0 -0.52456692029E+01 -0.38343724254E+02  0.19643425114E+02  0.47787281282E+02  0.20000046675E+02 0.  0.
         12    1    1    2    0    0  0.52456692029E+01  0.38343724254E+02 -0.19643425114E+02  0.43400718718E+02  0.00000000000E+00 0. -1.
         11    1    3    3    0    0  0.47569638273E+01 -0.10451135771E+02  0.71623508378E+01  0.13533447954E+02  0.51100000000E-03 0. -1.
        -11    1    3    3    0    0 -0.11182815927E+01 -0.15635590590E+02  0.10770900139E+02  0.19019320096E+02  0.51100000000E-03 0.  1.
         12    1    3    3    0    0 -0.88843514375E+01 -0.12256997893E+02  0.17101741370E+01  0.15234513231E+02  0.00000000000E+00 0. -1.
</event>
<event>
 7    1  0.2682317E-010  0.4778724E+02  0.7816164E-02  0.1312668E+00
        -11   -1    0    0    0    0  0.00000000000E+00  0.00000000000E+00  0.45593999997E+02  0.45594000000E+02  0.51100000000E-03 0.  1.
         11   -1    0    0    0    0 -0.00000000000E+00 -0.00000000000E+00 -0.45593999997E+02  0.45594000000E+02  0.51100000000E-03 0. -1.
    9900012    2    1    2    0    0 -0.11116080302E+01 -0.45093942559E+01  0.43151539768E+02  0.47787243171E+02  0.19999872916E+02 0.  0.
         12    1    1    2    0    0  0.11116080302E+01  0.45093942559E+01 -0.43151539768E+02  0.43400756829E+02  0.00000000000E+00 0. -1.
         11    1    3    3    0    0 -0.25687964543E+01 -0.76441444563E+00  0.70734765051E+00  0.27718920665E+01  0.51100000000E-03 0. -1.
        -11    1    3    3    0    0 -0.20023464668E+01  0.50698281413E+01  0.13391368723E+02  0.14458260797E+02  0.51100000000E-03 0.  1.
         12    1    3    3    0    0  0.34595348909E+01 -0.88148079515E+01  0.29052823394E+02  0.30557090308E+02  0.00000000000E+00 0. -1.
</event>
<event>
 7    1  0.2682317E-010  0.4778728E+02  0.7816164E-02  0.1312668E+00
        -11   -1    0    0    0    0  0.00000000000E+00  0.00000000000E+00  0.45593999997E+02  0.45594000000E+02  0.51100000000E-03 0.  1.
         11   -1    0    0    0    0 -0.00000000000E+00 -0.00000000000E+00 -0.45593999997E+02  0.45594000000E+02  0.51100000000E-03 0. -1.
    9900012    2    1    2    0    0 -0.41716467882E+02  0.58118421484E+01  0.10468107299E+02  0.47787280281E+02  0.20000042112E+02 0.  0.
         12    1    1    2    0    0  0.41716467882E+02 -0.58118421484E+01 -0.10468107299E+02  0.43400719719E+02  0.00000000000E+00 0. -1.
         11    1    3    3    0    0 -0.20756657624E+01 -0.18211047165E+01 -0.20790411128E+01  0.34564755106E+01  0.51100000000E-03 0. -1.
        -11    1    3    3    0    0 -0.82216549334E+01 -0.14547046814E+01  0.75259266378E+01  0.11240611530E+02  0.51100000000E-03 0.  1.
        -12    1    3    3    0    0 -0.31419147187E+02  0.90876515464E+01  0.50212217736E+01  0.33090193240E+02  0.00000000000E+00 0.  1.
</event>
<event>
 7    1  0.2682317E-010  0.4778727E+02  0.7816164E-02  0.1312668E+00
        -11   -1    0    0    0    0  0.00000000000E+00  0.00000000000E+00  0.45593999997E+02  0.45594000000E+02  0.51100000000E-03 0.  1.
         11   -1    0    0    0    0 -0.00000000000E+00 -0.00000000000E+00 -0.45593999997E+02  0.45594000000E+02  0.51100000000E-03 0. -1.
    9900012    2    1    2    0    0  0.20968955659E+02 -0.39286245367E+01  0.37795398359E+02  0.47787270406E+02  0.19999997088E+02 0.  0.
         12    1    1    2    0    0 -0.20968955659E+02  0.39286245367E+01 -0.37795398359E+02  0.43400729594E+02  0.00000000000E+00 0. -1.
         11    1    3    3    0    0  0.12424169286E+02  0.47754266904E+01  0.24574916942E+02  0.27948009330E+02  0.51100000000E-03 0. -1.
        -11    1    3    3    0    0  0.48191548866E+01 -0.10080293176E+01  0.91029288432E+01  0.10349091299E+02  0.51100000000E-03 0.  1.
         12    1    3    3    0    0  0.37256314860E+01 -0.76960219094E+01  0.41175525742E+01  0.94901697772E+01  0.00000000000E+00 0. -1.
</event>
<event>
 7    1  0.2682317E-010  0.4778727E+02  0.7816164E-02  0.1312668E+00
        -11   -1    0    0    0    0  0.00000000000E+00  0.00000000000E+00  0.45593999997E+02  0.45594000000E+02  0.51100000000E-03 0.  1.
         11   -1    0    0    0    0 -0.00000000000E+00 -0.00000000000E+00 -0.45593999997E+02  0.45594000000E+02  0.51100000000E-03 0. -1.
    9900012    2    1    2    0    0 -0.54605138206E+01 -0.28074622521E+02  0.32643862060E+02  0.47787269924E+02  0.19999994893E+02 0.  0.
         12    1    1    2    0    0  0.54605138206E+01  0.28074622521E+02 -0.32643862060E+02  0.43400730076E+02  0.00000000000E+00 0. -1.
         11    1    3    3    0    0 -0.27427077153E+01 -0.11710990588E+01  0.30283943371E+01  0.42503048289E+01  0.51100000000E-03 0. -1.
        -11    1    3    3    0    0 -0.32328739851E+01 -0.23559984604E+02  0.14077809051E+02  0.27635286442E+02  0.51100000000E-03 0.  1.
        -12    1    3    3    0    0  0.51506787984E+00 -0.33435388582E+01  0.15537658672E+02  0.15901678654E+02  0.00000000000E+00 0.  1.
</event>
<event>
 7    1  0.2682317E-010  0.4778726E+02  0.7816164E-02  0.1312668E+00
        -11   -1    0    0    0    0  0.00000000000E+00  0.00000000000E+00  0.45593999997E+02  0.45594000000E+02  0.51100000000E-03 0.  1.
         11   -1    0    0    0    0 -0.00000000000E+00 -0.00000000000E+00 -0.45593999997E+02  0.45594000000E+02  0.51100000000E-03 0. -1.
    9900012    2    1    2    0    0 -0.43257584799E+02  0.81942815923E+00  0.34254560223E+01  0.47787264360E+02  0.19999969523E+02 0.  0.
         12    1    1    2    0    0  0.43257584799E+02 -0.81942815923E+00 -0.34254560223E+01  0.43400735640E+02  0.00000000000E+00 0. -1.
         11    1    3    3    0    0 -0.19349992595E+02  0.55098730611E+01 -0.56403217659E+01  0.20894835353E+02  0.51100000000E-03 0. -1.
        -11    1    3    3    0    0 -0.22112249063E+01  0.60366764748E+00 -0.86649300314E+00  0.24504572227E+01  0.51100000000E-03 0.  1.
        -12    1    3    3    0    0 -0.21696367298E+02 -0.52941125493E+01  0.99322707914E+01  0.24441971784E+02  0.00000000000E+00 0.  1.
</event>
<event>
 7    1  0.2682317E-010  0.4778727E+02  0.7816164E-02  0.1312668E+00
        -11   -1    0    0    0    0  0.00000000000E+00  0.00000000000E+00  0.45593999997E+02  0.45594000000E+02  0.51100000000E-03 0.  1.
         11   -1    0    0    0    0 -0.00000000000E+00 -0.00000000000E+00 -0.45593999997E+02  0.45594000000E+02  0.51100000000E-03 0. -1.
    9900012    2    1    2    0    0  0.53923222567E+01 -0.35338275199E+02  0.24612037529E+02  0.47787271611E+02  0.20000002583E+02 0.  0.
         12    1    1    2    0    0 -0.53923222567E+01  0.35338275199E+02 -0.24612037529E+02  0.43400728389E+02  0.00000000000E+00 0. -1.
         11    1    3    3    0    0 -0.44838543231E+01 -0.10931322086E+02  0.38683564014E+01  0.12432334199E+02  0.51100000000E-03 0. -1.
        -11    1    3    3    0    0  0.20800259623E+01 -0.17064228863E+02  0.87969940362E+01  0.19310658172E+02  0.51100000000E-03 0.  1.
         12    1    3    3    0    0  0.77961506174E+01 -0.73427242502E+01  0.11946687091E+02  0.16044279240E+02  0.00000000000E+00 0. -1.
</event>
<event>
 7    1  0.2682317E-010  0.4778728E+02  0.7816164E-02  0.1312668E+00
        -11   -1    0    0    0    0  0.00000000000E+00  0.00000000000E+00  0.45593999997E+02  0.45594000000E+02  0.51100000000E-03 0. -1.
         11   -1    0    0    0    0 -0.00000000000E+00 -0.00000000000E+00 -0.45593999997E+02  0.45594000000E+02  0.51100000000E-03 0.  1.
    9900012    2    1    2    0    0 -0.22981537194E+02 -0.23961075377E+02  0.27952431367E+02  0.47787278758E+02  0.20000035168E+02 0.  0.
         12    1    1    2    0    0  0.22981537194E+02  0.23961075377E+02 -0.27952431367E+02  0.43400721242E+02  0.00000000000E+00 0. -1.
         11    1    3    3    0    0 -0.34069984977E+01 -0.40664966133E+01 -0.26088303795E+01  0.59118550117E+01  0.51100000000E-03 0. -1.
        -11    1    3    3    0    0  0.35618996433E+00  0.27270181177E-01  0.86902340154E+00  0.93958335821E+00  0.51100000000E-03 0.  1.
        -12    1    3    3    0    0 -0.19930728660E+02 -0.19921848944E+02  0.29692238345E+02  0.40935840388E+02  0.00000000000E+00 0.  1.
</event>
<event>
 7    1  0.2682317E-010  0.4778730E+02  0.7816164E-02  0.1312668E+00
        -11   -1    0    0    0    0  0.00000000000E+00  0.00000000000E+00  0.45593999997E+02  0.45594000000E+02  0.51100000000E-03 0.  1.
         11   -1    0    0    0    0 -0.00000000000E+00 -0.00000000000E+00 -0.45593999997E+02  0.45594000000E+02  0.51100000000E-03 0. -1.
    9900012    2    1    2    0    0 -0.29338357019E+02 -0.30880740993E+02  0.83223486442E+01  0.47787299040E+02  0.20000127643E+02 0.  0.
         12    1    1    2    0    0  0.29338357019E+02  0.30880740993E+02 -0.83223486442E+01  0.43400700960E+02  0.00000000000E+00 0. -1.
         11    1    3    3    0    0 -0.22061020654E+01  0.18242867932E+00  0.20521252146E+01  0.30185070322E+01  0.51100000000E-03 0. -1.
        -11    1    3    3    0    0 -0.92612572104E+01 -0.97043900100E+01  0.99168136664E+01  0.16682004200E+02  0.51100000000E-03 0.  1.
         12    1    3    3    0    0 -0.17870997743E+02 -0.21358779662E+02 -0.36465902368E+01  0.28086787808E+02  0.00000000000E+00 0. -1.
</event>
<event>
 7    1  0.2682317E-010  0.4778727E+02  0.7816164E-02  0.1312668E+00
        -11   -1    0    0    0    0  0.00000000000E+00  0.00000000000E+00  0.45593999997E+02  0.45594000000E+02  0.51100000000E-03 0.  1.
         11   -1    0    0    0    0 -0.00000000000E+00 -0.00000000000E+00 -0.45593999997E+02  0.45594000000E+02  0.51100000000E-03 0. -1.
    9900012    2    1    2    0    0  0.85596044711E+01 -0.19745961095E+02  0.37688907652E+02  0.47787267653E+02  0.19999984535E+02 0.  0.
         12    1    1    2    0    0 -0.85596044711E+01  0.19745961095E+02 -0.37688907652E+02  0.43400732347E+02  0.00000000000E+00 0. -1.
         11    1    3    3    0    0  0.65311679831E+01  0.17341246347E+01  0.13290410439E+02  0.14909673148E+02  0.51100000000E-03 0. -1.
        -11    1    3    3    0    0  0.22245354855E-01 -0.45214335645E+01  0.80707858611E+01  0.92510237817E+01  0.51100000000E-03 0.  1.
         12    1    3    3    0    0  0.20061911332E+01 -0.16958652165E+02  0.16327711352E+02  0.23626570723E+02  0.00000000000E+00 0. -1.
</event>
<event>
 7    1  0.2682317E-010  0.4778727E+02  0.7816164E-02  0.1312668E+00
        -11   -1    0    0    0    0  0.00000000000E+00  0.00000000000E+00  0.45593999997E+02  0.45594000000E+02  0.51100000000E-03 0. -1.
         11   -1    0    0    0    0 -0.00000000000E+00 -0.00000000000E+00 -0.45593999997E+02  0.45594000000E+02  0.51100000000E-03 0.  1.
    9900012    2    1    2    0    0 -0.18483414063E+02 -0.18849942403E+00 -0.39267684848E+02  0.47787271886E+02  0.20000003839E+02 0.  0.
         12    1    1    2    0    0  0.18483414063E+02  0.18849942403E+00  0.39267684848E+02  0.43400728114E+02  0.00000000000E+00 0. -1.
         11    1    3    3    0    0  0.46491909088E+00 -0.14690358516E+01  0.98365908345E-01  0.15439858184E+01  0.51100000000E-03 0.  1.
        -11    1    3    3    0    0 -0.35125447688E+01  0.10091355212E-02 -0.24581037017E+02  0.24830734038E+02  0.51100000000E-03 0. -1.
        -12    1    3    3    0    0 -0.15435788386E+02  0.12795272921E+01 -0.14785013740E+02  0.21412552030E+02  0.00000000000E+00 0.  1.
</event>
<event>
 7    1  0.2682317E-010  0.4778726E+02  0.7816164E-02  0.1312668E+00
        -11   -1    0    0    0    0  0.00000000000E+00  0.00000000000E+00  0.45593999997E+02  0.45594000000E+02  0.51100000000E-03 0. -1.
         11   -1    0    0    0    0 -0.00000000000E+00 -0.00000000000E+00 -0.45593999997E+02  0.45594000000E+02  0.51100000000E-03 0.  1.
    9900012    2    1    2    0    0 -0.36929180194E+02  0.73077439514E+01 -0.21597609112E+02  0.47787260481E+02  0.19999951837E+02 0.  0.
         12    1    1    2    0    0  0.36929180194E+02 -0.73077439514E+01  0.21597609112E+02  0.43400739519E+02  0.00000000000E+00 0. -1.
         11    1    3    3    0    0 -0.23349924280E+01  0.49907072842E+01 -0.26884752622E+01  0.61308440146E+01  0.51100000000E-03 0. -1.
        -11    1    3    3    0    0 -0.13306895796E+02  0.53100776899E+01 -0.13039897079E+02  0.19372901612E+02  0.51100000000E-03 0.  1.
        -12    1    3    3    0    0 -0.21287291970E+02 -0.29930410226E+01 -0.58692367707E+01  0.22283514854E+02  0.00000000000E+00 0.  1.
</event>
<event>
 7    1  0.2682317E-010  0.4778727E+02  0.7816164E-02  0.1312668E+00
        -11   -1    0    0    0    0  0.00000000000E+00  0.00000000000E+00  0.45593999997E+02  0.45594000000E+02  0.51100000000E-03 0. -1.
         11   -1    0    0    0    0 -0.00000000000E+00 -0.00000000000E+00 -0.45593999997E+02  0.45594000000E+02  0.51100000000E-03 0.  1.
    9900012    2    1    2    0    0  0.35760888127E+02  0.22202718472E+02  0.10574563520E+02  0.47787271656E+02  0.20000002787E+02 0.  0.
         12    1    1    2    0    0 -0.35760888127E+02 -0.22202718472E+02 -0.10574563520E+02  0.43400728344E+02  0.00000000000E+00 0. -1.
         11    1    3    3    0    0  0.10917545548E+02  0.43191684689E+01  0.83489525352E+01  0.14406700724E+02  0.51100000000E-03 0. -1.
        -11    1    3    3    0    0  0.91025671018E+01 -0.69452022998E-02 -0.16116946289E+01  0.92441514438E+01  0.51100000000E-03 0.  1.
        -12    1    3    3    0    0  0.15740775477E+02  0.17890495205E+02  0.38373056137E+01  0.24136419488E+02  0.00000000000E+00 0.  1.
</event>
<event>
 7    1  0.2682317E-010  0.4778727E+02  0.7816164E-02  0.1312668E+00
        -11   -1    0    0    0    0  0.00000000000E+00  0.00000000000E+00  0.45593999997E+02  0.45594000000E+02  0.51100000000E-03 0. -1.
         11   -1    0    0    0    0 -0.00000000000E+00 -0.00000000000E+00 -0.45593999997E+02  0.45594000000E+02  0.51100000000E-03 0.  1.
    9900012    2    1    2    0    0  0.32993754889E+02  0.24391963997E+02  0.14144525337E+02  0.47787269979E+02  0.19999995144E+02 0.  0.
         12    1    1    2    0    0 -0.32993754889E+02 -0.24391963997E+02 -0.14144525337E+02  0.43400730021E+02  0.00000000000E+00 0. -1.
         11    1    3    3    0    0  0.48903325217E+01  0.48057687929E+01  0.39154168653E+01  0.78956478742E+01  0.51100000000E-03 0. -1.
        -11    1    3    3    0    0  0.23282420712E+02  0.22508424459E+02  0.62242102572E+01  0.32976371532E+02  0.51100000000E-03 0.  1.
        -12    1    3    3    0    0  0.48210016552E+01 -0.29222292549E+01  0.40048982143E+01  0.69152505728E+01  0.00000000000E+00 0.  1.
</event>
<event>
 7    1  0.2682317E-010  0.4778727E+02  0.7816164E-02  0.1312668E+00
        -11   -1    0    0    0    0  0.00000000000E+00  0.00000000000E+00  0.45593999997E+02  0.45594000000E+02  0.51100000000E-03 0.  1.
         11   -1    0    0    0    0 -0.00000000000E+00 -0.00000000000E+00 -0.45593999997E+02  0.45594000000E+02  0.51100000000E-03 0. -1.
    9900012    2    1    2    0    0  0.39656204373E+02  0.39233047512E+01  0.17193497918E+02  0.47787271480E+02  0.20000001984E+02 0.  0.
         12    1    1    2    0    0 -0.39656204373E+02 -0.39233047512E+01 -0.17193497918E+02  0.43400728520E+02  0.00000000000E+00 0. -1.
         11    1    3    3    0    0  0.17986152371E+01  0.28322644777E+01  0.48653039579E+01  0.59099849159E+01  0.51100000000E-03 0. -1.
        -11    1    3    3    0    0 -0.39317507905E+00 -0.38382794875E+00  0.22185878916E+01  0.22856165538E+01  0.51100000000E-03 0.  1.
        -12    1    3    3    0    0  0.38250764215E+02  0.14748682223E+01  0.10109606068E+02  0.39591670010E+02  0.00000000000E+00 0.  1.
</event>
<event>
 7    1  0.2682317E-010  0.4778727E+02  0.7816164E-02  0.1312668E+00
        -11   -1    0    0    0    0  0.00000000000E+00  0.00000000000E+00  0.45593999997E+02  0.45594000000E+02  0.51100000000E-03 0. -1.
         11   -1    0    0    0    0 -0.00000000000E+00 -0.00000000000E+00 -0.45593999997E+02  0.45594000000E+02  0.51100000000E-03 0.  1.
    9900012    2    1    2    0    0 -0.45360478775E+01  0.23627409402E+02 -0.36121916073E+02  0.47787273898E+02  0.20000013009E+02 0.  0.
         12    1    1    2    0    0  0.45360478775E+01 -0.23627409402E+02  0.36121916073E+02  0.43400726102E+02  0.00000000000E+00 0. -1.
         11    1    3    3    0    0 -0.29064809408E+00  0.10297660450E+02 -0.33935830877E+01  0.10846321657E+02  0.51100000000E-03 0. -1.
        -11    1    3    3    0    0 -0.87100276275E+00 -0.92703267301E+00 -0.22966248057E+00  0.12925867498E+01  0.51100000000E-03 0.  1.
        -12    1    3    3    0    0 -0.33743970206E+01  0.14256781625E+02 -0.32498670505E+02  0.35648365491E+02  0.00000000000E+00 0.  1.
</event>
<event>
 7    1  0.2682317E-010  0.4778727E+02  0.7816164E-02  0.1312668E+00
        -11   -1    0    0    0    0  0.00000000000E+00  0.00000000000E+00  0.45593999997E+02  0.45594000000E+02  0.51100000000E-03 0.  1.
         11   -1    0    0    0    0 -0.00000000000E+00 -0.00000000000E+00 -0.45593999997E+02  0.45594000000E+02  0.51100000000E-03 0. -1.
    9900012    2    1    2    0    0 -0.10737145099E+02 -0.10995278312E+02  0.40588678773E+02  0.47787271036E+02  0.19999999961E+02 0.  0.
         12    1    1    2    0    0  0.10737145099E+02  0.10995278312E+02 -0.40588678773E+02  0.43400728964E+02  0.00000000000E+00 0. -1.
         11    1    3    3    0    0 -0.75333311446E+01 -0.45483302991E+00  0.15593356780E+02  0.17323704199E+02  0.51100000000E-03 0. -1.
        -11    1    3    3    0    0 -0.49841631652E+01 -0.20922457949E+01  0.19485797909E+02  0.20221664010E+02  0.51100000000E-03 0.  1.
         12    1    3    3    0    0  0.17803492110E+01 -0.84481994876E+01  0.55095240842E+01  0.10241902828E+02  0.00000000000E+00 0. -1.
</event>
<event>
 7    1  0.2682317E-010  0.4778727E+02  0.7816164E-02  0.1312668E+00
        -11   -1    0    0    0    0  0.00000000000E+00  0.00000000000E+00  0.45593999997E+02  0.45594000000E+02  0.51100000000E-03 0.  1.
         11   -1    0    0    0    0 -0.00000000000E+00 -0.00000000000E+00 -0.45593999997E+02  0.45594000000E+02  0.51100000000E-03 0. -1.
    9900012    2    1    2    0    0  0.28038585792E+02  0.14665410227E+02  0.29704997038E+02  0.47787269599E+02  0.19999993410E+02 0.  0.
         12    1    1    2    0    0 -0.28038585792E+02 -0.14665410227E+02 -0.29704997038E+02  0.43400730401E+02  0.00000000000E+00 0. -1.
         11    1    3    3    0    0  0.94861566518E+01 -0.15342968121E+01  0.11104114780E+02  0.14684774429E+02  0.51100000000E-03 0. -1.
        -11    1    3    3    0    0  0.39472640542E+01  0.10135404689E+02  0.40312740835E+01  0.11599935031E+02  0.51100000000E-03 0.  1.
         12    1    3    3    0    0  0.14605165086E+02  0.60643023501E+01  0.14569608175E+02  0.21502560139E+02  0.00000000000E+00 0. -1.
</event>
<event>
 7    1  0.2682317E-010  0.4778727E+02  0.7816164E-02  0.1312668E+00
        -11   -1    0    0    0    0  0.00000000000E+00  0.00000000000E+00  0.45593999997E+02  0.45594000000E+02  0.51100000000E-03 0.  1.
         11   -1    0    0    0    0 -0.00000000000E+00 -0.00000000000E+00 -0.45593999997E+02  0.45594000000E+02  0.51100000000E-03 0. -1.
    9900012    2    1    2    0    0 -0.21304714720E+02 -0.51868174010E+01  0.37454359528E+02  0.47787274295E+02  0.20000014820E+02 0.  0.
         12    1    1    2    0    0  0.21304714720E+02  0.51868174010E+01 -0.37454359528E+02  0.43400725705E+02  0.00000000000E+00 0. -1.
         11    1    3    3    0    0 -0.82016066023E+01 -0.74839288065E+00  0.12616935363E+02  0.15066967213E+02  0.51100000000E-03 0. -1.
        -11    1    3    3    0    0 -0.49380997487E+01  0.61554811754E+01  0.83337264563E+01  0.11477184957E+02  0.51100000000E-03 0.  1.
         12    1    3    3    0    0 -0.81650083691E+01 -0.10593905696E+02  0.16503697709E+02  0.21243122125E+02  0.00000000000E+00 0. -1.
</event>
<event>
 7    1  0.2682317E-010  0.4778727E+02  0.7816164E-02  0.1312668E+00
        -11   -1    0    0    0    0  0.00000000000E+00  0.00000000000E+00  0.45593999997E+02  0.45594000000E+02  0.51100000000E-03 0.  1.
         11   -1    0    0    0    0 -0.00000000000E+00 -0.00000000000E+00 -0.45593999997E+02  0.45594000000E+02  0.51100000000E-03 0. -1.
    9900012    2    1    2    0    0  0.48574934584E+01  0.37830147362E+02  0.20710088026E+02  0.47787273760E+02  0.20000012380E+02 0.  0.
         12    1    1    2    0    0 -0.48574934584E+01 -0.37830147362E+02 -0.20710088026E+02  0.43400726240E+02  0.00000000000E+00 0. -1.
         11    1    3    3    0    0  0.42788752623E+00  0.41189465408E+00  0.11645725090E+01  0.13072774499E+01  0.51100000000E-03 0. -1.
        -11    1    3    3    0    0  0.11271538302E+02  0.15920307712E+02  0.10691208272E+02  0.22244228643E+02  0.51100000000E-03 0.  1.
         12    1    3    3    0    0 -0.68419323699E+01  0.21497944996E+02  0.88543072444E+01  0.24235767667E+02  0.00000000000E+00 0. -1.
</event>
<event>
 7    1  0.2682317E-010  0.4778727E+02  0.7816164E-02  0.1312668E+00
        -11   -1    0    0    0    0  0.00000000000E+00  0.00000000000E+00  0.45593999997E+02  0.45594000000E+02  0.51100000000E-03 0. -1.
         11   -1    0    0    0    0 -0.00000000000E+00 -0.00000000000E+00 -0.45593999997E+02  0.45594000000E+02  0.51100000000E-03 0.  1.
    9900012    2    1    2    0    0 -0.28331329722E+02 -0.10415748131E+02 -0.31184471718E+02  0.47787270406E+02  0.19999997090E+02 0.  0.
         12    1    1    2    0    0  0.28331329722E+02  0.10415748131E+02  0.31184471718E+02  0.43400729594E+02  0.00000000000E+00 0. -1.
         11    1    3    3    0    0  0.29139864015E+00  0.11636024619E+01 -0.68670337144E+01  0.69710139975E+01  0.51100000000E-03 0. -1.
        -11    1    3    3    0    0 -0.27270565114E+01  0.16966171186E+01 -0.48048630177E+01  0.57794511628E+01  0.51100000000E-03 0.  1.
        -12    1    3    3    0    0 -0.25895671851E+02 -0.13275967711E+02 -0.19512574986E+02  0.35036805246E+02  0.00000000000E+00 0.  1.
</event>
<event>
 7    1  0.2682317E-010  0.4778727E+02  0.7816164E-02  0.1312668E+00
        -11   -1    0    0    0    0  0.00000000000E+00  0.00000000000E+00  0.45593999997E+02  0.45594000000E+02  0.51100000000E-03 0.  1.
         11   -1    0    0    0    0 -0.00000000000E+00 -0.00000000000E+00 -0.45593999997E+02  0.45594000000E+02  0.51100000000E-03 0. -1.
    9900012    2    1    2    0    0 -0.35174440633E+02  0.20512507209E+02  0.15020617206E+02  0.47787272275E+02  0.20000005609E+02 0.  0.
         12    1    1    2    0    0  0.35174440633E+02 -0.20512507209E+02 -0.15020617206E+02  0.43400727725E+02  0.00000000000E+00 0. -1.
         11    1    3    3    0    0 -0.24914875374E+02  0.15384425757E+02  0.13100632454E+02  0.32078936106E+02  0.51100000000E-03 0. -1.
        -11    1    3    3    0    0 -0.10534422643E+02  0.73105323544E+01  0.31282695649E+01  0.13198636841E+02  0.51100000000E-03 0.  1.
         12    1    3    3    0    0  0.27485738402E+00 -0.21824509027E+01 -0.12082848129E+01  0.25096993272E+01  0.00000000000E+00 0. -1.
</event>
<event>
 7    1  0.2682317E-010  0.4778727E+02  0.7816164E-02  0.1312668E+00
        -11   -1    0    0    0    0  0.00000000000E+00  0.00000000000E+00  0.45593999997E+02  0.45594000000E+02  0.51100000000E-03 0.  1.
         11   -1    0    0    0    0 -0.00000000000E+00 -0.00000000000E+00 -0.45593999997E+02  0.45594000000E+02  0.51100000000E-03 0. -1.
    9900012    2    1    2    0    0 -0.14141183770E+02  0.10028903996E+02  0.39787824912E+02  0.47787274142E+02  0.20000014124E+02 0.  0.
         12    1    1    2    0    0  0.14141183770E+02 -0.10028903996E+02 -0.39787824912E+02  0.43400725858E+02  0.00000000000E+00 0. -1.
         11    1    3    3    0    0 -0.10085726561E+02  0.28799647710E+01  0.10275109684E+02  0.14683118082E+02  0.51100000000E-03 0. -1.
        -11    1    3    3    0    0 -0.49097871434E+00  0.74001892657E+01  0.66417763537E+01  0.99557548514E+01  0.51100000000E-03 0.  1.
        -12    1    3    3    0    0 -0.35644784948E+01 -0.25125004036E+00  0.22870938874E+02  0.23148401209E+02  0.00000000000E+00 0.  1.
</event>
<event>
 7    1  0.2682317E-010  0.4778727E+02  0.7816164E-02  0.1312668E+00
        -11   -1    0    0    0    0  0.00000000000E+00  0.00000000000E+00  0.45593999997E+02  0.45594000000E+02  0.51100000000E-03 0.  1.
         11   -1    0    0    0    0 -0.00000000000E+00 -0.00000000000E+00 -0.45593999997E+02  0.45594000000E+02  0.51100000000E-03 0. -1.
    9900012    2    1    2    0    0 -0.41800737739E+02  0.85798876594E+01  0.79187858942E+01  0.47787270538E+02  0.19999997692E+02 0.  0.
         12    1    1    2    0    0  0.41800737739E+02 -0.85798876594E+01 -0.79187858942E+01  0.43400729462E+02  0.00000000000E+00 0. -1.
         11    1    3    3    0    0 -0.79194763012E+01  0.15074878957E+01 -0.40908745456E+00  0.80720491480E+01  0.51100000000E-03 0. -1.
        -11    1    3    3    0    0 -0.24300363025E+02  0.12140492864E+02  0.21736516777E+01  0.27251127904E+02  0.51100000000E-03 0.  1.
         12    1    3    3    0    0 -0.95808984127E+01 -0.50680931004E+01  0.61542216711E+01  0.12464093487E+02  0.00000000000E+00 0. -1.
</event>
<event>
 7    1  0.2682317E-010  0.4778727E+02  0.7816164E-02  0.1312668E+00
        -11   -1    0    0    0    0  0.00000000000E+00  0.00000000000E+00  0.45593999997E+02  0.45594000000E+02  0.51100000000E-03 0. -1.
         11   -1    0    0    0    0 -0.00000000000E+00 -0.00000000000E+00 -0.45593999997E+02  0.45594000000E+02  0.51100000000E-03 0.  1.
    9900012    2    1    2    0    0  0.36371144740E+02  0.16975277236E+02  0.16510709612E+02  0.47787265689E+02  0.19999975580E+02 0.  0.
         12    1    1    2    0    0 -0.36371144740E+02 -0.16975277236E+02 -0.16510709612E+02  0.43400734311E+02  0.00000000000E+00 0. -1.
         11    1    3    3    0    0  0.20010247614E+02 -0.25378342405E+00  0.10555938428E+02  0.22625256948E+02  0.51100000000E-03 0. -1.
        -11    1    3    3    0    0  0.67921582937E+01  0.57981469698E+01  0.49748389808E+01  0.10222570407E+02  0.51100000000E-03 0.  1.
         12    1    3    3    0    0  0.95687388316E+01  0.11430913690E+02  0.97993220283E+00  0.14939438334E+02  0.00000000000E+00 0. -1.
</event>
<event>
 7    1  0.2682317E-010  0.4778728E+02  0.7816164E-02  0.1312668E+00
        -11   -1    0    0    0    0  0.00000000000E+00  0.00000000000E+00  0.45593999997E+02  0.45594000000E+02  0.51100000000E-03 0.  1.
         11   -1    0    0    0    0 -0.00000000000E+00 -0.00000000000E+00 -0.45593999997E+02  0.45594000000E+02  0.51100000000E-03 0. -1.
    9900012    2    1    2    0    0 -0.39152089102E+02  0.18105561448E+02 -0.47880108913E+01  0.47787280136E+02  0.20000041454E+02 0.  0.
         12    1    1    2    0    0  0.39152089102E+02 -0.18105561448E+02  0.47880108913E+01  0.43400719864E+02  0.00000000000E+00 0. -1.
         11    1    3    3    0    0 -0.12185744150E+02  0.55357285153E+01 -0.77628723787E+01  0.15472518816E+02  0.51100000000E-03 0. -1.
        -11    1    3    3    0    0 -0.72069724114E+01  0.73152692535E+01 -0.35299954492E+01  0.10858843572E+02  0.51100000000E-03 0.  1.
        -12    1    3    3    0    0 -0.19759372541E+02  0.52545636788E+01  0.65048569366E+01  0.21455917748E+02  0.00000000000E+00 0.  1.
</event>
<event>
 7    1  0.2682317E-010  0.4778727E+02  0.7816164E-02  0.1312668E+00
        -11   -1    0    0    0    0  0.00000000000E+00  0.00000000000E+00  0.45593999997E+02  0.45594000000E+02  0.51100000000E-03 0.  1.
         11   -1    0    0    0    0 -0.00000000000E+00 -0.00000000000E+00 -0.45593999997E+02  0.45594000000E+02  0.51100000000E-03 0. -1.
    9900012    2    1    2    0    0  0.41001788211E+02 -0.11162917554E+02  0.88241848949E+01  0.47787267242E+02  0.19999982665E+02 0.  0.
         12    1    1    2    0    0 -0.41001788211E+02  0.11162917554E+02 -0.88241848949E+01  0.43400732758E+02  0.00000000000E+00 0. -1.
         11    1    3    3    0    0  0.45765256619E+01  0.33063299307E+01 -0.59551016287E+00  0.56772385330E+01  0.51100000000E-03 0. -1.
        -11    1    3    3    0    0  0.25206867942E+02 -0.40325543795E+01  0.38993165303E+01  0.25823484582E+02  0.51100000000E-03 0.  1.
        -12    1    3    3    0    0  0.11218394607E+02 -0.10436693105E+02  0.55203785275E+01  0.16286544128E+02  0.00000000000E+00 0.  1.
</event>
<event>
 7    1  0.2682317E-010  0.4778725E+02  0.7816164E-02  0.1312668E+00
        -11   -1    0    0    0    0  0.00000000000E+00  0.00000000000E+00  0.45593999997E+02  0.45594000000E+02  0.51100000000E-03 0. -1.
         11   -1    0    0    0    0 -0.00000000000E+00 -0.00000000000E+00 -0.45593999997E+02  0.45594000000E+02  0.51100000000E-03 0.  1.
    9900012    2    1    2    0    0  0.13331778583E+02  0.71059736031E+01 -0.40686533932E+02  0.47787248572E+02  0.19999897541E+02 0.  0.
         12    1    1    2    0    0 -0.13331778583E+02 -0.71059736031E+01  0.40686533932E+02  0.43400751428E+02  0.00000000000E+00 0. -1.
         11    1    3    3    0    0 -0.63568096331E+00 -0.28086154920E+00  0.34237052892E+00  0.77472016698E+00  0.51100000000E-03 0. -1.
        -11    1    3    3    0    0  0.11754157887E+01  0.61771818240E+00 -0.26403332613E+02  0.26436700842E+02  0.51100000000E-03 0.  1.
        -12    1    3    3    0    0  0.12792043758E+02  0.67691169699E+01 -0.14625571848E+02  0.20575827564E+02  0.00000000000E+00 0.  1.
</event>
<event>
 7    1  0.2682317E-010  0.4778729E+02  0.7816164E-02  0.1312668E+00
        -11   -1    0    0    0    0  0.00000000000E+00  0.00000000000E+00  0.45593999997E+02  0.45594000000E+02  0.51100000000E-03 0.  1.
         11   -1    0    0    0    0 -0.00000000000E+00 -0.00000000000E+00 -0.45593999997E+02  0.45594000000E+02  0.51100000000E-03 0. -1.
    9900012    2    1    2    0    0 -0.75215183896E+01  0.37629348103E+02  0.20275129339E+02  0.47787286328E+02  0.20000069683E+02 0.  0.
         12    1    1    2    0    0  0.75215183896E+01 -0.37629348103E+02 -0.20275129339E+02  0.43400713672E+02  0.00000000000E+00 0. -1.
         11    1    3    3    0    0 -0.18771683914E+01  0.23205220100E+01  0.65455400720E+01  0.71939334626E+01  0.51100000000E-03 0. -1.
        -11    1    3    3    0    0  0.27079572849E+01  0.20117295057E+02  0.10860038733E+02  0.23021273523E+02  0.51100000000E-03 0.  1.
        -12    1    3    3    0    0 -0.83523072830E+01  0.15191531036E+02  0.28695505347E+01  0.17572079343E+02  0.00000000000E+00 0.  1.
</event>
<event>
 7    1  0.2682317E-010  0.4778727E+02  0.7816164E-02  0.1312668E+00
        -11   -1    0    0    0    0  0.00000000000E+00  0.00000000000E+00  0.45593999997E+02  0.45594000000E+02  0.51100000000E-03 0.  1.
         11   -1    0    0    0    0 -0.00000000000E+00 -0.00000000000E+00 -0.45593999997E+02  0.45594000000E+02  0.51100000000E-03 0. -1.
    9900012    2    1    2    0    0 -0.23695608049E+02  0.25533739348E+02  0.25887639108E+02  0.47787267927E+02  0.19999985786E+02 0.  0.
         12    1    1    2    0    0  0.23695608049E+02 -0.25533739348E+02 -0.25887639108E+02  0.43400732073E+02  0.00000000000E+00 0. -1.
         11    1    3    3    0    0 -0.53482106176E+01  0.45597403440E+01  0.21459966264E+01  0.73484617844E+01  0.51100000000E-03 0. -1.
        -11    1    3    3    0    0 -0.17694262359E+02  0.74667536221E+01  0.13502773274E+02  0.23476886856E+02  0.51100000000E-03 0.  1.
         12    1    3    3    0    0 -0.65313507154E+00  0.13507245382E+02  0.10238869208E+02  0.16961919287E+02  0.00000000000E+00 0. -1.
</event>
<event>
 7    1  0.2682317E-010  0.4778727E+02  0.7816164E-02  0.1312668E+00
        -11   -1    0    0    0    0  0.00000000000E+00  0.00000000000E+00  0.45593999997E+02  0.45594000000E+02  0.51100000000E-03 0.  1.
         11   -1    0    0    0    0 -0.00000000000E+00 -0.00000000000E+00 -0.45593999997E+02  0.45594000000E+02  0.51100000000E-03 0. -1.
    9900012    2    1    2    0    0 -0.29383768348E+02 -0.95168359500E+01 -0.30490118439E+02  0.47787270384E+02  0.19999996987E+02 0.  0.
         12    1    1    2    0    0  0.29383768348E+02  0.95168359500E+01  0.30490118439E+02  0.43400729616E+02  0.00000000000E+00 0. -1.
         11    1    3    3    0    0 -0.74771701664E+00 -0.23245038279E+01 -0.44065818109E+01  0.50378926448E+01  0.51100000000E-03 0. -1.
        -11    1    3    3    0    0 -0.80076916671E+01  0.49376366812E+01 -0.10945487812E+02  0.14432847451E+02  0.51100000000E-03 0.  1.
        -12    1    3    3    0    0 -0.20628359664E+02 -0.12129968803E+02 -0.15138048816E+02  0.28316530288E+02  0.00000000000E+00 0.  1.
</event>
<event>
 7    1  0.2682317E-010  0.4778726E+02  0.7816164E-02  0.1312668E+00
        -11   -1    0    0    0    0  0.00000000000E+00  0.00000000000E+00  0.45593999997E+02  0.45594000000E+02  0.51100000000E-03 0.  1.
         11   -1    0    0    0    0 -0.00000000000E+00 -0.00000000000E+00 -0.45593999997E+02  0.45594000000E+02  0.51100000000E-03 0. -1.
    9900012    2    1    2    0    0 -0.33161168508E+02 -0.15086216738E+02  0.23587443878E+02  0.47787256446E+02  0.19999933442E+02 0.  0.
         12    1    1    2    0    0  0.33161168508E+02  0.15086216738E+02 -0.23587443878E+02  0.43400743554E+02  0.00000000000E+00 0. -1.
         11    1    3    3    0    0 -0.11235594669E+01 -0.11735123497E+00 -0.38975656726E+00  0.11950178370E+01  0.51100000000E-03 0. -1.
        -11    1    3    3    0    0 -0.30081426273E+02 -0.58815482294E+01  0.18621573315E+02  0.35864297138E+02  0.51100000000E-03 0.  1.
        -12    1    3    3    0    0 -0.19561827679E+01 -0.90873172738E+01  0.53556271307E+01  0.10727941472E+02  0.00000000000E+00 0.  1.
</event>
<event>
 7    1  0.2682317E-010  0.4778727E+02  0.7816164E-02  0.1312668E+00
        -11   -1    0    0    0    0  0.00000000000E+00  0.00000000000E+00  0.45593999997E+02  0.45594000000E+02  0.51100000000E-03 0.  1.
         11   -1    0    0    0    0 -0.00000000000E+00 -0.00000000000E+00 -0.45593999997E+02  0.45594000000E+02  0.51100000000E-03 0. -1.
    9900012    2    1    2    0    0 -0.20019363156E+02 -0.34304263806E+02  0.17494738914E+02  0.47787270673E+02  0.19999998305E+02 0.  0.
         12    1    1    2    0    0  0.20019363156E+02  0.34304263806E+02 -0.17494738914E+02  0.43400729327E+02  0.00000000000E+00 0. -1.
         11    1    3    3    0    0 -0.30996652919E+01 -0.50228885852E+01  0.78323029312E+01  0.98072577272E+01  0.51100000000E-03 0.  1.
        -11    1    3    3    0    0  0.12977940531E+01 -0.10432921449E+02  0.30081242149E+01  0.10935215175E+02  0.51100000000E-03 0. -1.
         12    1    3    3    0    0 -0.18217491918E+02 -0.18848453772E+02  0.66543117684E+01  0.27044797771E+02  0.00000000000E+00 0. -1.
</event>
<event>
 7    1  0.2682317E-010  0.4778727E+02  0.7816164E-02  0.1312668E+00
        -11   -1    0    0    0    0  0.00000000000E+00  0.00000000000E+00  0.45593999997E+02  0.45594000000E+02  0.51100000000E-03 0.  1.
         11   -1    0    0    0    0 -0.00000000000E+00 -0.00000000000E+00 -0.45593999997E+02  0.45594000000E+02  0.51100000000E-03 0. -1.
    9900012    2    1    2    0    0  0.20421579618E+02 -0.34528545941E+02  0.16563869039E+02  0.47787272397E+02  0.20000006169E+02 0.  0.
         12    1    1    2    0    0 -0.20421579618E+02  0.34528545941E+02 -0.16563869039E+02  0.43400727603E+02  0.00000000000E+00 0. -1.
         11    1    3    3    0    0  0.15127947474E+02 -0.11393981035E+02  0.84941328626E+01  0.20756394002E+02  0.51100000000E-03 0. -1.
        -11    1    3    3    0    0  0.71943262375E+01 -0.18403990207E+02  0.32701611030E+01  0.20028957523E+02  0.51100000000E-03 0.  1.
        -12    1    3    3    0    0 -0.19006940943E+01 -0.47305746993E+01  0.47995750733E+01  0.70019208729E+01  0.00000000000E+00 0.  1.
</event>
<event>
 7    1  0.2682317E-010  0.4778727E+02  0.7816164E-02  0.1312668E+00
        -11   -1    0    0    0    0  0.00000000000E+00  0.00000000000E+00  0.45593999997E+02  0.45594000000E+02  0.51100000000E-03 0.  1.
         11   -1    0    0    0    0 -0.00000000000E+00 -0.00000000000E+00 -0.45593999997E+02  0.45594000000E+02  0.51100000000E-03 0. -1.
    9900012    2    1    2    0    0  0.38162700207E+02 -0.19845172908E+02 -0.57793393043E+01  0.47787270310E+02  0.19999996650E+02 0.  0.
         12    1    1    2    0    0 -0.38162700207E+02  0.19845172908E+02  0.57793393043E+01  0.43400729690E+02  0.00000000000E+00 0. -1.
         11    1    3    3    0    0  0.29075933213E+02 -0.15300308631E+02 -0.71085736698E+01  0.33616084785E+02  0.51100000000E-03 0. -1.
        -11    1    3    3    0    0  0.10879506217E+02 -0.38493871103E+01  0.26469553282E+01  0.11840093303E+02  0.51100000000E-03 0.  1.
         12    1    3    3    0    0 -0.17927392226E+01 -0.69547716658E+00 -0.13177209627E+01  0.23310922215E+01  0.00000000000E+00 0. -1.
</event>
<event>
 7    1  0.2682317E-010  0.4778727E+02  0.7816164E-02  0.1312668E+00
        -11   -1    0    0    0    0  0.00000000000E+00  0.00000000000E+00  0.45593999997E+02  0.45594000000E+02  0.51100000000E-03 0.  1.
         11   -1    0    0    0    0 -0.00000000000E+00 -0.00000000000E+00 -0.45593999997E+02  0.45594000000E+02  0.51100000000E-03 0. -1.
    9900012    2    1    2    0    0 -0.52786719193E+01 -0.35484586885E+02  0.24425454062E+02  0.47787273166E+02  0.20000009672E+02 0.  0.
         12    1    1    2    0    0  0.52786719193E+01  0.35484586885E+02 -0.24425454062E+02  0.43400726834E+02  0.00000000000E+00 0. -1.
         11    1    3    3    0    0  0.19991286749E+01  0.16726241998E+00  0.12473321721E+00  0.20099877643E+01  0.51100000000E-03 0. -1.
        -11    1    3    3    0    0 -0.47673638826E+00 -0.20658825066E+02  0.68111166068E+01  0.21757886854E+02  0.51100000000E-03 0.  1.
        -12    1    3    3    0    0 -0.68010642059E+01 -0.14993024239E+02  0.17489604237E+02  0.24019398547E+02  0.00000000000E+00 0.  1.
</event>
<event>
 7    1  0.2682317E-010  0.4778728E+02  0.7816164E-02  0.1312668E+00
        -11   -1    0    0    0    0  0.00000000000E+00  0.00000000000E+00  0.45593999997E+02  0.45594000000E+02  0.51100000000E-03 0.  1.
         11   -1    0    0    0    0 -0.00000000000E+00 -0.00000000000E+00 -0.45593999997E+02  0.45594000000E+02  0.51100000000E-03 0. -1.
    9900012    2    1    2    0    0  0.28836959649E+02  0.29557906051E+02  0.13355977439E+02  0.47787283586E+02  0.20000057183E+02 0.  0.
         12    1    1    2    0    0 -0.28836959649E+02 -0.29557906051E+02 -0.13355977439E+02  0.43400716414E+02  0.00000000000E+00 0. -1.
         11    1    3    3    0    0  0.16764264192E+02  0.17204270623E+02  0.43920008715E+01  0.24419605924E+02  0.51100000000E-03 0. -1.
        -11    1    3    3    0    0  0.13308496808E+02  0.13655935649E+02  0.97399316372E+01  0.21411840983E+02  0.51100000000E-03 0.  1.
         12    1    3    3    0    0 -0.12358013511E+01 -0.13023002212E+01 -0.77595506939E+00  0.19558366791E+01  0.00000000000E+00 0. -1.
</event>
<event>
 7    1  0.2682317E-010  0.4778727E+02  0.7816164E-02  0.1312668E+00
        -11   -1    0    0    0    0  0.00000000000E+00  0.00000000000E+00  0.45593999997E+02  0.45594000000E+02  0.51100000000E-03 0.  1.
         11   -1    0    0    0    0 -0.00000000000E+00 -0.00000000000E+00 -0.45593999997E+02  0.45594000000E+02  0.51100000000E-03 0. -1.
    9900012    2    1    2    0    0  0.41683361757E+02  0.11876807082E+02 -0.22499519918E+01  0.47787268695E+02  0.19999989288E+02 0.  0.
         12    1    1    2    0    0 -0.41683361757E+02 -0.11876807082E+02  0.22499519918E+01  0.43400731305E+02  0.00000000000E+00 0. -1.
         11    1    3    3    0    0  0.27939983497E+02  0.15730096300E+01 -0.68646996509E+01  0.28813905300E+02  0.51100000000E-03 0.  1.
        -11    1    3    3    0    0  0.59496886475E+00 -0.86688781044E+00  0.75365949955E+00  0.12936326095E+01  0.51100000000E-03 0. -1.
        -12    1    3    3    0    0  0.13148409395E+02  0.11170685262E+02  0.38610881596E+01  0.17679730785E+02  0.00000000000E+00 0.  1.
</event>
<event>
 7    1  0.2682317E-010  0.4778727E+02  0.7816164E-02  0.1312668E+00
        -11   -1    0    0    0    0  0.00000000000E+00  0.00000000000E+00  0.45593999997E+02  0.45594000000E+02  0.51100000000E-03 0.  1.
         11   -1    0    0    0    0 -0.00000000000E+00 -0.00000000000E+00 -0.45593999997E+02  0.45594000000E+02  0.51100000000E-03 0. -1.
    9900012    2    1    2    0    0  0.14940169305E+02 -0.17218148788E+02  0.36931698317E+02  0.47787266744E+02  0.19999980393E+02 0.  0.
         12    1    1    2    0    0 -0.14940169305E+02  0.17218148788E+02 -0.36931698317E+02  0.43400733256E+02  0.00000000000E+00 0. -1.
         11    1    3    3    0    0 -0.14628201412E+00 -0.27960196438E+01  0.14026283313E+02  0.14302997872E+02  0.51100000000E-03 0. -1.
        -11    1    3    3    0    0  0.39346852339E+01 -0.64909019911E+01  0.16926804382E+02  0.18550748325E+02  0.51100000000E-03 0.  1.
         12    1    3    3    0    0  0.11151766085E+02 -0.79312271532E+01  0.59786106218E+01  0.14933520548E+02  0.00000000000E+00 0. -1.
</event>
<event>
 7    1  0.2682317E-010  0.4778727E+02  0.7816164E-02  0.1312668E+00
        -11   -1    0    0    0    0  0.00000000000E+00  0.00000000000E+00  0.45593999997E+02  0.45594000000E+02  0.51100000000E-03 0. -1.
         11   -1    0    0    0    0 -0.00000000000E+00 -0.00000000000E+00 -0.45593999997E+02  0.45594000000E+02  0.51100000000E-03 0.  1.
    9900012    2    1    2    0    0 -0.20271061039E+02  0.29254234173E+02 -0.24837413320E+02  0.47787271514E+02  0.20000002139E+02 0.  0.
         12    1    1    2    0    0  0.20271061039E+02 -0.29254234173E+02  0.24837413320E+02  0.43400728486E+02  0.00000000000E+00 0. -1.
         11    1    3    3    0    0 -0.65189314090E+01  0.60594208767E+01 -0.39492371239E+01  0.97370181369E+01  0.51100000000E-03 0.  1.
        -11    1    3    3    0    0 -0.29442559735E+01  0.99074027331E+00 -0.11032366649E+02  0.11461384021E+02  0.51100000000E-03 0. -1.
         12    1    3    3    0    0 -0.10807873657E+02  0.22204073023E+02 -0.98558095466E+01  0.26588869356E+02  0.00000000000E+00 0. -1.
</event>
<event>
 7    1  0.2682317E-010  0.4778726E+02  0.7816164E-02  0.1312668E+00
        -11   -1    0    0    0    0  0.00000000000E+00  0.00000000000E+00  0.45593999997E+02  0.45594000000E+02  0.51100000000E-03 0.  1.
         11   -1    0    0    0    0 -0.00000000000E+00 -0.00000000000E+00 -0.45593999997E+02  0.45594000000E+02  0.51100000000E-03 0. -1.
    9900012    2    1    2    0    0  0.19488475432E+02  0.38451081563E+02 -0.50337138033E+01  0.47787255506E+02  0.19999929153E+02 0.  0.
         12    1    1    2    0    0 -0.19488475432E+02 -0.38451081563E+02  0.50337138033E+01  0.43400744494E+02  0.00000000000E+00 0. -1.
         11    1    3    3    0    0  0.57543714622E+01  0.52304853876E+01 -0.54256849781E+01  0.94820264742E+01  0.51100000000E-03 0. -1.
        -11    1    3    3    0    0  0.10341308589E+02  0.25679483002E+02 -0.54053269004E+01  0.28206312587E+02  0.51100000000E-03 0.  1.
         12    1    3    3    0    0  0.33927953811E+01  0.75411131732E+01  0.57972980753E+01  0.10098916445E+02  0.00000000000E+00 0. -1.
</event>
<event>
 7    1  0.2682317E-010  0.4778728E+02  0.7816164E-02  0.1312668E+00
        -11   -1    0    0    0    0  0.00000000000E+00  0.00000000000E+00  0.45593999997E+02  0.45594000000E+02  0.51100000000E-03 0.  1.
         11   -1    0    0    0    0 -0.00000000000E+00 -0.00000000000E+00 -0.45593999997E+02  0.45594000000E+02  0.51100000000E-03 0. -1.
    9900012    2    1    2    0    0 -0.54515550240E+01  0.29684805262E+02  0.31188378567E+02  0.47787284876E+02  0.20000063065E+02 0.  0.
         12    1    1    2    0    0  0.54515550240E+01 -0.29684805262E+02 -0.31188378567E+02  0.43400715124E+02  0.00000000000E+00 0. -1.
         11    1    3    3    0    0 -0.54736699376E+01  0.75967146611E+01  0.88530160694E+01  0.12885923716E+02  0.51100000000E-03 0. -1.
        -11    1    3    3    0    0 -0.62867441396E+01  0.17598591936E+02  0.18358040848E+02  0.26196397731E+02  0.51100000000E-03 0.  1.
         12    1    3    3    0    0  0.63088590532E+01  0.44894986643E+01  0.39773216493E+01  0.87049634297E+01  0.00000000000E+00 0. -1.
</event>
<event>
 7    1  0.2682317E-010  0.4778727E+02  0.7816164E-02  0.1312668E+00
        -11   -1    0    0    0    0  0.00000000000E+00  0.00000000000E+00  0.45593999997E+02  0.45594000000E+02  0.51100000000E-03 0.  1.
         11   -1    0    0    0    0 -0.00000000000E+00 -0.00000000000E+00 -0.45593999997E+02  0.45594000000E+02  0.51100000000E-03 0. -1.
    9900012    2    1    2    0    0  0.26439764784E+02 -0.24278469006E+02 -0.24395037959E+02  0.47787273092E+02  0.20000009335E+02 0.  0.
         12    1    1    2    0    0 -0.26439764784E+02  0.24278469006E+02  0.24395037959E+02  0.43400726908E+02  0.00000000000E+00 0. -1.
         11    1    3    3    0    0  0.10230209488E+02 -0.13410019995E+02 -0.67840699786E+01  0.18179918266E+02  0.51100000000E-03 0. -1.
        -11    1    3    3    0    0  0.93062059792E+00 -0.68031021296E+01 -0.14879152829E+01  0.70258199118E+01  0.51100000000E-03 0.  1.
        -12    1    3    3    0    0  0.15278934699E+02 -0.40653468821E+01 -0.16123052698E+02  0.22581534914E+02  0.00000000000E+00 0.  1.
</event>
<event>
 7    1  0.2682317E-010  0.4778726E+02  0.7816164E-02  0.1312668E+00
        -11   -1    0    0    0    0  0.00000000000E+00  0.00000000000E+00  0.45593999997E+02  0.45594000000E+02  0.51100000000E-03 0.  1.
         11   -1    0    0    0    0 -0.00000000000E+00 -0.00000000000E+00 -0.45593999997E+02  0.45594000000E+02  0.51100000000E-03 0. -1.
    9900012    2    1    2    0    0  0.25627853878E+02  0.33627107056E+02 -0.98007517155E+01  0.47787263168E+02  0.19999964090E+02 0.  0.
         12    1    1    2    0    0 -0.25627853878E+02 -0.33627107056E+02  0.98007517155E+01  0.43400736832E+02  0.00000000000E+00 0. -1.
         11    1    3    3    0    0 -0.78095234777E+00  0.41485457893E+00  0.30482178806E+00  0.93536488855E+00  0.51100000000E-03 0. -1.
        -11    1    3    3    0    0  0.27653901537E+01 -0.17757413843E+01  0.47071209840E+00  0.33199714316E+01  0.51100000000E-03 0.  1.
         12    1    3    3    0    0  0.23643416072E+02  0.34987993861E+02 -0.10576285602E+02  0.43531926848E+02  0.00000000000E+00 0. -1.
</event>
<event>
 7    1  0.2682317E-010  0.4778727E+02  0.7816164E-02  0.1312668E+00
        -11   -1    0    0    0    0  0.00000000000E+00  0.00000000000E+00  0.45593999997E+02  0.45594000000E+02  0.51100000000E-03 0. -1.
         11   -1    0    0    0    0 -0.00000000000E+00 -0.00000000000E+00 -0.45593999997E+02  0.45594000000E+02  0.51100000000E-03 0.  1.
    9900012    2    1    2    0    0 -0.30228864075E+02  0.22968384379E+02 -0.21030749113E+02  0.47787270600E+02  0.19999997972E+02 0.  0.
         12    1    1    2    0    0  0.30228864075E+02 -0.22968384379E+02  0.21030749113E+02  0.43400729400E+02  0.00000000000E+00 0. -1.
         11    1    3    3    0    0 -0.17890585263E+02  0.83415344153E+01 -0.16116743885E+01  0.19805346047E+02  0.51100000000E-03 0. -1.
        -11    1    3    3    0    0 -0.83578629614E+01  0.66972641128E+01 -0.72968702763E+01  0.12959611721E+02  0.51100000000E-03 0.  1.
         12    1    3    3    0    0 -0.39804158505E+01  0.79295858508E+01 -0.12122204448E+02  0.15022312831E+02  0.00000000000E+00 0. -1.
</event>
<event>
 7    1  0.2682317E-010  0.4778727E+02  0.7816164E-02  0.1312668E+00
        -11   -1    0    0    0    0  0.00000000000E+00  0.00000000000E+00  0.45593999997E+02  0.45594000000E+02  0.51100000000E-03 0.  1.
         11   -1    0    0    0    0 -0.00000000000E+00 -0.00000000000E+00 -0.45593999997E+02  0.45594000000E+02  0.51100000000E-03 0. -1.
    9900012    2    1    2    0    0 -0.10701309748E+02  0.14048599107E+02  0.39645203680E+02  0.47787270259E+02  0.19999996418E+02 0.  0.
         12    1    1    2    0    0  0.10701309748E+02 -0.14048599107E+02 -0.39645203680E+02  0.43400729741E+02  0.00000000000E+00 0. -1.
         11    1    3    3    0    0 -0.65254548993E+00 -0.93090347262E-01 -0.47763246144E-01  0.66088048691E+00  0.51100000000E-03 0. -1.
        -11    1    3    3    0    0 -0.10418641633E+02  0.74297196119E+01  0.88481856131E+01  0.15557609581E+02  0.51100000000E-03 0.  1.
        -12    1    3    3    0    0  0.36987737472E+00  0.67119698424E+01  0.30844781314E+02  0.31568780191E+02  0.00000000000E+00 0.  1.
</event>
<event>
 7    1  0.2682317E-010  0.4778727E+02  0.7816164E-02  0.1312668E+00
        -11   -1    0    0    0    0  0.00000000000E+00  0.00000000000E+00  0.45593999997E+02  0.45594000000E+02  0.51100000000E-03 0.  1.
         11   -1    0    0    0    0 -0.00000000000E+00 -0.00000000000E+00 -0.45593999997E+02  0.45594000000E+02  0.51100000000E-03 0. -1.
    9900012    2    1    2    0    0 -0.16108555489E+02 -0.72078753243E+01  0.39650775467E+02  0.47787273949E+02  0.20000013241E+02 0.  0.
         12    1    1    2    0    0  0.16108555489E+02  0.72078753243E+01 -0.39650775467E+02  0.43400726051E+02  0.00000000000E+00 0. -1.
         11    1    3    3    0    0 -0.17596579369E+02 -0.31300099985E+01  0.25563417199E+02  0.31191743574E+02  0.51100000000E-03 0.  1.
        -11    1    3    3    0    0 -0.17361656212E+01 -0.62662414288E+00  0.11821646013E+00  0.18495686722E+01  0.51100000000E-03 0. -1.
        -12    1    3    3    0    0  0.32241895014E+01 -0.34512411829E+01  0.13969141809E+02  0.14745961702E+02  0.00000000000E+00 0.  1.
</event>
<event>
 7    1  0.2682317E-010  0.4778728E+02  0.7816164E-02  0.1312668E+00
        -11   -1    0    0    0    0  0.00000000000E+00  0.00000000000E+00  0.45593999997E+02  0.45594000000E+02  0.51100000000E-03 0.  1.
         11   -1    0    0    0    0 -0.00000000000E+00 -0.00000000000E+00 -0.45593999997E+02  0.45594000000E+02  0.51100000000E-03 0. -1.
    9900012    2    1    2    0    0 -0.34610958523E+02  0.13737894830E+02  0.22292919172E+02  0.47787280543E+02  0.20000043305E+02 0.  0.
         12    1    1    2    0    0  0.34610958523E+02 -0.13737894830E+02 -0.22292919172E+02  0.43400719457E+02  0.00000000000E+00 0. -1.
         11    1    3    3    0    0 -0.12866146120E+02 -0.26212381738E+01  0.63127075435E+01  0.14569107122E+02  0.51100000000E-03 0. -1.
        -11    1    3    3    0    0 -0.96785011139E+01  0.17609402025E+01  0.79435307901E+01  0.12644128119E+02  0.51100000000E-03 0.  1.
         12    1    3    3    0    0 -0.12066311289E+02  0.14598192801E+02  0.80366808381E+01  0.20574045302E+02  0.00000000000E+00 0. -1.
</event>
<event>
 7    1  0.2682317E-010  0.4778727E+02  0.7816164E-02  0.1312668E+00
        -11   -1    0    0    0    0  0.00000000000E+00  0.00000000000E+00  0.45593999997E+02  0.45594000000E+02  0.51100000000E-03 0. -1.
         11   -1    0    0    0    0 -0.00000000000E+00 -0.00000000000E+00 -0.45593999997E+02  0.45594000000E+02  0.51100000000E-03 0.  1.
    9900012    2    1    2    0    0  0.34538266585E+02  0.68809539673E+01 -0.25365014809E+02  0.47787270024E+02  0.19999995349E+02 0.  0.
         12    1    1    2    0    0 -0.34538266585E+02 -0.68809539673E+01  0.25365014809E+02  0.43400729976E+02  0.00000000000E+00 0. -1.
         11    1    3    3    0    0  0.10955632074E+02  0.80617245748E+01 -0.98811172012E+01  0.16812309617E+02  0.51100000000E-03 0. -1.
        -11    1    3    3    0    0  0.19535092323E+02  0.34318258258E+01 -0.82311507372E+01  0.21474382489E+02  0.51100000000E-03 0.  1.
         12    1    3    3    0    0  0.40475421884E+01 -0.46125964333E+01 -0.72527468702E+01  0.95005779185E+01  0.00000000000E+00 0. -1.
</event>
<event>
 7    1  0.2682317E-010  0.4778727E+02  0.7816164E-02  0.1312668E+00
        -11   -1    0    0    0    0  0.00000000000E+00  0.00000000000E+00  0.45593999997E+02  0.45594000000E+02  0.51100000000E-03 0.  1.
         11   -1    0    0    0    0 -0.00000000000E+00 -0.00000000000E+00 -0.45593999997E+02  0.45594000000E+02  0.51100000000E-03 0. -1.
    9900012    2    1    2    0    0  0.24539038577E+02 -0.80091126923E+01  0.34890013564E+02  0.47787270203E+02  0.19999996165E+02 0.  0.
         12    1    1    2    0    0 -0.24539038577E+02  0.80091126923E+01 -0.34890013564E+02  0.43400729797E+02  0.00000000000E+00 0. -1.
         11    1    3    3    0    0  0.20753094205E+01 -0.18136499104E+00  0.12965411277E+02  0.13131705613E+02  0.51100000000E-03 0. -1.
        -11    1    3    3    0    0  0.27858057140E+01 -0.46837516597E+01  0.10120164946E+02  0.11494171648E+02  0.51100000000E-03 0.  1.
         12    1    3    3    0    0  0.19677923442E+02 -0.31439960416E+01  0.11804437341E+02  0.23161392943E+02  0.00000000000E+00 0. -1.
</event>
<event>
 7    1  0.2682317E-010  0.4778727E+02  0.7816164E-02  0.1312668E+00
        -11   -1    0    0    0    0  0.00000000000E+00  0.00000000000E+00  0.45593999997E+02  0.45594000000E+02  0.51100000000E-03 0. -1.
         11   -1    0    0    0    0 -0.00000000000E+00 -0.00000000000E+00 -0.45593999997E+02  0.45594000000E+02  0.51100000000E-03 0.  1.
    9900012    2    1    2    0    0  0.29108045992E+02 -0.28998401430E+02 -0.13979902866E+02  0.47787270615E+02  0.19999998044E+02 0.  0.
         12    1    1    2    0    0 -0.29108045992E+02  0.28998401430E+02  0.13979902866E+02  0.43400729385E+02  0.00000000000E+00 0. -1.
         11    1    3    3    0    0 -0.50259953407E+00 -0.66670201665E-01 -0.11665172874E+00  0.52024906956E+00  0.51100000000E-03 0. -1.
        -11    1    3    3    0    0  0.13064565802E+02 -0.20143792251E+02 -0.82616580643E-01  0.24009624562E+02  0.51100000000E-03 0.  1.
        -12    1    3    3    0    0  0.16546079723E+02 -0.87879389779E+01 -0.13780634556E+02  0.23257396984E+02  0.00000000000E+00 0.  1.
</event>
<event>
 7    1  0.2682317E-010  0.4778727E+02  0.7816164E-02  0.1312668E+00
        -11   -1    0    0    0    0  0.00000000000E+00  0.00000000000E+00  0.45593999997E+02  0.45594000000E+02  0.51100000000E-03 0.  1.
         11   -1    0    0    0    0 -0.00000000000E+00 -0.00000000000E+00 -0.45593999997E+02  0.45594000000E+02  0.51100000000E-03 0. -1.
    9900012    2    1    2    0    0  0.37974043265E+02  0.11424612372E+02  0.17637286990E+02  0.47787267033E+02  0.19999981708E+02 0.  0.
         12    1    1    2    0    0 -0.37974043265E+02 -0.11424612372E+02 -0.17637286990E+02  0.43400732967E+02  0.00000000000E+00 0. -1.
         11    1    3    3    0    0  0.13115531430E+02  0.61763950793E+01  0.67445876331E+01  0.15989198963E+02  0.51100000000E-03 0. -1.
        -11    1    3    3    0    0  0.71330206436E+01  0.79421873474E+01  0.86292855242E+01  0.13726721833E+02  0.51100000000E-03 0.  1.
         12    1    3    3    0    0  0.17725491191E+02 -0.26939700550E+01  0.22634138330E+01  0.18071346236E+02  0.00000000000E+00 0. -1.
</event>
<event>
 7    1  0.2682317E-010  0.4778727E+02  0.7816164E-02  0.1312668E+00
        -11   -1    0    0    0    0  0.00000000000E+00  0.00000000000E+00  0.45593999997E+02  0.45594000000E+02  0.51100000000E-03 0.  1.
         11   -1    0    0    0    0 -0.00000000000E+00 -0.00000000000E+00 -0.45593999997E+02  0.45594000000E+02  0.51100000000E-03 0. -1.
    9900012    2    1    2    0    0  0.21005132018E+02  0.36016539723E+02  0.12050576386E+02  0.47787273094E+02  0.20000009345E+02 0.  0.
         12    1    1    2    0    0 -0.21005132018E+02 -0.36016539723E+02 -0.12050576386E+02  0.43400726906E+02  0.00000000000E+00 0. -1.
         11    1    3    3    0    0 -0.20080858570E+01  0.31989607231E+01  0.36264213744E+01  0.52360949918E+01  0.51100000000E-03 0. -1.
        -11    1    3    3    0    0  0.10895121849E+02  0.70473615286E+01  0.48413141500E+01  0.13849451526E+02  0.51100000000E-03 0.  1.
        -12    1    3    3    0    0  0.12118096027E+02  0.25770217471E+02  0.35828408621E+01  0.28701726576E+02  0.00000000000E+00 0.  1.
</event>
<event>
 7    1  0.2682317E-010  0.4778727E+02  0.7816164E-02  0.1312668E+00
        -11   -1    0    0    0    0  0.00000000000E+00  0.00000000000E+00  0.45593999997E+02  0.45594000000E+02  0.51100000000E-03 0. -1.
         11   -1    0    0    0    0 -0.00000000000E+00 -0.00000000000E+00 -0.45593999997E+02  0.45594000000E+02  0.51100000000E-03 0.  1.
    9900012    2    1    2    0    0 -0.24703571507E+02  0.32984981135E+02  0.13614246856E+02  0.47787272550E+02  0.20000006866E+02 0.  0.
         12    1    1    2    0    0  0.24703571507E+02 -0.32984981135E+02 -0.13614246856E+02  0.43400727450E+02  0.00000000000E+00 0. -1.
         11    1    3    3    0    0 -0.14633749127E+02  0.15219895040E+02  0.65761146785E+01  0.22114183301E+02  0.51100000000E-03 0. -1.
        -11    1    3    3    0    0 -0.10570972637E+02  0.17630574031E+02  0.98633473246E+01  0.22800618936E+02  0.51100000000E-03 0.  1.
         12    1    3    3    0    0  0.50115025691E+00  0.13451206416E+00 -0.28252151470E+01  0.28724703135E+01  0.00000000000E+00 0. -1.
</event>
<event>
 7    1  0.2682317E-010  0.4778727E+02  0.7816164E-02  0.1312668E+00
        -11   -1    0    0    0    0  0.00000000000E+00  0.00000000000E+00  0.45593999997E+02  0.45594000000E+02  0.51100000000E-03 0. -1.
         11   -1    0    0    0    0 -0.00000000000E+00 -0.00000000000E+00 -0.45593999997E+02  0.45594000000E+02  0.51100000000E-03 0.  1.
    9900012    2    1    2    0    0  0.19413874676E+01  0.36292790359E+02 -0.23721042177E+02  0.47787268908E+02  0.19999990260E+02 0.  0.
         12    1    1    2    0    0 -0.19413874676E+01 -0.36292790359E+02  0.23721042177E+02  0.43400731092E+02  0.00000000000E+00 0. -1.
         11    1    3    3    0    0  0.13679414688E+01 -0.23764510934E+00 -0.62089120780E+01  0.63622581300E+01  0.51100000000E-03 0. -1.
        -11    1    3    3    0    0  0.10575001329E+00  0.87746954988E+01 -0.85566210664E+01  0.12256517797E+02  0.51100000000E-03 0.  1.
        -12    1    3    3    0    0  0.46769598556E+00  0.27755739969E+02 -0.89555090327E+01  0.29168492982E+02  0.00000000000E+00 0.  1.
</event>
<event>
 7    1  0.2682317E-010  0.4778726E+02  0.7816164E-02  0.1312668E+00
        -11   -1    0    0    0    0  0.00000000000E+00  0.00000000000E+00  0.45593999997E+02  0.45594000000E+02  0.51100000000E-03 0. -1.
         11   -1    0    0    0    0 -0.00000000000E+00 -0.00000000000E+00 -0.45593999997E+02  0.45594000000E+02  0.51100000000E-03 0.  1.
    9900012    2    1    2    0    0  0.24383087679E+02  0.35890493326E+02 -0.98060026165E+00  0.47787262070E+02  0.19999959084E+02 0.  0.
         12    1    1    2    0    0 -0.24383087679E+02 -0.35890493326E+02  0.98060026165E+00  0.43400737930E+02  0.00000000000E+00 0. -1.
         11    1    3    3    0    0  0.87986027954E+01  0.44940062188E+01  0.10552884031E+01  0.99360523812E+01  0.51100000000E-03 0. -1.
        -11    1    3    3    0    0  0.17987880836E+02  0.26584229317E+02  0.48594163879E-02  0.32098054914E+02  0.51100000000E-03 0.  1.
         12    1    3    3    0    0 -0.24033959524E+01  0.48122577899E+01 -0.20407480811E+01  0.57531547755E+01  0.00000000000E+00 0. -1.
</event>
<event>
 7    1  0.2682317E-010  0.4778727E+02  0.7816164E-02  0.1312668E+00
        -11   -1    0    0    0    0  0.00000000000E+00  0.00000000000E+00  0.45593999997E+02  0.45594000000E+02  0.51100000000E-03 0.  1.
         11   -1    0    0    0    0 -0.00000000000E+00 -0.00000000000E+00 -0.45593999997E+02  0.45594000000E+02  0.51100000000E-03 0. -1.
    9900012    2    1    2    0    0  0.25714195076E+02  0.15904970493E+02  0.31135758939E+02  0.47787269598E+02  0.19999993404E+02 0.  0.
         12    1    1    2    0    0 -0.25714195076E+02 -0.15904970493E+02 -0.31135758939E+02  0.43400730402E+02  0.00000000000E+00 0. -1.
         11    1    3    3    0    0  0.58052854351E+01  0.40926725043E+01  0.91925041782E+01  0.11616946266E+02  0.51100000000E-03 0. -1.
        -11    1    3    3    0    0  0.19841582056E+02  0.14924070535E+02  0.21823158418E+02  0.33055506401E+02  0.51100000000E-03 0.  1.
         12    1    3    3    0    0  0.67327584091E-01 -0.31117725465E+01  0.12009634276E+00  0.31148169314E+01  0.00000000000E+00 0. -1.
</event>
<event>
 7    1  0.2682317E-010  0.4778727E+02  0.7816164E-02  0.1312668E+00
        -11   -1    0    0    0    0  0.00000000000E+00  0.00000000000E+00  0.45593999997E+02  0.45594000000E+02  0.51100000000E-03 0.  1.
         11   -1    0    0    0    0 -0.00000000000E+00 -0.00000000000E+00 -0.45593999997E+02  0.45594000000E+02  0.51100000000E-03 0. -1.
    9900012    2    1    2    0    0  0.36451025180E+02 -0.16597726796E+02  0.16717109478E+02  0.47787268200E+02  0.19999987030E+02 0.  0.
         12    1    1    2    0    0 -0.36451025180E+02  0.16597726796E+02 -0.16717109478E+02  0.43400731800E+02  0.00000000000E+00 0. -1.
         11    1    3    3    0    0  0.13011010235E+02 -0.58276579034E+01  0.11961117340E+02  0.18609575821E+02  0.51100000000E-03 0. -1.
        -11    1    3    3    0    0  0.20033281872E+02 -0.83990680172E+01  0.87488206072E+01  0.23418338720E+02  0.51100000000E-03 0.  1.
        -12    1    3    3    0    0  0.34067330735E+01 -0.23710008755E+01 -0.39928284687E+01  0.57593536587E+01  0.00000000000E+00 0.  1.
</event>
<event>
 7    1  0.2682317E-010  0.4778727E+02  0.7816164E-02  0.1312668E+00
        -11   -1    0    0    0    0  0.00000000000E+00  0.00000000000E+00  0.45593999997E+02  0.45594000000E+02  0.51100000000E-03 0. -1.
         11   -1    0    0    0    0 -0.00000000000E+00 -0.00000000000E+00 -0.45593999997E+02  0.45594000000E+02  0.51100000000E-03 0.  1.
    9900012    2    1    2    0    0  0.42852978774E+02  0.40566839180E+01  0.55487600930E+01  0.47787271749E+02  0.20000003210E+02 0.  0.
         12    1    1    2    0    0 -0.42852978774E+02 -0.40566839180E+01 -0.55487600930E+01  0.43400728251E+02  0.00000000000E+00 0. -1.
         11    1    3    3    0    0  0.16002932196E+02 -0.39725677728E+01  0.49749079085E+01  0.17222800079E+02  0.51100000000E-03 0. -1.
        -11    1    3    3    0    0  0.33210747510E+01  0.38876093431E+01  0.39170439487E+01  0.64409842000E+01  0.51100000000E-03 0.  1.
        -12    1    3    3    0    0  0.23528971826E+02  0.41416423477E+01 -0.33431917643E+01  0.24123487470E+02  0.00000000000E+00 0.  1.
</event>
<event>
 7    1  0.2682317E-010  0.4778724E+02  0.7816164E-02  0.1312668E+00
        -11   -1    0    0    0    0  0.00000000000E+00  0.00000000000E+00  0.45593999997E+02  0.45594000000E+02  0.51100000000E-03 0.  1.
         11   -1    0    0    0    0 -0.00000000000E+00 -0.00000000000E+00 -0.45593999997E+02  0.45594000000E+02  0.51100000000E-03 0. -1.
    9900012    2    1    2    0    0 -0.27545359918E+02  0.89924483316E+01  0.32311221120E+02  0.47787239750E+02  0.19999857318E+02 0.  0.
         12    1    1    2    0    0  0.27545359918E+02 -0.89924483316E+01 -0.32311221120E+02  0.43400760250E+02  0.00000000000E+00 0. -1.
         11    1    3    3    0    0 -0.66351676820E+01 -0.62238359317E+00  0.32666936974E+01  0.74218663070E+01  0.51100000000E-03 0. -1.
        -11    1    3    3    0    0  0.15216774244E+01  0.39907233756E+01  0.18153932713E+01  0.46408003873E+01  0.51100000000E-03 0.  1.
        -12    1    3    3    0    0 -0.22431869660E+02  0.56241085492E+01  0.27229134151E+02  0.35724573056E+02  0.00000000000E+00 0.  1.
</event>
<event>
 7    1  0.2682317E-010  0.4778727E+02  0.7816164E-02  0.1312668E+00
        -11   -1    0    0    0    0  0.00000000000E+00  0.00000000000E+00  0.45593999997E+02  0.45594000000E+02  0.51100000000E-03 0.  1.
         11   -1    0    0    0    0 -0.00000000000E+00 -0.00000000000E+00 -0.45593999997E+02  0.45594000000E+02  0.51100000000E-03 0. -1.
    9900012    2    1    2    0    0 -0.12409106747E+02 -0.17300282456E+02  0.37819803542E+02  0.47787271397E+02  0.20000001609E+02 0.  0.
         12    1    1    2    0    0  0.12409106747E+02  0.17300282456E+02 -0.37819803542E+02  0.43400728603E+02  0.00000000000E+00 0. -1.
         11    1    3    3    0    0  0.45619420958E+00 -0.65359431636E+01  0.11882574540E+02  0.13569165197E+02  0.51100000000E-03 0. -1.
        -11    1    3    3    0    0 -0.32050697900E+01 -0.72933270165E+01  0.21694498309E+02  0.23110957325E+02  0.51100000000E-03 0.  1.
        -12    1    3    3    0    0 -0.96602311661E+01 -0.34710122756E+01  0.42427306931E+01  0.11107148875E+02  0.00000000000E+00 0.  1.
</event>
<event>
 7    1  0.2682317E-010  0.4778729E+02  0.7816164E-02  0.1312668E+00
        -11   -1    0    0    0    0  0.00000000000E+00  0.00000000000E+00  0.45593999997E+02  0.45594000000E+02  0.51100000000E-03 0. -1.
         11   -1    0    0    0    0 -0.00000000000E+00 -0.00000000000E+00 -0.45593999997E+02  0.45594000000E+02  0.51100000000E-03 0.  1.
    9900012    2    1    2    0    0  0.92485822314E+01  0.25251965514E+02  0.34064989137E+02  0.47787291244E+02  0.20000092097E+02 0.  0.
         12    1    1    2    0    0 -0.92485822314E+01 -0.25251965514E+02 -0.34064989137E+02  0.43400708756E+02  0.00000000000E+00 0. -1.
         11    1    3    3    0    0 -0.24174458393E+01  0.46339872427E+01  0.20772641659E+01  0.56243140762E+01  0.51100000000E-03 0. -1.
        -11    1    3    3    0    0  0.72092657235E+00  0.13069924409E+02  0.10017786806E+02  0.16483285836E+02  0.51100000000E-03 0.  1.
        -12    1    3    3    0    0  0.10945101498E+02  0.75480538619E+01  0.21969938166E+02  0.25679691332E+02  0.00000000000E+00 0.  1.
</event>
<event>
 7    1  0.2682317E-010  0.4778727E+02  0.7816164E-02  0.1312668E+00
        -11   -1    0    0    0    0  0.00000000000E+00  0.00000000000E+00  0.45593999997E+02  0.45594000000E+02  0.51100000000E-03 0.  1.
         11   -1    0    0    0    0 -0.00000000000E+00 -0.00000000000E+00 -0.45593999997E+02  0.45594000000E+02  0.51100000000E-03 0. -1.
    9900012    2    1    2    0    0  0.14377789682E+02 -0.27451476226E+01  0.40857884924E+02  0.47787269222E+02  0.19999991689E+02 0.  0.
         12    1    1    2    0    0 -0.14377789682E+02  0.27451476226E+01 -0.40857884924E+02  0.43400730778E+02  0.00000000000E+00 0. -1.
         11    1    3    3    0    0 -0.26563288359E+01  0.10768576698E+01 -0.14676686661E+00  0.28700602955E+01  0.51100000000E-03 0. -1.
        -11    1    3    3    0    0  0.10641901814E+01 -0.58568573456E+00  0.60872194237E+00  0.13587020226E+01  0.51100000000E-03 0.  1.
        -12    1    3    3    0    0  0.15969928336E+02 -0.32363195579E+01  0.40395929849E+02  0.43558506904E+02  0.00000000000E+00 0.  1.
</event>
<event>
 7    1  0.2682317E-010  0.4778727E+02  0.7816164E-02  0.1312668E+00
        -11   -1    0    0    0    0  0.00000000000E+00  0.00000000000E+00  0.45593999997E+02  0.45594000000E+02  0.51100000000E-03 0.  1.
         11   -1    0    0    0    0 -0.00000000000E+00 -0.00000000000E+00 -0.45593999997E+02  0.45594000000E+02  0.51100000000E-03 0. -1.
    9900012    2    1    2    0    0  0.32589764394E+02  0.18644613840E+01  0.28601651125E+02  0.47787269515E+02  0.19999993028E+02 0.  0.
         12    1    1    2    0    0 -0.32589764394E+02 -0.18644613840E+01 -0.28601651125E+02  0.43400730485E+02  0.00000000000E+00 0. -1.
         11    1    3    3    0    0  0.10801720354E+02 -0.21556984799E+01  0.80298168130E+01  0.13630926485E+02  0.51100000000E-03 0. -1.
        -11    1    3    3    0    0  0.20960151076E+02 -0.20140634359E+01  0.17238921416E+02  0.27213320203E+02  0.51100000000E-03 0.  1.
         12    1    3    3    0    0  0.82789296448E+00  0.60342232998E+01  0.33329128963E+01  0.69430228263E+01  0.00000000000E+00 0. -1.
</event>
<event>
 7    1  0.2682317E-010  0.4778727E+02  0.7816164E-02  0.1312668E+00
        -11   -1    0    0    0    0  0.00000000000E+00  0.00000000000E+00  0.45593999997E+02  0.45594000000E+02  0.51100000000E-03 0.  1.
         11   -1    0    0    0    0 -0.00000000000E+00 -0.00000000000E+00 -0.45593999997E+02  0.45594000000E+02  0.51100000000E-03 0. -1.
    9900012    2    1    2    0    0 -0.29183378383E+02 -0.29535792716E+02  0.12632917480E+02  0.47787271558E+02  0.20000002344E+02 0.  0.
         12    1    1    2    0    0  0.29183378383E+02  0.29535792716E+02 -0.12632917480E+02  0.43400728442E+02  0.00000000000E+00 0. -1.
         11    1    3    3    0    0 -0.16388152070E+02 -0.18073519894E+02  0.83231254747E+01  0.25777860027E+02  0.51100000000E-03 0.  1.
        -11    1    3    3    0    0  0.26681459229E+01 -0.75491028912E+00  0.45790140932E+00  0.28104387865E+01  0.51100000000E-03 0. -1.
         12    1    3    3    0    0 -0.15463372235E+02 -0.10707362533E+02  0.38518905957E+01  0.19198972745E+02  0.00000000000E+00 0. -1.
</event>
<event>
 7    1  0.2682317E-010  0.4778727E+02  0.7816164E-02  0.1312668E+00
        -11   -1    0    0    0    0  0.00000000000E+00  0.00000000000E+00  0.45593999997E+02  0.45594000000E+02  0.51100000000E-03 0.  1.
         11   -1    0    0    0    0 -0.00000000000E+00 -0.00000000000E+00 -0.45593999997E+02  0.45594000000E+02  0.51100000000E-03 0. -1.
    9900012    2    1    2    0    0  0.33316451276E+02 -0.18629711015E+02  0.20653604745E+02  0.47787269049E+02  0.19999990902E+02 0.  0.
         12    1    1    2    0    0 -0.33316451276E+02  0.18629711015E+02 -0.20653604745E+02  0.43400730951E+02  0.00000000000E+00 0. -1.
         11    1    3    3    0    0  0.10183784586E+02 -0.77277562692E+01  0.31263781645E+01  0.13160620280E+02  0.51100000000E-03 0. -1.
        -11    1    3    3    0    0  0.18522079132E+02 -0.14439900629E+02  0.16555579035E+02  0.28734393034E+02  0.51100000000E-03 0.  1.
         12    1    3    3    0    0  0.46105875573E+01  0.35379458838E+01  0.97164754539E+00  0.58922557355E+01  0.00000000000E+00 0. -1.
</event>
<event>
 7    1  0.2682317E-010  0.4778727E+02  0.7816164E-02  0.1312668E+00
        -11   -1    0    0    0    0  0.00000000000E+00  0.00000000000E+00  0.45593999997E+02  0.45594000000E+02  0.51100000000E-03 0. -1.
         11   -1    0    0    0    0 -0.00000000000E+00 -0.00000000000E+00 -0.45593999997E+02  0.45594000000E+02  0.51100000000E-03 0.  1.
    9900012    2    1    2    0    0 -0.15374095138E+02  0.19562886244E+02 -0.35560569887E+02  0.47787269013E+02  0.19999990739E+02 0.  0.
         12    1    1    2    0    0  0.15374095138E+02 -0.19562886244E+02  0.35560569887E+02  0.43400730987E+02  0.00000000000E+00 0. -1.
         11    1    3    3    0    0  0.13777491817E+01  0.27838436543E+01 -0.72594834675E+01  0.78960799626E+01  0.51100000000E-03 0. -1.
        -11    1    3    3    0    0 -0.82763167140E+01  0.43927043140E+01 -0.21421483774E+02  0.23381044393E+02  0.51100000000E-03 0.  1.
         12    1    3    3    0    0 -0.84755276052E+01  0.12386338276E+02 -0.68796026452E+01  0.16510144658E+02  0.00000000000E+00 0. -1.
</event>
<event>
 7    1  0.2682317E-010  0.4778727E+02  0.7816164E-02  0.1312668E+00
        -11   -1    0    0    0    0  0.00000000000E+00  0.00000000000E+00  0.45593999997E+02  0.45594000000E+02  0.51100000000E-03 0.  1.
         11   -1    0    0    0    0 -0.00000000000E+00 -0.00000000000E+00 -0.45593999997E+02  0.45594000000E+02  0.51100000000E-03 0. -1.
    9900012    2    1    2    0    0 -0.27391788981E+02  0.26862064240E+02  0.20291441906E+02  0.47787271741E+02  0.20000003174E+02 0.  0.
         12    1    1    2    0    0  0.27391788981E+02 -0.26862064240E+02 -0.20291441906E+02  0.43400728259E+02  0.00000000000E+00 0. -1.
         11    1    3    3    0    0  0.79412909989E-01  0.17669875488E+01  0.20321709956E+01  0.26941177822E+01  0.51100000000E-03 0. -1.
        -11    1    3    3    0    0 -0.15480955502E+02  0.36331179471E+01  0.11413447952E+02  0.19573612944E+02  0.51100000000E-03 0.  1.
        -12    1    3    3    0    0 -0.11990246389E+02  0.21461958744E+02  0.68458229580E+01  0.25519541014E+02  0.00000000000E+00 0.  1.
</event>
<event>
 7    1  0.2682317E-010  0.4778727E+02  0.7816164E-02  0.1312668E+00
        -11   -1    0    0    0    0  0.00000000000E+00  0.00000000000E+00  0.45593999997E+02  0.45594000000E+02  0.51100000000E-03 0. -1.
         11   -1    0    0    0    0 -0.00000000000E+00 -0.00000000000E+00 -0.45593999997E+02  0.45594000000E+02  0.51100000000E-03 0.  1.
    9900012    2    1    2    0    0  0.34761622594E+02 -0.13106242810E+02 -0.22438342391E+02  0.47787271721E+02  0.20000003084E+02 0.  0.
         12    1    1    2    0    0 -0.34761622594E+02  0.13106242810E+02  0.22438342391E+02  0.43400728279E+02  0.00000000000E+00 0. -1.
         11    1    3    3    0    0  0.16778321108E+02 -0.13017266115E+02 -0.12649328195E+02  0.24717742218E+02  0.51100000000E-03 0. -1.
        -11    1    3    3    0    0  0.30566164751E+01 -0.11200232410E+01 -0.71772908085E+01  0.78810443437E+01  0.51100000000E-03 0.  1.
         12    1    3    3    0    0  0.14926685010E+02  0.10310465462E+01 -0.26117233870E+01  0.15188485159E+02  0.00000000000E+00 0. -1.
</event>
<event>
 7    1  0.2682317E-010  0.4778727E+02  0.7816164E-02  0.1312668E+00
        -11   -1    0    0    0    0  0.00000000000E+00  0.00000000000E+00  0.45593999997E+02  0.45594000000E+02  0.51100000000E-03 0.  1.
         11   -1    0    0    0    0 -0.00000000000E+00 -0.00000000000E+00 -0.45593999997E+02  0.45594000000E+02  0.51100000000E-03 0. -1.
    9900012    2    1    2    0    0 -0.30714943984E+02 -0.13126961364E+02  0.27710977916E+02  0.47787271945E+02  0.20000004108E+02 0.  0.
         12    1    1    2    0    0  0.30714943984E+02  0.13126961364E+02 -0.27710977916E+02  0.43400728055E+02  0.00000000000E+00 0. -1.
         11    1    3    3    0    0 -0.86554807077E+01 -0.37704739444E+01  0.88981997306E+00  0.94829109398E+01  0.51100000000E-03 0. -1.
        -11    1    3    3    0    0  0.10884406968E+01  0.12948108947E+01  0.28841422437E+01  0.33435781950E+01  0.51100000000E-03 0.  1.
        -12    1    3    3    0    0 -0.23147903973E+02 -0.10651298314E+02  0.23937015700E+02  0.34960782811E+02  0.00000000000E+00 0.  1.
</event>
<event>
 7    1  0.2682317E-010  0.4778726E+02  0.7816164E-02  0.1312668E+00
        -11   -1    0    0    0    0  0.00000000000E+00  0.00000000000E+00  0.45593999997E+02  0.45594000000E+02  0.51100000000E-03 0.  1.
         11   -1    0    0    0    0 -0.00000000000E+00 -0.00000000000E+00 -0.45593999997E+02  0.45594000000E+02  0.51100000000E-03 0. -1.
    9900012    2    1    2    0    0  0.26241313482E+02 -0.28537899697E+02  0.19509115586E+02  0.47787264484E+02  0.19999970089E+02 0.  0.
         12    1    1    2    0    0 -0.26241313482E+02  0.28537899697E+02 -0.19509115586E+02  0.43400735516E+02  0.00000000000E+00 0. -1.
         11    1    3    3    0    0  0.28756919718E+01 -0.15614320204E+02  0.50100622186E+01  0.16648643291E+02  0.51100000000E-03 0. -1.
        -11    1    3    3    0    0  0.25415025166E+01  0.74367036599E+00  0.13442524678E+01  0.29697298890E+01  0.51100000000E-03 0.  1.
        -12    1    3    3    0    0  0.20824118994E+02 -0.13667249859E+02  0.13154800900E+02  0.28168891304E+02  0.00000000000E+00 0.  1.
</event>
<event>
 7    1  0.2682317E-010  0.4778727E+02  0.7816164E-02  0.1312668E+00
        -11   -1    0    0    0    0  0.00000000000E+00  0.00000000000E+00  0.45593999997E+02  0.45594000000E+02  0.51100000000E-03 0.  1.
         11   -1    0    0    0    0 -0.00000000000E+00 -0.00000000000E+00 -0.45593999997E+02  0.45594000000E+02  0.51100000000E-03 0. -1.
    9900012    2    1    2    0    0  0.36713668231E+02  0.21929935084E+02  0.74032411550E+01  0.47787268815E+02  0.19999989834E+02 0.  0.
         12    1    1    2    0    0 -0.36713668231E+02 -0.21929935084E+02 -0.74032411550E+01  0.43400731185E+02  0.00000000000E+00 0. -1.
         11    1    3    3    0    0  0.29549759545E+00  0.14528047581E+01 -0.29351716680E+01  0.32883420558E+01  0.51100000000E-03 0.  1.
        -11    1    3    3    0    0  0.22435064951E+01  0.54863849183E+01  0.79882053095E+00  0.59809577299E+01  0.51100000000E-03 0. -1.
        -12    1    3    3    0    0  0.34174664141E+02  0.14990745408E+02  0.95395922921E+01  0.38517969029E+02  0.00000000000E+00 0.  1.
</event>
<event>
 7    1  0.2682317E-010  0.4778727E+02  0.7816164E-02  0.1312668E+00
        -11   -1    0    0    0    0  0.00000000000E+00  0.00000000000E+00  0.45593999997E+02  0.45594000000E+02  0.51100000000E-03 0.  1.
         11   -1    0    0    0    0 -0.00000000000E+00 -0.00000000000E+00 -0.45593999997E+02  0.45594000000E+02  0.51100000000E-03 0. -1.
    9900012    2    1    2    0    0  0.23617269400E+02  0.33854830820E+02 -0.13405156076E+02  0.47787271974E+02  0.20000004238E+02 0.  0.
         12    1    1    2    0    0 -0.23617269400E+02 -0.33854830820E+02  0.13405156076E+02  0.43400728026E+02  0.00000000000E+00 0. -1.
         11    1    3    3    0    0  0.97123525169E+01  0.66079065874E+01 -0.74015492397E+01  0.13884421208E+02  0.51100000000E-03 0. -1.
        -11    1    3    3    0    0 -0.10204669033E+01  0.48542125118E+00 -0.28897339693E+01  0.31028292196E+01  0.51100000000E-03 0.  1.
        -12    1    3    3    0    0  0.14925383786E+02  0.26761502982E+02 -0.31138728674E+01  0.30800021546E+02  0.00000000000E+00 0.  1.
</event>
<event>
 7    1  0.2682317E-010  0.4778727E+02  0.7816164E-02  0.1312668E+00
        -11   -1    0    0    0    0  0.00000000000E+00  0.00000000000E+00  0.45593999997E+02  0.45594000000E+02  0.51100000000E-03 0.  1.
         11   -1    0    0    0    0 -0.00000000000E+00 -0.00000000000E+00 -0.45593999997E+02  0.45594000000E+02  0.51100000000E-03 0. -1.
    9900012    2    1    2    0    0  0.17823840499E+02  0.10139242941E+02  0.38250881339E+02  0.47787268892E+02  0.19999990185E+02 0.  0.
         12    1    1    2    0    0 -0.17823840499E+02 -0.10139242941E+02 -0.38250881339E+02  0.43400731108E+02  0.00000000000E+00 0. -1.
         11    1    3    3    0    0  0.13205320266E+02  0.73600826000E+01  0.31369574715E+02  0.34822428365E+02  0.51100000000E-03 0.  1.
        -11    1    3    3    0    0  0.52294234208E+01 -0.22594530106E+01  0.49075947898E+01  0.75190746839E+01  0.51100000000E-03 0. -1.
        -12    1    3    3    0    0 -0.61090318728E+00  0.50386133514E+01  0.19737118337E+01  0.54457658425E+01  0.00000000000E+00 0.  1.
</event>
<event>
 7    1  0.2682317E-010  0.4778728E+02  0.7816164E-02  0.1312668E+00
        -11   -1    0    0    0    0  0.00000000000E+00  0.00000000000E+00  0.45593999997E+02  0.45594000000E+02  0.51100000000E-03 0.  1.
         11   -1    0    0    0    0 -0.00000000000E+00 -0.00000000000E+00 -0.45593999997E+02  0.45594000000E+02  0.51100000000E-03 0. -1.
    9900012    2    1    2    0    0 -0.16227715254E+02 -0.36127900741E+01  0.40090294821E+02  0.47787277272E+02  0.20000028396E+02 0.  0.
         12    1    1    2    0    0  0.16227715254E+02  0.36127900741E+01 -0.40090294821E+02  0.43400722728E+02  0.00000000000E+00 0. -1.
         11    1    3    3    0    0 -0.28181763303E+01  0.17139586263E+01  0.25959651643E+02  0.26168364215E+02  0.51100000000E-03 0. -1.
        -11    1    3    3    0    0 -0.39656040709E+01 -0.20870343783E+01  0.97212442910E+01  0.10704406521E+02  0.51100000000E-03 0.  1.
        -12    1    3    3    0    0 -0.94439348527E+01 -0.32397143221E+01  0.44093988867E+01  0.10914506536E+02  0.00000000000E+00 0.  1.
</event>
<event>
 7    1  0.2682317E-010  0.4778727E+02  0.7816164E-02  0.1312668E+00
        -11   -1    0    0    0    0  0.00000000000E+00  0.00000000000E+00  0.45593999997E+02  0.45594000000E+02  0.51100000000E-03 0.  1.
         11   -1    0    0    0    0 -0.00000000000E+00 -0.00000000000E+00 -0.45593999997E+02  0.45594000000E+02  0.51100000000E-03 0. -1.
    9900012    2    1    2    0    0  0.14225542047E+02 -0.14858445562E+02  0.38216275639E+02  0.47787272186E+02  0.20000005207E+02 0.  0.
         12    1    1    2    0    0 -0.14225542047E+02  0.14858445562E+02 -0.38216275639E+02  0.43400727814E+02  0.00000000000E+00 0. -1.
         11    1    3    3    0    0 -0.10210999414E+01 -0.42872416366E+01 -0.86913634357E-01  0.44080199843E+01  0.51100000000E-03 0. -1.
        -11    1    3    3    0    0  0.54183041145E+01 -0.51586847331E+01  0.74878820168E+01  0.10584820500E+02  0.51100000000E-03 0.  1.
        -12    1    3    3    0    0  0.98283378734E+01 -0.54125191919E+01  0.30815307257E+02  0.32794431702E+02  0.00000000000E+00 0.  1.
</event>
<event>
 7    1  0.2682317E-010  0.4778726E+02  0.7816164E-02  0.1312668E+00
        -11   -1    0    0    0    0  0.00000000000E+00  0.00000000000E+00  0.45593999997E+02  0.45594000000E+02  0.51100000000E-03 0.  1.
         11   -1    0    0    0    0 -0.00000000000E+00 -0.00000000000E+00 -0.45593999997E+02  0.45594000000E+02  0.51100000000E-03 0. -1.
    9900012    2    1    2    0    0  0.40929595984E+02 -0.70028388518E+01  0.12623481943E+02  0.47787264110E+02  0.19999968384E+02 0.  0.
         12    1    1    2    0    0 -0.40929595984E+02  0.70028388518E+01 -0.12623481943E+02  0.43400735890E+02  0.00000000000E+00 0. -1.
         11    1    3    3    0    0  0.17234605159E+02 -0.56704081488E+00 -0.14928373187E+01  0.17308428981E+02  0.51100000000E-03 0. -1.
        -11    1    3    3    0    0  0.67893578271E+01  0.11237986516E+01 -0.48104027385E+00  0.68985290548E+01  0.51100000000E-03 0.  1.
        -12    1    3    3    0    0  0.16905632998E+02 -0.75595966886E+01  0.14597359535E+02  0.23580306074E+02  0.00000000000E+00 0.  1.
</event>
<event>
 7    1  0.2682317E-010  0.4778727E+02  0.7816164E-02  0.1312668E+00
        -11   -1    0    0    0    0  0.00000000000E+00  0.00000000000E+00  0.45593999997E+02  0.45594000000E+02  0.51100000000E-03 0. -1.
         11   -1    0    0    0    0 -0.00000000000E+00 -0.00000000000E+00 -0.45593999997E+02  0.45594000000E+02  0.51100000000E-03 0.  1.
    9900012    2    1    2    0    0  0.89762591800E+01  0.41824138258E+02  0.73342547240E+01  0.47787273483E+02  0.20000011118E+02 0.  0.
         12    1    1    2    0    0 -0.89762591800E+01 -0.41824138258E+02 -0.73342547240E+01  0.43400726517E+02  0.00000000000E+00 0. -1.
         11    1    3    3    0    0 -0.10878571503E+01  0.63808892507E+01  0.69748717855E+01  0.95156722041E+01  0.51100000000E-03 0. -1.
        -11    1    3    3    0    0  0.65741620032E+01  0.18861184953E+02  0.52162434715E+01  0.20643960378E+02  0.51100000000E-03 0.  1.
        -12    1    3    3    0    0  0.34899543271E+01  0.16582064053E+02 -0.48568605330E+01  0.17627640900E+02  0.00000000000E+00 0.  1.
</event>
<event>
 7    1  0.2682317E-010  0.4778727E+02  0.7816164E-02  0.1312668E+00
        -11   -1    0    0    0    0  0.00000000000E+00  0.00000000000E+00  0.45593999997E+02  0.45594000000E+02  0.51100000000E-03 0. -1.
         11   -1    0    0    0    0 -0.00000000000E+00 -0.00000000000E+00 -0.45593999997E+02  0.45594000000E+02  0.51100000000E-03 0.  1.
    9900012    2    1    2    0    0 -0.42034436676E+02 -0.10173165687E+02  0.36381449513E+01  0.47787271141E+02  0.20000000441E+02 0.  0.
         12    1    1    2    0    0  0.42034436676E+02  0.10173165687E+02 -0.36381449513E+01  0.43400728859E+02  0.00000000000E+00 0. -1.
         11    1    3    3    0    0 -0.94706740362E+01  0.10840282071E+01  0.51946555343E+01  0.10856022763E+02  0.51100000000E-03 0. -1.
        -11    1    3    3    0    0 -0.17780481843E+02  0.83263396544E+00 -0.60825519918E+00  0.17810356216E+02  0.51100000000E-03 0.  1.
        -12    1    3    3    0    0 -0.14783280797E+02 -0.12089827860E+02 -0.94825538384E+00  0.19120892162E+02  0.00000000000E+00 0.  1.
</event>
<event>
 7    1  0.2682317E-010  0.4778727E+02  0.7816164E-02  0.1312668E+00
        -11   -1    0    0    0    0  0.00000000000E+00  0.00000000000E+00  0.45593999997E+02  0.45594000000E+02  0.51100000000E-03 0.  1.
         11   -1    0    0    0    0 -0.00000000000E+00 -0.00000000000E+00 -0.45593999997E+02  0.45594000000E+02  0.51100000000E-03 0. -1.
    9900012    2    1    2    0    0  0.27993222775E+02 -0.32576052880E+02 -0.62292398085E+01  0.47787272228E+02  0.20000005396E+02 0.  0.
         12    1    1    2    0    0 -0.27993222775E+02  0.32576052880E+02  0.62292398085E+01  0.43400727772E+02  0.00000000000E+00 0. -1.
         11    1    3    3    0    0  0.95142129772E+01 -0.22992684314E+02 -0.95593393411E+01  0.26656420417E+02  0.51100000000E-03 0. -1.
        -11    1    3    3    0    0  0.34076718320E+01 -0.23643887884E+01  0.42703530628E+00  0.41695228830E+01  0.51100000000E-03 0.  1.
         12    1    3    3    0    0  0.15071337966E+02 -0.72189797774E+01  0.29030642263E+01  0.16961328928E+02  0.00000000000E+00 0. -1.
</event>
<event>
 7    1  0.2682317E-010  0.4778727E+02  0.7816164E-02  0.1312668E+00
        -11   -1    0    0    0    0  0.00000000000E+00  0.00000000000E+00  0.45593999997E+02  0.45594000000E+02  0.51100000000E-03 0.  1.
         11   -1    0    0    0    0 -0.00000000000E+00 -0.00000000000E+00 -0.45593999997E+02  0.45594000000E+02  0.51100000000E-03 0. -1.
    9900012    2    1    2    0    0 -0.26175788413E+02 -0.27788514948E+02  0.20645817412E+02  0.47787271450E+02  0.20000001849E+02 0.  0.
         12    1    1    2    0    0  0.26175788413E+02  0.27788514948E+02 -0.20645817412E+02  0.43400728550E+02  0.00000000000E+00 0. -1.
         11    1    3    3    0    0 -0.21115529182E+01  0.10166720638E+01  0.21062275224E+01  0.31509478651E+01  0.51100000000E-03 0. -1.
        -11    1    3    3    0    0 -0.11410668281E+02 -0.24062285464E+02  0.90602618602E+01  0.28129793416E+02  0.51100000000E-03 0.  1.
        -12    1    3    3    0    0 -0.12653567214E+02 -0.47429015472E+01  0.94793280297E+01  0.16506530169E+02  0.00000000000E+00 0.  1.
</event>
<event>
 7    1  0.2682317E-010  0.4778726E+02  0.7816164E-02  0.1312668E+00
        -11   -1    0    0    0    0  0.00000000000E+00  0.00000000000E+00  0.45593999997E+02  0.45594000000E+02  0.51100000000E-03 0.  1.
         11   -1    0    0    0    0 -0.00000000000E+00 -0.00000000000E+00 -0.45593999997E+02  0.45594000000E+02  0.51100000000E-03 0. -1.
    9900012    2    1    2    0    0  0.39177494574E+02  0.16737191352E+02  0.82833750195E+01  0.47787263172E+02  0.19999964108E+02 0.  0.
         12    1    1    2    0    0 -0.39177494574E+02 -0.16737191352E+02 -0.82833750195E+01  0.43400736828E+02  0.00000000000E+00 0. -1.
         11    1    3    3    0    0 -0.31348967818E+00  0.13430402050E+01  0.31979660814E+01  0.34826742726E+01  0.51100000000E-03 0. -1.
        -11    1    3    3    0    0  0.11973950898E+02  0.54687966414E+01  0.71487155192E+01  0.14979565102E+02  0.51100000000E-03 0.  1.
        -12    1    3    3    0    0  0.27517033354E+02  0.99253545057E+01 -0.20633065811E+01  0.29325023797E+02  0.00000000000E+00 0.  1.
</event>
<event>
 7    1  0.2682317E-010  0.4778727E+02  0.7816164E-02  0.1312668E+00
        -11   -1    0    0    0    0  0.00000000000E+00  0.00000000000E+00  0.45593999997E+02  0.45594000000E+02  0.51100000000E-03 0.  1.
         11   -1    0    0    0    0 -0.00000000000E+00 -0.00000000000E+00 -0.45593999997E+02  0.45594000000E+02  0.51100000000E-03 0. -1.
    9900012    2    1    2    0    0  0.36450437735E+02 -0.18088340151E+02  0.15093074558E+02  0.47787270051E+02  0.19999995471E+02 0.  0.
         12    1    1    2    0    0 -0.36450437735E+02  0.18088340151E+02 -0.15093074558E+02  0.43400729949E+02  0.00000000000E+00 0. -1.
         11    1    3    3    0    0  0.23970365439E+01 -0.31067374137E+01  0.18232387084E+01  0.43268696767E+01  0.51100000000E-03 0. -1.
        -11    1    3    3    0    0  0.35467283921E+02 -0.16520482788E+02  0.11672810720E+02  0.40830247252E+02  0.51100000000E-03 0.  1.
         12    1    3    3    0    0 -0.14138827302E+01  0.15388800503E+01  0.15970251294E+01  0.26301531225E+01  0.00000000000E+00 0. -1.
</event>
<event>
 7    1  0.2682317E-010  0.4778727E+02  0.7816164E-02  0.1312668E+00
        -11   -1    0    0    0    0  0.00000000000E+00  0.00000000000E+00  0.45593999997E+02  0.45594000000E+02  0.51100000000E-03 0.  1.
         11   -1    0    0    0    0 -0.00000000000E+00 -0.00000000000E+00 -0.45593999997E+02  0.45594000000E+02  0.51100000000E-03 0. -1.
    9900012    2    1    2    0    0 -0.29634920750E+02 -0.24894250104E+02  0.19638503801E+02  0.47787273651E+02  0.20000011885E+02 0.  0.
         12    1    1    2    0    0  0.29634920750E+02  0.24894250104E+02 -0.19638503801E+02  0.43400726349E+02  0.00000000000E+00 0. -1.
         11    1    3    3    0    0 -0.42625840227E+01 -0.90653767686E+01  0.37469236307E+00  0.10024523586E+02  0.51100000000E-03 0. -1.
        -11    1    3    3    0    0 -0.81083017093E+01 -0.10895644103E+02  0.38968769043E+01  0.14129588348E+02  0.51100000000E-03 0.  1.
        -12    1    3    3    0    0 -0.17264035018E+02 -0.49332292322E+01  0.15366934533E+02  0.23633161716E+02  0.00000000000E+00 0.  1.
</event>
<event>
 7    1  0.2682317E-010  0.4778727E+02  0.7816164E-02  0.1312668E+00
        -11   -1    0    0    0    0  0.00000000000E+00  0.00000000000E+00  0.45593999997E+02  0.45594000000E+02  0.51100000000E-03 0.  1.
         11   -1    0    0    0    0 -0.00000000000E+00 -0.00000000000E+00 -0.45593999997E+02  0.45594000000E+02  0.51100000000E-03 0. -1.
    9900012    2    1    2    0    0  0.79913342874E+01 -0.33989984194E+02  0.25776795270E+02  0.47787267015E+02  0.19999981629E+02 0.  0.
         12    1    1    2    0    0 -0.79913342874E+01  0.33989984194E+02 -0.25776795270E+02  0.43400732985E+02  0.00000000000E+00 0. -1.
         11    1    3    3    0    0  0.41521949178E+01 -0.37768099298E+01  0.57272421890E+01  0.80191220987E+01  0.51100000000E-03 0. -1.
        -11    1    3    3    0    0 -0.14784925666E+01 -0.23946994527E+01 -0.23439143208E+01  0.36625756433E+01  0.51100000000E-03 0.  1.
        -12    1    3    3    0    0  0.53176319363E+01 -0.27818474812E+02  0.22393467402E+02  0.36105569273E+02  0.00000000000E+00 0.  1.
</event>
<event>
 7    1  0.2682317E-010  0.4778727E+02  0.7816164E-02  0.1312668E+00
        -11   -1    0    0    0    0  0.00000000000E+00  0.00000000000E+00  0.45593999997E+02  0.45594000000E+02  0.51100000000E-03 0. -1.
         11   -1    0    0    0    0 -0.00000000000E+00 -0.00000000000E+00 -0.45593999997E+02  0.45594000000E+02  0.51100000000E-03 0.  1.
    9900012    2    1    2    0    0  0.39727753175E+02  0.56699612675E+01 -0.16528175910E+02  0.47787269222E+02  0.19999991692E+02 0.  0.
         12    1    1    2    0    0 -0.39727753175E+02 -0.56699612675E+01  0.16528175910E+02  0.43400730778E+02  0.00000000000E+00 0. -1.
         11    1    3    3    0    0  0.72247519014E+01 -0.12558834326E+01  0.20599917123E+01  0.76169448829E+01  0.51100000000E-03 0. -1.
        -11    1    3    3    0    0  0.32779333663E+02  0.85645965510E+01 -0.17152905900E+02  0.37974454710E+02  0.51100000000E-03 0.  1.
         12    1    3    3    0    0 -0.27633238876E+00 -0.16387518509E+01 -0.14352617226E+01  0.21958696296E+01  0.00000000000E+00 0. -1.
</event>
<event>
 7    1  0.2682317E-010  0.4778727E+02  0.7816164E-02  0.1312668E+00
        -11   -1    0    0    0    0  0.00000000000E+00  0.00000000000E+00  0.45593999997E+02  0.45594000000E+02  0.51100000000E-03 0.  1.
         11   -1    0    0    0    0 -0.00000000000E+00 -0.00000000000E+00 -0.45593999997E+02  0.45594000000E+02  0.51100000000E-03 0. -1.
    9900012    2    1    2    0    0 -0.12778686287E+02  0.10669031132E+02  0.40081166467E+02  0.47787274731E+02  0.20000016807E+02 0.  0.
         12    1    1    2    0    0  0.12778686287E+02 -0.10669031132E+02 -0.40081166467E+02  0.43400725269E+02  0.00000000000E+00 0. -1.
         11    1    3    3    0    0 -0.12561969281E+01 -0.46467285696E+00  0.25787924873E+01  0.29058772410E+01  0.51100000000E-03 0. -1.
        -11    1    3    3    0    0 -0.10119229656E+02 -0.16091798506E+01  0.90363147253E+01  0.13661744131E+02  0.51100000000E-03 0.  1.
         12    1    3    3    0    0 -0.14032597024E+01  0.12742883839E+02  0.28466059255E+02  0.31219653359E+02  0.00000000000E+00 0. -1.
</event>
<event>
 7    1  0.2682317E-010  0.4778725E+02  0.7816164E-02  0.1312668E+00
        -11   -1    0    0    0    0  0.00000000000E+00  0.00000000000E+00  0.45593999997E+02  0.45594000000E+02  0.51100000000E-03 0.  1.
         11   -1    0    0    0    0 -0.00000000000E+00 -0.00000000000E+00 -0.45593999997E+02  0.45594000000E+02  0.51100000000E-03 0. -1.
    9900012    2    1    2    0    0 -0.79950344054E+01 -0.30622305406E+02  0.29698128763E+02  0.47787250979E+02  0.19999908514E+02 0.  0.
         12    1    1    2    0    0  0.79950344054E+01  0.30622305406E+02 -0.29698128763E+02  0.43400749021E+02  0.00000000000E+00 0. -1.
         11    1    3    3    0    0 -0.48673388927E+01 -0.12726413147E+02  0.10508067349E+02  0.17206744583E+02  0.51100000000E-03 0.  1.
        -11    1    3    3    0    0  0.23819739620E+01 -0.18124771145E+02  0.14281334777E+02  0.23197794126E+02  0.51100000000E-03 0. -1.
         12    1    3    3    0    0 -0.55096694748E+01  0.22887888611E+00  0.49087266369E+01  0.73827122700E+01  0.00000000000E+00 0. -1.
</event>
<event>
 7    1  0.2682317E-010  0.4778727E+02  0.7816164E-02  0.1312668E+00
        -11   -1    0    0    0    0  0.00000000000E+00  0.00000000000E+00  0.45593999997E+02  0.45594000000E+02  0.51100000000E-03 0. -1.
         11   -1    0    0    0    0 -0.00000000000E+00 -0.00000000000E+00 -0.45593999997E+02  0.45594000000E+02  0.51100000000E-03 0.  1.
    9900012    2    1    2    0    0 -0.23820445901E+01 -0.12974436472E+02 -0.41347467993E+02  0.47787271346E+02  0.20000001376E+02 0.  0.
         12    1    1    2    0    0  0.23820445901E+01  0.12974436472E+02  0.41347467993E+02  0.43400728654E+02  0.00000000000E+00 0. -1.
         11    1    3    3    0    0 -0.52958928503E+01 -0.48446505202E+01 -0.12938851430E+02  0.14796316985E+02  0.51100000000E-03 0. -1.
        -11    1    3    3    0    0  0.89038856105E+00 -0.14592312140E+01 -0.25301400708E+02  0.25359081717E+02  0.51100000000E-03 0.  1.
        -12    1    3    3    0    0  0.20234596991E+01 -0.66705547383E+01 -0.31072158560E+01  0.76318726435E+01  0.00000000000E+00 0.  1.
</event>
<event>
 7    1  0.2682317E-010  0.4778726E+02  0.7816164E-02  0.1312668E+00
        -11   -1    0    0    0    0  0.00000000000E+00  0.00000000000E+00  0.45593999997E+02  0.45594000000E+02  0.51100000000E-03 0.  1.
         11   -1    0    0    0    0 -0.00000000000E+00 -0.00000000000E+00 -0.45593999997E+02  0.45594000000E+02  0.51100000000E-03 0. -1.
    9900012    2    1    2    0    0  0.62305736032E+01  0.42757053598E+02 -0.40789953802E+01  0.47787264026E+02  0.19999967998E+02 0.  0.
         12    1    1    2    0    0 -0.62305736032E+01 -0.42757053598E+02  0.40789953802E+01  0.43400735974E+02  0.00000000000E+00 0. -1.
         11    1    3    3    0    0  0.94158929845E+01  0.14502140578E+02 -0.37374540846E+01  0.17690101338E+02  0.51100000000E-03 0. -1.
        -11    1    3    3    0    0  0.33137187491E+01  0.60449236180E+01 -0.88013655403E+00  0.69495664693E+01  0.51100000000E-03 0.  1.
        -12    1    3    3    0    0 -0.64990381304E+01  0.22209989402E+02  0.53859525840E+00  0.23147596219E+02  0.00000000000E+00 0.  1.
</event>
<event>
 7    1  0.2682317E-010  0.4778726E+02  0.7816164E-02  0.1312668E+00
        -11   -1    0    0    0    0  0.00000000000E+00  0.00000000000E+00  0.45593999997E+02  0.45594000000E+02  0.51100000000E-03 0.  1.
         11   -1    0    0    0    0 -0.00000000000E+00 -0.00000000000E+00 -0.45593999997E+02  0.45594000000E+02  0.51100000000E-03 0. -1.
    9900012    2    1    2    0    0 -0.47231252930E+01 -0.14391389704E+02  0.40671910512E+02  0.47787259052E+02  0.19999945322E+02 0.  0.
         12    1    1    2    0    0  0.47231252930E+01  0.14391389704E+02 -0.40671910512E+02  0.43400740948E+02  0.00000000000E+00 0. -1.
         11    1    3    3    0    0 -0.17427541976E+01 -0.14106533504E+02  0.34373819400E+02  0.37196652270E+02  0.51100000000E-03 0. -1.
        -11    1    3    3    0    0 -0.21652435719E+01  0.71477318071E+00  0.80773421933E+01  0.83930112352E+01  0.51100000000E-03 0.  1.
         12    1    3    3    0    0 -0.81512752353E+00 -0.99962938047E+00 -0.17792510813E+01  0.21975955470E+01  0.00000000000E+00 0. -1.
</event>
<event>
 7    1  0.2682317E-010  0.4778727E+02  0.7816164E-02  0.1312668E+00
        -11   -1    0    0    0    0  0.00000000000E+00  0.00000000000E+00  0.45593999997E+02  0.45594000000E+02  0.51100000000E-03 0. -1.
         11   -1    0    0    0    0 -0.00000000000E+00 -0.00000000000E+00 -0.45593999997E+02  0.45594000000E+02  0.51100000000E-03 0.  1.
    9900012    2    1    2    0    0  0.28129220241E+02  0.24065298599E+02  0.22654613130E+02  0.47787272770E+02  0.20000007867E+02 0.  0.
         12    1    1    2    0    0 -0.28129220241E+02 -0.24065298599E+02 -0.22654613130E+02  0.43400727230E+02  0.00000000000E+00 0. -1.
         11    1    3    3    0    0  0.15464507619E+01 -0.65696088560E+00 -0.80085358712E-01  0.16821181558E+01  0.51100000000E-03 0. -1.
        -11    1    3    3    0    0  0.37101224108E+01  0.73211310452E+01  0.13715451689E+02  0.15983666143E+02  0.51100000000E-03 0.  1.
        -12    1    3    3    0    0  0.22872647068E+02  0.17401128439E+02  0.90192468001E+01  0.30121488471E+02  0.00000000000E+00 0.  1.
</event>
<event>
 7    1  0.2682317E-010  0.4778728E+02  0.7816164E-02  0.1312668E+00
        -11   -1    0    0    0    0  0.00000000000E+00  0.00000000000E+00  0.45593999997E+02  0.45594000000E+02  0.51100000000E-03 0.  1.
         11   -1    0    0    0    0 -0.00000000000E+00 -0.00000000000E+00 -0.45593999997E+02  0.45594000000E+02  0.51100000000E-03 0. -1.
    9900012    2    1    2    0    0  0.39337326321E+02 -0.79369993372E+01 -0.16528805588E+02  0.47787278638E+02  0.20000034623E+02 0.  0.
         12    1    1    2    0    0 -0.39337326321E+02  0.79369993372E+01  0.16528805588E+02  0.43400721362E+02  0.00000000000E+00 0. -1.
         11    1    3    3    0    0  0.28621322905E+01  0.24647211916E+01 -0.16249471562E+01  0.41118250598E+01  0.51100000000E-03 0. -1.
        -11    1    3    3    0    0  0.33157555852E+02 -0.68964267360E+01 -0.72618196108E+01  0.34636949001E+02  0.51100000000E-03 0.  1.
        -12    1    3    3    0    0  0.33176381788E+01 -0.35052937927E+01 -0.76420388207E+01  0.90385045774E+01  0.00000000000E+00 0.  1.
</event>
<event>
 7    1  0.2682317E-010  0.4778727E+02  0.7816164E-02  0.1312668E+00
        -11   -1    0    0    0    0  0.00000000000E+00  0.00000000000E+00  0.45593999997E+02  0.45594000000E+02  0.51100000000E-03 0.  1.
         11   -1    0    0    0    0 -0.00000000000E+00 -0.00000000000E+00 -0.45593999997E+02  0.45594000000E+02  0.51100000000E-03 0. -1.
    9900012    2    1    2    0    0 -0.20373154594E+02  0.20788652685E+02  0.32193006062E+02  0.47787272496E+02  0.20000006618E+02 0.  0.
         12    1    1    2    0    0  0.20373154594E+02 -0.20788652685E+02 -0.32193006062E+02  0.43400727504E+02  0.00000000000E+00 0. -1.
         11    1    3    3    0    0 -0.18577634740E+02  0.15379600570E+02  0.13185865340E+02  0.27486863613E+02  0.51100000000E-03 0. -1.
        -11    1    3    3    0    0 -0.68245643195E+00 -0.62790153383E+00  0.16947386018E+01  0.19318763696E+01  0.51100000000E-03 0.  1.
        -12    1    3    3    0    0 -0.11130634225E+01  0.60369536489E+01  0.17312402120E+02  0.18368532514E+02  0.00000000000E+00 0.  1.
</event>
<event>
 7    1  0.2682317E-010  0.4778727E+02  0.7816164E-02  0.1312668E+00
        -11   -1    0    0    0    0  0.00000000000E+00  0.00000000000E+00  0.45593999997E+02  0.45594000000E+02  0.51100000000E-03 0.  1.
         11   -1    0    0    0    0 -0.00000000000E+00 -0.00000000000E+00 -0.45593999997E+02  0.45594000000E+02  0.51100000000E-03 0. -1.
    9900012    2    1    2    0    0 -0.15822027537E+02 -0.14029706124E+02  0.37900583392E+02  0.47787269236E+02  0.19999991757E+02 0.  0.
         12    1    1    2    0    0  0.15822027537E+02  0.14029706124E+02 -0.37900583392E+02  0.43400730764E+02  0.00000000000E+00 0. -1.
         11    1    3    3    0    0 -0.94433119078E+01 -0.26985875143E+01  0.11977746384E+02  0.15489510097E+02  0.51100000000E-03 0. -1.
        -11    1    3    3    0    0 -0.82651685245E+01 -0.18984962354E+01  0.67195250350E+01  0.10819857469E+02  0.51100000000E-03 0.  1.
         12    1    3    3    0    0  0.18864528953E+01 -0.94326223749E+01  0.19203311974E+02  0.21477901670E+02  0.00000000000E+00 0. -1.
</event>
<event>
 7    1  0.2682317E-010  0.4778727E+02  0.7816164E-02  0.1312668E+00
        -11   -1    0    0    0    0  0.00000000000E+00  0.00000000000E+00  0.45593999997E+02  0.45594000000E+02  0.51100000000E-03 0.  1.
         11   -1    0    0    0    0 -0.00000000000E+00 -0.00000000000E+00 -0.45593999997E+02  0.45594000000E+02  0.51100000000E-03 0. -1.
    9900012    2    1    2    0    0  0.24855469814E+02  0.31506914471E+02  0.16527041480E+02  0.47787272595E+02  0.20000007071E+02 0.  0.
         12    1    1    2    0    0 -0.24855469814E+02 -0.31506914471E+02 -0.16527041480E+02  0.43400727405E+02  0.00000000000E+00 0. -1.
         11    1    3    3    0    0  0.63274766810E+01  0.23433167971E+01  0.43031174578E+01  0.80028066875E+01  0.51100000000E-03 0. -1.
        -11    1    3    3    0    0  0.42600950333E+01  0.10176777529E+01  0.63071206751E+01  0.76787921689E+01  0.51100000000E-03 0.  1.
        -12    1    3    3    0    0  0.14267898099E+02  0.28145919921E+02  0.59168033475E+01  0.32105673739E+02  0.00000000000E+00 0.  1.
</event>
<event>
 7    1  0.2682317E-010  0.4778727E+02  0.7816164E-02  0.1312668E+00
        -11   -1    0    0    0    0  0.00000000000E+00  0.00000000000E+00  0.45593999997E+02  0.45594000000E+02  0.51100000000E-03 0.  1.
         11   -1    0    0    0    0 -0.00000000000E+00 -0.00000000000E+00 -0.45593999997E+02  0.45594000000E+02  0.51100000000E-03 0. -1.
    9900012    2    1    2    0    0 -0.16493902225E+02  0.37234799307E+02  0.15004810962E+02  0.47787269107E+02  0.19999991168E+02 0.  0.
         12    1    1    2    0    0  0.16493902225E+02 -0.37234799307E+02 -0.15004810962E+02  0.43400730893E+02  0.00000000000E+00 0. -1.
         11    1    3    3    0    0 -0.10065966617E+02  0.94935390871E+01  0.32027746049E+01  0.14202419997E+02  0.51100000000E-03 0.  1.
        -11    1    3    3    0    0 -0.70579351126E+01  0.50043450806E+01  0.40642388400E+01  0.95590771181E+01  0.51100000000E-03 0. -1.
         12    1    3    3    0    0  0.62999950496E+00  0.22736915139E+02  0.77377975170E+01  0.24025771992E+02  0.00000000000E+00 0. -1.
</event>
<event>
 7    1  0.2682317E-010  0.4778727E+02  0.7816164E-02  0.1312668E+00
        -11   -1    0    0    0    0  0.00000000000E+00  0.00000000000E+00  0.45593999997E+02  0.45594000000E+02  0.51100000000E-03 0.  1.
         11   -1    0    0    0    0 -0.00000000000E+00 -0.00000000000E+00 -0.45593999997E+02  0.45594000000E+02  0.51100000000E-03 0. -1.
    9900012    2    1    2    0    0  0.32125859922E+02  0.18283986928E+02  0.22743094127E+02  0.47787269773E+02  0.19999994204E+02 0.  0.
         12    1    1    2    0    0 -0.32125859922E+02 -0.18283986928E+02 -0.22743094127E+02  0.43400730227E+02  0.00000000000E+00 0. -1.
         11    1    3    3    0    0  0.24168667791E+00  0.61808344735E+01  0.43723777596E+01  0.75748805122E+01  0.51100000000E-03 0. -1.
        -11    1    3    3    0    0  0.85269912790E+01  0.49605352788E+01  0.10831244309E+02  0.14650335971E+02  0.51100000000E-03 0.  1.
        -12    1    3    3    0    0  0.23357181965E+02  0.71426171760E+01  0.75394720586E+01  0.25562053290E+02  0.00000000000E+00 0.  1.
</event>
<event>
 7    1  0.2682317E-010  0.4778725E+02  0.7816164E-02  0.1312668E+00
        -11   -1    0    0    0    0  0.00000000000E+00  0.00000000000E+00  0.45593999997E+02  0.45594000000E+02  0.51100000000E-03 0.  1.
         11   -1    0    0    0    0 -0.00000000000E+00 -0.00000000000E+00 -0.45593999997E+02  0.45594000000E+02  0.51100000000E-03 0. -1.
    9900012    2    1    2    0    0  0.23177372677E+01  0.41762104412E+02  0.11583604797E+02  0.47787249188E+02  0.19999900345E+02 0.  0.
         12    1    1    2    0    0 -0.23177372677E+01 -0.41762104412E+02 -0.11583604797E+02  0.43400750812E+02  0.00000000000E+00 0. -1.
         11    1    3    3    0    0 -0.59176114007E+01  0.33358351567E+02  0.84348103451E+01  0.34913375228E+02  0.51100000000E-03 0.  1.
        -11    1    3    3    0    0  0.18276320341E-01  0.18268261044E+00 -0.62631851868E+00  0.65267304832E+00  0.51100000000E-03 0. -1.
        -12    1    3    3    0    0  0.82170723481E+01  0.82210702347E+01  0.37751129704E+01  0.12221200911E+02  0.00000000000E+00 0.  1.
</event>
<event>
 7    1  0.2682317E-010  0.4778727E+02  0.7816164E-02  0.1312668E+00
        -11   -1    0    0    0    0  0.00000000000E+00  0.00000000000E+00  0.45593999997E+02  0.45594000000E+02  0.51100000000E-03 0. -1.
         11   -1    0    0    0    0 -0.00000000000E+00 -0.00000000000E+00 -0.45593999997E+02  0.45594000000E+02  0.51100000000E-03 0.  1.
    9900012    2    1    2    0    0 -0.24899656136E+02  0.35544395444E+02  0.47599647218E+00  0.47787268487E+02  0.19999988341E+02 0.  0.
         12    1    1    2    0    0  0.24899656136E+02 -0.35544395444E+02 -0.47599647218E+00  0.43400731513E+02  0.00000000000E+00 0. -1.
         11    1    3    3    0    0 -0.13934880748E+02  0.19231245980E+02 -0.71529110553E+00  0.23759910880E+02  0.51100000000E-03 0. -1.
        -11    1    3    3    0    0 -0.10396710909E+02  0.80549952479E+01 -0.45908326740E+01  0.13930193505E+02  0.51100000000E-03 0.  1.
         12    1    3    3    0    0 -0.56806447919E+00  0.82581542162E+01  0.57821202517E+01  0.10097164103E+02  0.00000000000E+00 0. -1.
</event>
<event>
 7    1  0.2682317E-010  0.4778727E+02  0.7816164E-02  0.1312668E+00
        -11   -1    0    0    0    0  0.00000000000E+00  0.00000000000E+00  0.45593999997E+02  0.45594000000E+02  0.51100000000E-03 0. -1.
         11   -1    0    0    0    0 -0.00000000000E+00 -0.00000000000E+00 -0.45593999997E+02  0.45594000000E+02  0.51100000000E-03 0.  1.
    9900012    2    1    2    0    0  0.24201726076E+02 -0.31738555119E+02  0.17045938825E+02  0.47787268940E+02  0.19999990404E+02 0.  0.
         12    1    1    2    0    0 -0.24201726076E+02  0.31738555119E+02 -0.17045938825E+02  0.43400731060E+02  0.00000000000E+00 0. -1.
         11    1    3    3    0    0  0.12596237844E+02 -0.80389366842E+01  0.11762575692E+02  0.19017042304E+02  0.51100000000E-03 0. -1.
        -11    1    3    3    0    0  0.88491092789E+01 -0.72276678776E+01  0.67734054281E+00  0.11445728830E+02  0.51100000000E-03 0.  1.
        -12    1    3    3    0    0  0.27563789533E+01 -0.16471950558E+02  0.46060225905E+01  0.17324497805E+02  0.00000000000E+00 0.  1.
</event>
<event>
 7    1  0.2682317E-010  0.4778728E+02  0.7816164E-02  0.1312668E+00
        -11   -1    0    0    0    0  0.00000000000E+00  0.00000000000E+00  0.45593999997E+02  0.45594000000E+02  0.51100000000E-03 0.  1.
         11   -1    0    0    0    0 -0.00000000000E+00 -0.00000000000E+00 -0.45593999997E+02  0.45594000000E+02  0.51100000000E-03 0. -1.
    9900012    2    1    2    0    0  0.28710320890E+02  0.71090086342E+01  0.31761648753E+02  0.47787275802E+02  0.20000021694E+02 0.  0.
         12    1    1    2    0    0 -0.28710320890E+02 -0.71090086342E+01 -0.31761648753E+02  0.43400724198E+02  0.00000000000E+00 0. -1.
         11    1    3    3    0    0  0.51540382324E+00  0.29108992264E-01 -0.16459823390E+01  0.17250352332E+01  0.51100000000E-03 0. -1.
        -11    1    3    3    0    0  0.13134437252E+02  0.81026844806E+01  0.10639982042E+02  0.18745030163E+02  0.51100000000E-03 0.  1.
         12    1    3    3    0    0  0.15060479814E+02 -0.10227848387E+01  0.22767649051E+02  0.27317210406E+02  0.00000000000E+00 0. -1.
</event>
<event>
 7    1  0.2682317E-010  0.4778727E+02  0.7816164E-02  0.1312668E+00
        -11   -1    0    0    0    0  0.00000000000E+00  0.00000000000E+00  0.45593999997E+02  0.45594000000E+02  0.51100000000E-03 0.  1.
         11   -1    0    0    0    0 -0.00000000000E+00 -0.00000000000E+00 -0.45593999997E+02  0.45594000000E+02  0.51100000000E-03 0. -1.
    9900012    2    1    2    0    0 -0.23227270313E+01 -0.34683946148E+02  0.25985613116E+02  0.47787271086E+02  0.20000000190E+02 0.  0.
         12    1    1    2    0    0  0.23227270313E+01  0.34683946148E+02 -0.25985613116E+02  0.43400728914E+02  0.00000000000E+00 0. -1.
         11    1    3    3    0    0 -0.24778805906E+01 -0.80198769481E+01  0.11053663238E+01  0.84664132580E+01  0.51100000000E-03 0. -1.
        -11    1    3    3    0    0 -0.32972046733E+01 -0.25804043501E+02  0.18187595796E+02  0.31741280074E+02  0.51100000000E-03 0.  1.
        -12    1    3    3    0    0  0.34523582326E+01 -0.86002569876E+00  0.66926509963E+01  0.75795777539E+01  0.00000000000E+00 0.  1.
</event>
<event>
 7    1  0.2682317E-010  0.4778726E+02  0.7816164E-02  0.1312668E+00
        -11   -1    0    0    0    0  0.00000000000E+00  0.00000000000E+00  0.45593999997E+02  0.45594000000E+02  0.51100000000E-03 0.  1.
         11   -1    0    0    0    0 -0.00000000000E+00 -0.00000000000E+00 -0.45593999997E+02  0.45594000000E+02  0.51100000000E-03 0. -1.
    9900012    2    1    2    0    0  0.32696653447E+02 -0.20152540990E+02  0.20209596892E+02  0.47787264274E+02  0.19999969131E+02 0.  0.
         12    1    1    2    0    0 -0.32696653447E+02  0.20152540990E+02 -0.20209596892E+02  0.43400735726E+02  0.00000000000E+00 0. -1.
         11    1    3    3    0    0  0.13696368660E+02 -0.56110541716E+01  0.27521475995E+01  0.15054858354E+02  0.51100000000E-03 0. -1.
        -11    1    3    3    0    0  0.12637061034E+02 -0.56330947337E+01  0.22856778698E+01  0.14023244683E+02  0.51100000000E-03 0.  1.
        -12    1    3    3    0    0  0.63632237531E+01 -0.89083920849E+01  0.15171771423E+02  0.18709161237E+02  0.00000000000E+00 0.  1.
</event>
<event>
 7    1  0.2682317E-010  0.4778727E+02  0.7816164E-02  0.1312668E+00
        -11   -1    0    0    0    0  0.00000000000E+00  0.00000000000E+00  0.45593999997E+02  0.45594000000E+02  0.51100000000E-03 0.  1.
         11   -1    0    0    0    0 -0.00000000000E+00 -0.00000000000E+00 -0.45593999997E+02  0.45594000000E+02  0.51100000000E-03 0. -1.
    9900012    2    1    2    0    0 -0.49849981472E+01 -0.24265390896E+02  0.35636551030E+02  0.47787272228E+02  0.20000005396E+02 0.  0.
         12    1    1    2    0    0  0.49849981472E+01  0.24265390896E+02 -0.35636551030E+02  0.43400727772E+02  0.00000000000E+00 0. -1.
         11    1    3    3    0    0 -0.34062509752E+01  0.17012817648E+01  0.24984374076E+01  0.45540196629E+01  0.51100000000E-03 0. -1.
        -11    1    3    3    0    0 -0.10870145207E+01 -0.10320319793E+01  0.67911667516E+01  0.69546126193E+01  0.51100000000E-03 0.  1.
         12    1    3    3    0    0 -0.49173265136E+00 -0.24934640681E+02  0.26346946871E+02  0.36278639946E+02  0.00000000000E+00 0. -1.
</event>
<event>
 7    1  0.2682317E-010  0.4778728E+02  0.7816164E-02  0.1312668E+00
        -11   -1    0    0    0    0  0.00000000000E+00  0.00000000000E+00  0.45593999997E+02  0.45594000000E+02  0.51100000000E-03 0.  1.
         11   -1    0    0    0    0 -0.00000000000E+00 -0.00000000000E+00 -0.45593999997E+02  0.45594000000E+02  0.51100000000E-03 0. -1.
    9900012    2    1    2    0    0 -0.99205372183E+01  0.17445777155E+02  0.38481822221E+02  0.47787276035E+02  0.20000022755E+02 0.  0.
         12    1    1    2    0    0  0.99205372183E+01 -0.17445777155E+02 -0.38481822221E+02  0.43400723965E+02  0.00000000000E+00 0. -1.
         11    1    3    3    0    0 -0.65260983151E+01  0.76187251532E+01  0.14044558189E+02  0.17259332176E+02  0.51100000000E-03 0. -1.
        -11    1    3    3    0    0 -0.37439286218E+01  0.13784931914E+02  0.19915401185E+02  0.24508458826E+02  0.51100000000E-03 0.  1.
         12    1    3    3    0    0  0.34948971863E+00 -0.39578799120E+01  0.45218628463E+01  0.60194850329E+01  0.00000000000E+00 0. -1.
</event>
<event>
 7    1  0.2682317E-010  0.4778727E+02  0.7816164E-02  0.1312668E+00
        -11   -1    0    0    0    0  0.00000000000E+00  0.00000000000E+00  0.45593999997E+02  0.45594000000E+02  0.51100000000E-03 0.  1.
         11   -1    0    0    0    0 -0.00000000000E+00 -0.00000000000E+00 -0.45593999997E+02  0.45594000000E+02  0.51100000000E-03 0. -1.
    9900012    2    1    2    0    0  0.76533457295E+01 -0.37783433037E+02  0.19936435415E+02  0.47787274545E+02  0.20000015962E+02 0.  0.
         12    1    1    2    0    0 -0.76533457295E+01  0.37783433037E+02 -0.19936435415E+02  0.43400725455E+02  0.00000000000E+00 0. -1.
         11    1    3    3    0    0  0.24487950697E+01 -0.14896099395E+00  0.10698560835E+01  0.26764489480E+01  0.51100000000E-03 0. -1.
        -11    1    3    3    0    0  0.70164935655E+01 -0.11069905214E+02  0.12095344975E+01  0.13161951123E+02  0.51100000000E-03 0.  1.
        -12    1    3    3    0    0 -0.18119429056E+01 -0.26564566829E+02  0.17657044834E+02  0.31948874474E+02  0.00000000000E+00 0.  1.
</event>
<event>
 7    1  0.2682317E-010  0.4778727E+02  0.7816164E-02  0.1312668E+00
        -11   -1    0    0    0    0  0.00000000000E+00  0.00000000000E+00  0.45593999997E+02  0.45594000000E+02  0.51100000000E-03 0.  1.
         11   -1    0    0    0    0 -0.00000000000E+00 -0.00000000000E+00 -0.45593999997E+02  0.45594000000E+02  0.51100000000E-03 0. -1.
    9900012    2    1    2    0    0 -0.33801731011E+02  0.85321242975E+00  0.27209152103E+02  0.47787274788E+02  0.20000017067E+02 0.  0.
         12    1    1    2    0    0  0.33801731011E+02 -0.85321242975E+00 -0.27209152103E+02  0.43400725212E+02  0.00000000000E+00 0. -1.
         11    1    3    3    0    0  0.11273103813E+00  0.22921374785E+01  0.34985831123E+01  0.41840992534E+01  0.51100000000E-03 0. -1.
        -11    1    3    3    0    0 -0.64135171516E+01  0.22721047937E+00 -0.11189067858E+01  0.65143518106E+01  0.51100000000E-03 0.  1.
        -12    1    3    3    0    0 -0.27500944897E+02 -0.16661355281E+01  0.24829475777E+02  0.37088823724E+02  0.00000000000E+00 0.  1.
</event>
<event>
 7    1  0.2682317E-010  0.4778728E+02  0.7816164E-02  0.1312668E+00
        -11   -1    0    0    0    0  0.00000000000E+00  0.00000000000E+00  0.45593999997E+02  0.45594000000E+02  0.51100000000E-03 0.  1.
         11   -1    0    0    0    0 -0.00000000000E+00 -0.00000000000E+00 -0.45593999997E+02  0.45594000000E+02  0.51100000000E-03 0. -1.
    9900012    2    1    2    0    0 -0.36663851367E+02 -0.30163926859E+01  0.23027946070E+02  0.47787275097E+02  0.20000018477E+02 0.  0.
         12    1    1    2    0    0  0.36663851367E+02  0.30163926859E+01 -0.23027946070E+02  0.43400724903E+02  0.00000000000E+00 0. -1.
         11    1    3    3    0    0 -0.58265678583E+01 -0.50800893204E+01  0.15829189683E+01  0.78906167840E+01  0.51100000000E-03 0. -1.
        -11    1    3    3    0    0 -0.23422842535E+02 -0.41921837001E+01  0.16886105156E+02  0.29177808420E+02  0.51100000000E-03 0.  1.
         12    1    3    3    0    0 -0.74144409743E+01  0.62558803347E+01  0.45589219453E+01  0.10718849893E+02  0.00000000000E+00 0. -1.
</event>
<event>
 7    1  0.2682317E-010  0.4778727E+02  0.7816164E-02  0.1312668E+00
        -11   -1    0    0    0    0  0.00000000000E+00  0.00000000000E+00  0.45593999997E+02  0.45594000000E+02  0.51100000000E-03 0.  1.
         11   -1    0    0    0    0 -0.00000000000E+00 -0.00000000000E+00 -0.45593999997E+02  0.45594000000E+02  0.51100000000E-03 0. -1.
    9900012    2    1    2    0    0 -0.16115981185E+02 -0.40291788847E+02  0.68568982603E+00  0.47787271106E+02  0.20000000279E+02 0.  0.
         12    1    1    2    0    0  0.16115981185E+02  0.40291788847E+02 -0.68568982603E+00  0.43400728894E+02  0.00000000000E+00 0. -1.
         11    1    3    3    0    0 -0.77236406031E+01 -0.11855540284E+02  0.56033512995E+01  0.15218607217E+02  0.51100000000E-03 0. -1.
        -11    1    3    3    0    0  0.29494233555E+01 -0.52773780212E+01  0.95712966055E+00  0.61209406431E+01  0.51100000000E-03 0.  1.
         12    1    3    3    0    0 -0.11341763937E+02 -0.23158870542E+02 -0.58747911340E+01  0.26447723245E+02  0.00000000000E+00 0. -1.
</event>
<event>
 7    1  0.2682317E-010  0.4778727E+02  0.7816164E-02  0.1312668E+00
        -11   -1    0    0    0    0  0.00000000000E+00  0.00000000000E+00  0.45593999997E+02  0.45594000000E+02  0.51100000000E-03 0.  1.
         11   -1    0    0    0    0 -0.00000000000E+00 -0.00000000000E+00 -0.45593999997E+02  0.45594000000E+02  0.51100000000E-03 0. -1.
    9900012    2    1    2    0    0  0.31244264023E+02  0.26024852398E+02  0.15169909482E+02  0.47787272698E+02  0.20000007538E+02 0.  0.
         12    1    1    2    0    0 -0.31244264023E+02 -0.26024852398E+02 -0.15169909482E+02  0.43400727302E+02  0.00000000000E+00 0. -1.
         11    1    3    3    0    0  0.74500144663E+01  0.44772860834E+01  0.94433757798E+01  0.12834568657E+02  0.51100000000E-03 0. -1.
        -11    1    3    3    0    0  0.24028118972E+02  0.16012852774E+02  0.40027708603E+01  0.29151057101E+02  0.51100000000E-03 0.  1.
         12    1    3    3    0    0 -0.23386941554E+00  0.55347135406E+01  0.17237628416E+01  0.58016469398E+01  0.00000000000E+00 0. -1.
</event>
<event>
 7    1  0.2682317E-010  0.4778727E+02  0.7816164E-02  0.1312668E+00
        -11   -1    0    0    0    0  0.00000000000E+00  0.00000000000E+00  0.45593999997E+02  0.45594000000E+02  0.51100000000E-03 0. -1.
         11   -1    0    0    0    0 -0.00000000000E+00 -0.00000000000E+00 -0.45593999997E+02  0.45594000000E+02  0.51100000000E-03 0.  1.
    9900012    2    1    2    0    0 -0.25853534359E+01 -0.11575688463E+02 -0.41748565619E+02  0.47787270202E+02  0.19999996159E+02 0.  0.
         12    1    1    2    0    0  0.25853534359E+01  0.11575688463E+02  0.41748565619E+02  0.43400729798E+02  0.00000000000E+00 0. -1.
         11    1    3    3    0    0  0.51523812233E+00  0.45732483743E+01 -0.94186883062E+01  0.10482927105E+02  0.51100000000E-03 0. -1.
        -11    1    3    3    0    0 -0.22168960523E+01 -0.60441880318E+01 -0.21599710000E+02  0.22538729099E+02  0.51100000000E-03 0.  1.
        -12    1    3    3    0    0 -0.88369550594E+00 -0.10104748806E+02 -0.10730167313E+02  0.14765613998E+02  0.00000000000E+00 0.  1.
</event>
<event>
 7    1  0.2682317E-010  0.4778727E+02  0.7816164E-02  0.1312668E+00
        -11   -1    0    0    0    0  0.00000000000E+00  0.00000000000E+00  0.45593999997E+02  0.45594000000E+02  0.51100000000E-03 0. -1.
         11   -1    0    0    0    0 -0.00000000000E+00 -0.00000000000E+00 -0.45593999997E+02  0.45594000000E+02  0.51100000000E-03 0.  1.
    9900012    2    1    2    0    0 -0.12591929758E+02  0.41130343306E+02 -0.57759560341E+01  0.47787268398E+02  0.19999987932E+02 0.  0.
         12    1    1    2    0    0  0.12591929758E+02 -0.41130343306E+02  0.57759560341E+01  0.43400731602E+02  0.00000000000E+00 0. -1.
         11    1    3    3    0    0 -0.40734190316E+01  0.17685640212E+02 -0.42028441064E+01  0.18628969675E+02  0.51100000000E-03 0. -1.
        -11    1    3    3    0    0 -0.99438715877E+01  0.20449955325E+02  0.35906344290E+01  0.23021162239E+02  0.51100000000E-03 0.  1.
         12    1    3    3    0    0  0.14253608608E+01  0.29947477684E+01 -0.51637463567E+01  0.61371364834E+01  0.00000000000E+00 0. -1.
</event>
<event>
 7    1  0.2682317E-010  0.4778727E+02  0.7816164E-02  0.1312668E+00
        -11   -1    0    0    0    0  0.00000000000E+00  0.00000000000E+00  0.45593999997E+02  0.45594000000E+02  0.51100000000E-03 0.  1.
         11   -1    0    0    0    0 -0.00000000000E+00 -0.00000000000E+00 -0.45593999997E+02  0.45594000000E+02  0.51100000000E-03 0. -1.
    9900012    2    1    2    0    0 -0.25287203045E+02  0.62536788168E+01  0.34714147378E+02  0.47787272301E+02  0.20000005731E+02 0.  0.
         12    1    1    2    0    0  0.25287203045E+02 -0.62536788168E+01 -0.34714147378E+02  0.43400727699E+02  0.00000000000E+00 0. -1.
         11    1    3    3    0    0 -0.53951517686E+01 -0.19779836601E+01  0.44646016009E+01  0.72768640005E+01  0.51100000000E-03 0. -1.
        -11    1    3    3    0    0 -0.19510830983E+02  0.10860673255E+01  0.19574322132E+02  0.27658744640E+02  0.51100000000E-03 0.  1.
         12    1    3    3    0    0 -0.38122029395E+00  0.71455951514E+01  0.10675223645E+02  0.12851663661E+02  0.00000000000E+00 0. -1.
</event>
<event>
 7    1  0.2682317E-010  0.4778727E+02  0.7816164E-02  0.1312668E+00
        -11   -1    0    0    0    0  0.00000000000E+00  0.00000000000E+00  0.45593999997E+02  0.45594000000E+02  0.51100000000E-03 0.  1.
         11   -1    0    0    0    0 -0.00000000000E+00 -0.00000000000E+00 -0.45593999997E+02  0.45594000000E+02  0.51100000000E-03 0. -1.
    9900012    2    1    2    0    0  0.22226314132E+02  0.25433108331E+02  0.27253827713E+02  0.47787272307E+02  0.20000005757E+02 0.  0.
         12    1    1    2    0    0 -0.22226314132E+02 -0.25433108331E+02 -0.27253827713E+02  0.43400727693E+02  0.00000000000E+00 0. -1.
         11    1    3    3    0    0  0.14406915671E+01  0.33895195652E+01 -0.23223933999E+01  0.43540723971E+01  0.51100000000E-03 0. -1.
        -11    1    3    3    0    0  0.38171446410E+01  0.10788180277E+02  0.10840131042E+02  0.15762736696E+02  0.51100000000E-03 0.  1.
        -12    1    3    3    0    0  0.16968477924E+02  0.11255408489E+02  0.18736090071E+02  0.27670463214E+02  0.00000000000E+00 0.  1.
</event>
<event>
 7    1  0.2682317E-010  0.4778727E+02  0.7816164E-02  0.1312668E+00
        -11   -1    0    0    0    0  0.00000000000E+00  0.00000000000E+00  0.45593999997E+02  0.45594000000E+02  0.51100000000E-03 0. -1.
         11   -1    0    0    0    0 -0.00000000000E+00 -0.00000000000E+00 -0.45593999997E+02  0.45594000000E+02  0.51100000000E-03 0.  1.
    9900012    2    1    2    0    0  0.88891970079E+01  0.32127277980E+02 -0.27792872903E+02  0.47787267310E+02  0.19999982972E+02 0.  0.
         12    1    1    2    0    0 -0.88891970079E+01 -0.32127277980E+02  0.27792872903E+02  0.43400732690E+02  0.00000000000E+00 0. -1.
         11    1    3    3    0    0 -0.56742592609E+01  0.50445277173E+01 -0.42960440777E+01  0.87235585073E+01  0.51100000000E-03 0. -1.
        -11    1    3    3    0    0  0.15788787508E+01  0.77382780718E+01 -0.55020017929E+01  0.96252703658E+01  0.51100000000E-03 0.  1.
        -12    1    3    3    0    0  0.12984577518E+02  0.19344472191E+02 -0.17994827032E+02  0.29438438437E+02  0.00000000000E+00 0.  1.
</event>
<event>
 7    1  0.2682317E-010  0.4778727E+02  0.7816164E-02  0.1312668E+00
        -11   -1    0    0    0    0  0.00000000000E+00  0.00000000000E+00  0.45593999997E+02  0.45594000000E+02  0.51100000000E-03 0.  1.
         11   -1    0    0    0    0 -0.00000000000E+00 -0.00000000000E+00 -0.45593999997E+02  0.45594000000E+02  0.51100000000E-03 0. -1.
    9900012    2    1    2    0    0 -0.42417718630E+02  0.89377220130E+01 -0.21159817779E+01  0.47787272961E+02  0.20000008740E+02 0.  0.
         12    1    1    2    0    0  0.42417718630E+02 -0.89377220130E+01  0.21159817779E+01  0.43400727039E+02  0.00000000000E+00 0. -1.
         11    1    3    3    0    0 -0.71992511855E+01  0.58098689037E+01 -0.66373291070E+01  0.11385865459E+02  0.51100000000E-03 0. -1.
        -11    1    3    3    0    0 -0.52726394739E+01  0.32108761339E+01  0.72575463045E+00  0.62158806789E+01  0.51100000000E-03 0.  1.
        -12    1    3    3    0    0 -0.29945827971E+02 -0.83023024601E-01  0.37955926987E+01  0.30185526824E+02  0.00000000000E+00 0.  1.
</event>
<event>
 7    1  0.2682317E-010  0.4778727E+02  0.7816164E-02  0.1312668E+00
        -11   -1    0    0    0    0  0.00000000000E+00  0.00000000000E+00  0.45593999997E+02  0.45594000000E+02  0.51100000000E-03 0.  1.
         11   -1    0    0    0    0 -0.00000000000E+00 -0.00000000000E+00 -0.45593999997E+02  0.45594000000E+02  0.51100000000E-03 0. -1.
    9900012    2    1    2    0    0 -0.40038769573E+02  0.24248469606E+01  0.16572286095E+02  0.47787267078E+02  0.19999981917E+02 0.  0.
         12    1    1    2    0    0  0.40038769573E+02 -0.24248469606E+01 -0.16572286095E+02  0.43400732922E+02  0.00000000000E+00 0. -1.
         11    1    3    3    0    0 -0.28747596669E+01  0.28078190690E+00  0.75865717588E+00  0.29864096493E+01  0.51100000000E-03 0. -1.
        -11    1    3    3    0    0 -0.24654791247E+02 -0.61049873177E+01  0.15614816342E+02  0.29815299617E+02  0.51100000000E-03 0.  1.
        -12    1    3    3    0    0 -0.12509218659E+02  0.82490523714E+01  0.19881257662E+00  0.14985557812E+02  0.00000000000E+00 0.  1.
</event>
<event>
 7    1  0.2682317E-010  0.4778727E+02  0.7816164E-02  0.1312668E+00
        -11   -1    0    0    0    0  0.00000000000E+00  0.00000000000E+00  0.45593999997E+02  0.45594000000E+02  0.51100000000E-03 0.  1.
         11   -1    0    0    0    0 -0.00000000000E+00 -0.00000000000E+00 -0.45593999997E+02  0.45594000000E+02  0.51100000000E-03 0. -1.
    9900012    2    1    2    0    0 -0.21367333180E+02 -0.30109332329E+01  0.37656275994E+02  0.47787265353E+02  0.19999974051E+02 0.  0.
         12    1    1    2    0    0  0.21367333180E+02  0.30109332329E+01 -0.37656275994E+02  0.43400734647E+02  0.00000000000E+00 0. -1.
         11    1    3    3    0    0 -0.54135625122E-01  0.24744054596E+01  0.78223533905E+01  0.82045612846E+01  0.51100000000E-03 0. -1.
        -11    1    3    3    0    0 -0.83015033132E+01  0.14915450512E+01  0.29941231984E+01  0.89501082612E+01  0.51100000000E-03 0.  1.
        -12    1    3    3    0    0 -0.13011694242E+02 -0.69768837438E+01  0.26839799405E+02  0.30632595807E+02  0.00000000000E+00 0.  1.
</event>
<event>
 7    1  0.2682317E-010  0.4778726E+02  0.7816164E-02  0.1312668E+00
        -11   -1    0    0    0    0  0.00000000000E+00  0.00000000000E+00  0.45593999997E+02  0.45594000000E+02  0.51100000000E-03 0.  1.
         11   -1    0    0    0    0 -0.00000000000E+00 -0.00000000000E+00 -0.45593999997E+02  0.45594000000E+02  0.51100000000E-03 0. -1.
    9900012    2    1    2    0    0  0.20433524158E+02 -0.23788332618E+02  0.30003504128E+02  0.47787263390E+02  0.19999965102E+02 0.  0.
         12    1    1    2    0    0 -0.20433524158E+02  0.23788332618E+02 -0.30003504128E+02  0.43400736610E+02  0.00000000000E+00 0. -1.
         11    1    3    3    0    0 -0.67200691689E+00 -0.27495810607E+01  0.21056706759E+01  0.35278376610E+01  0.51100000000E-03 0. -1.
        -11    1    3    3    0    0  0.17057249839E+02 -0.56699691106E+01  0.11057263412E+02  0.21103587283E+02  0.51100000000E-03 0.  1.
        -12    1    3    3    0    0  0.40482812360E+01 -0.15368782447E+02  0.16840570041E+02  0.23155838447E+02  0.00000000000E+00 0.  1.
</event>
<event>
 7    1  0.2682317E-010  0.4778727E+02  0.7816164E-02  0.1312668E+00
        -11   -1    0    0    0    0  0.00000000000E+00  0.00000000000E+00  0.45593999997E+02  0.45594000000E+02  0.51100000000E-03 0.  1.
         11   -1    0    0    0    0 -0.00000000000E+00 -0.00000000000E+00 -0.45593999997E+02  0.45594000000E+02  0.51100000000E-03 0. -1.
    9900012    2    1    2    0    0  0.38153177021E+02 -0.15639579248E+01  0.20627958357E+02  0.47787267896E+02  0.19999985643E+02 0.  0.
         12    1    1    2    0    0 -0.38153177021E+02  0.15639579248E+01 -0.20627958357E+02  0.43400732104E+02  0.00000000000E+00 0. -1.
         11    1    3    3    0    0  0.11124251126E+02 -0.60326569608E+01  0.60078967601E+01  0.14008452336E+02  0.51100000000E-03 0. -1.
        -11    1    3    3    0    0  0.16925174135E+02 -0.10348800097E+01  0.26266142404E+01  0.17159009259E+02  0.51100000000E-03 0.  1.
         12    1    3    3    0    0  0.10103751760E+02  0.55035790456E+01  0.11993447357E+02  0.16619806300E+02  0.00000000000E+00 0. -1.
</event>
<event>
 7    1  0.2682317E-010  0.4778727E+02  0.7816164E-02  0.1312668E+00
        -11   -1    0    0    0    0  0.00000000000E+00  0.00000000000E+00  0.45593999997E+02  0.45594000000E+02  0.51100000000E-03 0.  1.
         11   -1    0    0    0    0 -0.00000000000E+00 -0.00000000000E+00 -0.45593999997E+02  0.45594000000E+02  0.51100000000E-03 0. -1.
    9900012    2    1    2    0    0 -0.28986209195E+02 -0.17949080128E+02  0.26856159201E+02  0.47787273186E+02  0.20000009765E+02 0.  0.
         12    1    1    2    0    0  0.28986209195E+02  0.17949080128E+02 -0.26856159201E+02  0.43400726814E+02  0.00000000000E+00 0. -1.
         11    1    3    3    0    0 -0.39167775829E+01 -0.18043246325E+01 -0.29505084704E+01  0.52251540177E+01  0.51100000000E-03 0. -1.
        -11    1    3    3    0    0 -0.91775221055E+01 -0.74084815842E+01  0.82591009531E+01  0.14398793706E+02  0.51100000000E-03 0.  1.
        -12    1    3    3    0    0 -0.15891909507E+02 -0.87362739111E+01  0.21547566718E+02  0.28163325462E+02  0.00000000000E+00 0.  1.
</event>
<event>
 7    1  0.2682317E-010  0.4778727E+02  0.7816164E-02  0.1312668E+00
        -11   -1    0    0    0    0  0.00000000000E+00  0.00000000000E+00  0.45593999997E+02  0.45594000000E+02  0.51100000000E-03 0. -1.
         11   -1    0    0    0    0 -0.00000000000E+00 -0.00000000000E+00 -0.45593999997E+02  0.45594000000E+02  0.51100000000E-03 0.  1.
    9900012    2    1    2    0    0 -0.15769771871E+02  0.40381240511E+02  0.20718702209E+01  0.47787274934E+02  0.20000017734E+02 0.  0.
         12    1    1    2    0    0  0.15769771871E+02 -0.40381240511E+02 -0.20718702209E+01  0.43400725066E+02  0.00000000000E+00 0. -1.
         11    1    3    3    0    0 -0.97862215203E+00  0.14082076823E+02  0.27525904598E+01  0.14381910286E+02  0.51100000000E-03 0. -1.
        -11    1    3    3    0    0 -0.44397186863E+01  0.15117986534E+02  0.58772806811E+01  0.16816867940E+02  0.51100000000E-03 0.  1.
        -12    1    3    3    0    0 -0.10351431032E+02  0.11181177154E+02 -0.65580009199E+01  0.16588496708E+02  0.00000000000E+00 0.  1.
</event>
<event>
 7    1  0.2682317E-010  0.4778727E+02  0.7816164E-02  0.1312668E+00
        -11   -1    0    0    0    0  0.00000000000E+00  0.00000000000E+00  0.45593999997E+02  0.45594000000E+02  0.51100000000E-03 0.  1.
         11   -1    0    0    0    0 -0.00000000000E+00 -0.00000000000E+00 -0.45593999997E+02  0.45594000000E+02  0.51100000000E-03 0. -1.
    9900012    2    1    2    0    0 -0.50883755534E+00 -0.48182597753E+01  0.43129442408E+02  0.47787270221E+02  0.19999996245E+02 0.  0.
         12    1    1    2    0    0  0.50883755534E+00  0.48182597753E+01 -0.43129442408E+02  0.43400729779E+02  0.00000000000E+00 0. -1.
         11    1    3    3    0    0  0.23975946385E+00 -0.50440561538E+01  0.18947952432E+02  0.19609306176E+02  0.51100000000E-03 0.  1.
        -11    1    3    3    0    0 -0.82492093088E+00 -0.52215299152E+01  0.21434458070E+02  0.22076704061E+02  0.51100000000E-03 0. -1.
         12    1    3    3    0    0  0.76323911688E-01  0.54473262937E+01  0.27470319063E+01  0.61012599834E+01  0.00000000000E+00 0. -1.
</event>
<event>
 7    1  0.2682317E-010  0.4778727E+02  0.7816164E-02  0.1312668E+00
        -11   -1    0    0    0    0  0.00000000000E+00  0.00000000000E+00  0.45593999997E+02  0.45594000000E+02  0.51100000000E-03 0.  1.
         11   -1    0    0    0    0 -0.00000000000E+00 -0.00000000000E+00 -0.45593999997E+02  0.45594000000E+02  0.51100000000E-03 0. -1.
    9900012    2    1    2    0    0 -0.27475851380E+00  0.21024006536E+02  0.37967604854E+02  0.47787270036E+02  0.19999995402E+02 0.  0.
         12    1    1    2    0    0  0.27475851380E+00 -0.21024006536E+02 -0.37967604854E+02  0.43400729964E+02  0.00000000000E+00 0. -1.
         11    1    3    3    0    0 -0.46565168391E+01  0.25173086790E+01  0.78991998468E+01  0.95088038437E+01  0.51100000000E-03 0. -1.
        -11    1    3    3    0    0 -0.36511491230E+01  0.37601493850E+01  0.14350236966E+02  0.15277398815E+02  0.51100000000E-03 0.  1.
         12    1    3    3    0    0  0.80329074483E+01  0.14746548472E+02  0.15718168041E+02  0.23001067377E+02  0.00000000000E+00 0. -1.
</event>
<event>
 7    1  0.2682317E-010  0.4778727E+02  0.7816164E-02  0.1312668E+00
        -11   -1    0    0    0    0  0.00000000000E+00  0.00000000000E+00  0.45593999997E+02  0.45594000000E+02  0.51100000000E-03 0.  1.
         11   -1    0    0    0    0 -0.00000000000E+00 -0.00000000000E+00 -0.45593999997E+02  0.45594000000E+02  0.51100000000E-03 0. -1.
    9900012    2    1    2    0    0  0.29610790674E+02 -0.31705634790E+02 -0.12557164776E+01  0.47787273904E+02  0.20000013038E+02 0.  0.
         12    1    1    2    0    0 -0.29610790674E+02  0.31705634790E+02  0.12557164776E+01  0.43400726096E+02  0.00000000000E+00 0. -1.
         11    1    3    3    0    0  0.41243392817E+01 -0.37597852989E+00  0.52347493647E+00  0.41743934453E+01  0.51100000000E-03 0. -1.
        -11    1    3    3    0    0  0.24608199599E+02 -0.32398878228E+02  0.79259773771E+00  0.40692493280E+02  0.51100000000E-03 0.  1.
        -12    1    3    3    0    0  0.87825179380E+00  0.10692219680E+01 -0.25717891518E+01  0.29203871783E+01  0.00000000000E+00 0.  1.
</event>
<event>
 7    1  0.2682317E-010  0.4778725E+02  0.7816164E-02  0.1312668E+00
        -11   -1    0    0    0    0  0.00000000000E+00  0.00000000000E+00  0.45593999997E+02  0.45594000000E+02  0.51100000000E-03 0. -1.
         11   -1    0    0    0    0 -0.00000000000E+00 -0.00000000000E+00 -0.45593999997E+02  0.45594000000E+02  0.51100000000E-03 0.  1.
    9900012    2    1    2    0    0 -0.22547281744E+02 -0.19062064689E+02 -0.31810101563E+02  0.47787253628E+02  0.19999920590E+02 0.  0.
         12    1    1    2    0    0  0.22547281744E+02  0.19062064689E+02  0.31810101563E+02  0.43400746372E+02  0.00000000000E+00 0. -1.
         11    1    3    3    0    0  0.26148321299E+01 -0.56470587108E+01 -0.70775520310E+01  0.94243494292E+01  0.51100000000E-03 0. -1.
        -11    1    3    3    0    0 -0.73927326699E+01 -0.76269731054E+01 -0.95731775131E+01  0.14299263724E+02  0.51100000000E-03 0.  1.
         12    1    3    3    0    0 -0.17769381204E+02 -0.57880328723E+01 -0.15159372019E+02  0.24063640475E+02  0.00000000000E+00 0. -1.
</event>
<event>
 7    1  0.2682317E-010  0.4778727E+02  0.7816164E-02  0.1312668E+00
        -11   -1    0    0    0    0  0.00000000000E+00  0.00000000000E+00  0.45593999997E+02  0.45594000000E+02  0.51100000000E-03 0. -1.
         11   -1    0    0    0    0 -0.00000000000E+00 -0.00000000000E+00 -0.45593999997E+02  0.45594000000E+02  0.51100000000E-03 0.  1.
    9900012    2    1    2    0    0  0.24159378027E+02 -0.29855750052E+02 -0.20213413679E+02  0.47787269011E+02  0.19999990730E+02 0.  0.
         12    1    1    2    0    0 -0.24159378027E+02  0.29855750052E+02  0.20213413679E+02  0.43400730989E+02  0.00000000000E+00 0. -1.
         11    1    3    3    0    0  0.46068374015E+01 -0.29377908841E+01 -0.53986506446E+01  0.76810803385E+01  0.51100000000E-03 0. -1.
        -11    1    3    3    0    0  0.99018533779E+01 -0.23868437348E+02 -0.15196356349E+02  0.29977962711E+02  0.51100000000E-03 0.  1.
        -12    1    3    3    0    0  0.96506872476E+01 -0.30495218191E+01  0.38159331431E+00  0.10128225962E+02  0.00000000000E+00 0.  1.
</event>
<event>
 7    1  0.3251330E-010  0.4778727E+02  0.7816164E-02  0.1312668E+00
        -11   -1    0    0    0    0  0.00000000000E+00  0.00000000000E+00  0.45593999997E+02  0.45594000000E+02  0.51100000000E-03 0.  1.
         11   -1    0    0    0    0 -0.00000000000E+00 -0.00000000000E+00 -0.45593999997E+02  0.45594000000E+02  0.51100000000E-03 0. -1.
    9900012    2    1    2    0    0  0.33987612538E+02  0.10577521037E+02  0.24831060603E+02  0.47787270421E+02  0.19999997158E+02 0.  0.
         12    1    1    2    0    0 -0.33987612538E+02 -0.10577521037E+02 -0.24831060603E+02  0.43400729579E+02  0.00000000000E+00 0. -1.
         11    1    3    3    0    0  0.66264462735E+01 -0.43482635746E+01  0.88602529114E+01  0.11887862223E+02  0.51100000000E-03 0. -1.
        -11    1    3    3    0    0  0.13092874789E+02  0.27415594262E+01  0.61713474605E+01  0.14731770025E+02  0.51100000000E-03 0.  1.
         12    1    3    3    0    0  0.14268291476E+02  0.12184225185E+02  0.97994602307E+01  0.21167638173E+02  0.00000000000E+00 0. -1.
</event>
<event>
 7    1  0.2682317E-010  0.4778727E+02  0.7816164E-02  0.1312668E+00
        -11   -1    0    0    0    0  0.00000000000E+00  0.00000000000E+00  0.45593999997E+02  0.45594000000E+02  0.51100000000E-03 0.  1.
         11   -1    0    0    0    0 -0.00000000000E+00 -0.00000000000E+00 -0.45593999997E+02  0.45594000000E+02  0.51100000000E-03 0. -1.
    9900012    2    1    2    0    0 -0.36845238778E+02 -0.20067696020E+02  0.11105820282E+02  0.47787270879E+02  0.19999999245E+02 0.  0.
         12    1    1    2    0    0  0.36845238778E+02  0.20067696020E+02 -0.11105820282E+02  0.43400729121E+02  0.00000000000E+00 0. -1.
         11    1    3    3    0    0 -0.29951517296E+02 -0.11008754526E+02  0.94649469629E+01  0.33284700476E+02  0.51100000000E-03 0. -1.
        -11    1    3    3    0    0 -0.83514225236E+01 -0.68938180767E+01 -0.89158527998E+00  0.10865813840E+02  0.51100000000E-03 0.  1.
        -12    1    3    3    0    0  0.14577010416E+01 -0.21651234174E+01  0.25324585987E+01  0.36367565623E+01  0.00000000000E+00 0.  1.
</event>
<event>
 7    1  0.2682317E-010  0.4778727E+02  0.7816164E-02  0.1312668E+00
        -11   -1    0    0    0    0  0.00000000000E+00  0.00000000000E+00  0.45593999997E+02  0.45594000000E+02  0.51100000000E-03 0.  1.
         11   -1    0    0    0    0 -0.00000000000E+00 -0.00000000000E+00 -0.45593999997E+02  0.45594000000E+02  0.51100000000E-03 0. -1.
    9900012    2    1    2    0    0  0.36819397622E+01 -0.16724945184E+02  0.39879100751E+02  0.47787272489E+02  0.20000006584E+02 0.  0.
         12    1    1    2    0    0 -0.36819397622E+01  0.16724945184E+02 -0.39879100751E+02  0.43400727511E+02  0.00000000000E+00 0. -1.
         11    1    3    3    0    0  0.22511908220E+01 -0.29434055475E+01  0.16316361449E+02  0.16731860253E+02  0.51100000000E-03 0.  1.
        -11    1    3    3    0    0  0.73407379675E+01 -0.35827690204E+01  0.71973222534E+01  0.10886878140E+02  0.51100000000E-03 0. -1.
        -12    1    3    3    0    0 -0.59099890272E+01 -0.10198770616E+02  0.16365417049E+02  0.20168534095E+02  0.00000000000E+00 0.  1.
</event>
<event>
 7    1  0.2682317E-010  0.4778730E+02  0.7816164E-02  0.1312668E+00
        -11   -1    0    0    0    0  0.00000000000E+00  0.00000000000E+00  0.45593999997E+02  0.45594000000E+02  0.51100000000E-03 0.  1.
         11   -1    0    0    0    0 -0.00000000000E+00 -0.00000000000E+00 -0.45593999997E+02  0.45594000000E+02  0.51100000000E-03 0. -1.
    9900012    2    1    2    0    0 -0.40271933377E+02  0.10937682572E+02  0.11923073052E+02  0.47787295064E+02  0.20000109514E+02 0.  0.
         12    1    1    2    0    0  0.40271933377E+02 -0.10937682572E+02 -0.11923073052E+02  0.43400704936E+02  0.00000000000E+00 0. -1.
         11    1    3    3    0    0 -0.19444775981E+02 -0.75993271208E+00  0.24817683701E+01  0.19617236940E+02  0.51100000000E-03 0. -1.
        -11    1    3    3    0    0 -0.18716945341E+02  0.88819294914E+01  0.31416080353E+01  0.20954293491E+02  0.51100000000E-03 0.  1.
         12    1    3    3    0    0 -0.21102120551E+01  0.28156857924E+01  0.62996966467E+01  0.72157646330E+01  0.00000000000E+00 0. -1.
</event>
<event>
 7    1  0.2682317E-010  0.4778727E+02  0.7816164E-02  0.1312668E+00
        -11   -1    0    0    0    0  0.00000000000E+00  0.00000000000E+00  0.45593999997E+02  0.45594000000E+02  0.51100000000E-03 0.  1.
         11   -1    0    0    0    0 -0.00000000000E+00 -0.00000000000E+00 -0.45593999997E+02  0.45594000000E+02  0.51100000000E-03 0. -1.
    9900012    2    1    2    0    0  0.20375851295E+02 -0.32548793098E+02  0.20224340197E+02  0.47787272073E+02  0.20000004692E+02 0.  0.
         12    1    1    2    0    0 -0.20375851295E+02  0.32548793098E+02 -0.20224340197E+02  0.43400727927E+02  0.00000000000E+00 0. -1.
         11    1    3    3    0    0  0.90465108558E+01 -0.61058472902E+01 -0.54350466404E+00  0.10927768637E+02  0.51100000000E-03 0. -1.
        -11    1    3    3    0    0  0.23907796744E+01 -0.11010250356E+01  0.51367533410E+01  0.57718557438E+01  0.51100000000E-03 0.  1.
        -12    1    3    3    0    0  0.89385607652E+01 -0.25341920772E+02  0.15631091520E+02  0.31087647693E+02  0.00000000000E+00 0.  1.
</event>
<event>
 7    1  0.2682317E-010  0.4778727E+02  0.7816164E-02  0.1312668E+00
        -11   -1    0    0    0    0  0.00000000000E+00  0.00000000000E+00  0.45593999997E+02  0.45594000000E+02  0.51100000000E-03 0.  1.
         11   -1    0    0    0    0 -0.00000000000E+00 -0.00000000000E+00 -0.45593999997E+02  0.45594000000E+02  0.51100000000E-03 0. -1.
    9900012    2    1    2    0    0 -0.16865188704E+02 -0.97565578326E+01  0.38781419178E+02  0.47787268621E+02  0.19999988951E+02 0.  0.
         12    1    1    2    0    0  0.16865188704E+02  0.97565578326E+01 -0.38781419178E+02  0.43400731379E+02  0.00000000000E+00 0. -1.
         11    1    3    3    0    0 -0.79138858984E+01 -0.24055000715E+01  0.79005241920E+01  0.11438282361E+02  0.51100000000E-03 0. -1.
        -11    1    3    3    0    0 -0.39508264406E+01 -0.11670607047E+02  0.17221783896E+02  0.21175503282E+02  0.51100000000E-03 0.  1.
         12    1    3    3    0    0 -0.50004763652E+01  0.43195492863E+01  0.13659111090E+02  0.15173482978E+02  0.00000000000E+00 0. -1.
</event>
<event>
 7    1  0.2682317E-010  0.4778727E+02  0.7816164E-02  0.1312668E+00
        -11   -1    0    0    0    0  0.00000000000E+00  0.00000000000E+00  0.45593999997E+02  0.45594000000E+02  0.51100000000E-03 0.  1.
         11   -1    0    0    0    0 -0.00000000000E+00 -0.00000000000E+00 -0.45593999997E+02  0.45594000000E+02  0.51100000000E-03 0. -1.
    9900012    2    1    2    0    0 -0.13156581178E+02 -0.34925415469E+02  0.22152715885E+02  0.47787273105E+02  0.20000009395E+02 0.  0.
         12    1    1    2    0    0  0.13156581178E+02  0.34925415469E+02 -0.22152715885E+02  0.43400726895E+02  0.00000000000E+00 0. -1.
         11    1    3    3    0    0 -0.34294277498E+01 -0.24536032736E+02  0.20741161398E+02  0.32310581138E+02  0.51100000000E-03 0. -1.
        -11    1    3    3    0    0  0.69698569797E+00 -0.12581752533E+01  0.70233714436E+00  0.16006472930E+01  0.51100000000E-03 0.  1.
        -12    1    3    3    0    0 -0.10424139126E+02 -0.91312074796E+01  0.70921734241E+00  0.13876044674E+02  0.00000000000E+00 0.  1.
</event>
<event>
 7    1  0.2682317E-010  0.4778727E+02  0.7816164E-02  0.1312668E+00
        -11   -1    0    0    0    0  0.00000000000E+00  0.00000000000E+00  0.45593999997E+02  0.45594000000E+02  0.51100000000E-03 0.  1.
         11   -1    0    0    0    0 -0.00000000000E+00 -0.00000000000E+00 -0.45593999997E+02  0.45594000000E+02  0.51100000000E-03 0. -1.
    9900012    2    1    2    0    0  0.26356649089E+02  0.14323679863E+02  0.31365309217E+02  0.47787269841E+02  0.19999994514E+02 0.  0.
         12    1    1    2    0    0 -0.26356649089E+02 -0.14323679863E+02 -0.31365309217E+02  0.43400730159E+02  0.00000000000E+00 0. -1.
         11    1    3    3    0    0  0.16701498213E+01 -0.43696988584E+00  0.76968503259E+01  0.78880826762E+01  0.51100000000E-03 0.  1.
        -11    1    3    3    0    0  0.23940102474E-01  0.29612355429E+01  0.76713521550E+01  0.82230853830E+01  0.51100000000E-03 0. -1.
         12    1    3    3    0    0  0.24662559165E+02  0.11799414206E+02  0.15997106736E+02  0.31676101782E+02  0.00000000000E+00 0. -1.
</event>
<event>
 7    1  0.2682317E-010  0.4778725E+02  0.7816164E-02  0.1312668E+00
        -11   -1    0    0    0    0  0.00000000000E+00  0.00000000000E+00  0.45593999997E+02  0.45594000000E+02  0.51100000000E-03 0.  1.
         11   -1    0    0    0    0 -0.00000000000E+00 -0.00000000000E+00 -0.45593999997E+02  0.45594000000E+02  0.51100000000E-03 0. -1.
    9900012    2    1    2    0    0  0.36078385074E+02  0.47602075646E+01  0.23649856809E+02  0.47787249169E+02  0.19999900259E+02 0.  0.
         12    1    1    2    0    0 -0.36078385074E+02 -0.47602075646E+01 -0.23649856809E+02  0.43400750831E+02  0.00000000000E+00 0. -1.
         11    1    3    3    0    0  0.20183598382E+01 -0.90979375876E+00 -0.20890106653E+00  0.22237673072E+01  0.51100000000E-03 0.  1.
        -11    1    3    3    0    0  0.29293132030E+02  0.81713028041E+01  0.12285106252E+02  0.32799109889E+02  0.51100000000E-03 0. -1.
         12    1    3    3    0    0  0.47668932066E+01 -0.25013014807E+01  0.11573651624E+02  0.12764371972E+02  0.00000000000E+00 0. -1.
</event>
<event>
 7    1  0.2682317E-010  0.4778726E+02  0.7816164E-02  0.1312668E+00
        -11   -1    0    0    0    0  0.00000000000E+00  0.00000000000E+00  0.45593999997E+02  0.45594000000E+02  0.51100000000E-03 0. -1.
         11   -1    0    0    0    0 -0.00000000000E+00 -0.00000000000E+00 -0.45593999997E+02  0.45594000000E+02  0.51100000000E-03 0.  1.
    9900012    2    1    2    0    0  0.11890322136E+02 -0.24666783461E+02 -0.33671860014E+02  0.47787261255E+02  0.19999955366E+02 0.  0.
         12    1    1    2    0    0 -0.11890322136E+02  0.24666783461E+02  0.33671860014E+02  0.43400738745E+02  0.00000000000E+00 0. -1.
         11    1    3    3    0    0  0.24010430033E+01 -0.14709671553E+02 -0.16586641796E+02  0.22299240593E+02  0.51100000000E-03 0.  1.
        -11    1    3    3    0    0  0.45162044318E+01 -0.10378806737E+02 -0.17088455007E+02  0.20497098003E+02  0.51100000000E-03 0. -1.
         12    1    3    3    0    0  0.49730747007E+01  0.42169482907E+00  0.32367889636E-02  0.49909226586E+01  0.00000000000E+00 0. -1.
</event>
<event>
 7    1  0.2682317E-010  0.4778726E+02  0.7816164E-02  0.1312668E+00
        -11   -1    0    0    0    0  0.00000000000E+00  0.00000000000E+00  0.45593999997E+02  0.45594000000E+02  0.51100000000E-03 0. -1.
         11   -1    0    0    0    0 -0.00000000000E+00 -0.00000000000E+00 -0.45593999997E+02  0.45594000000E+02  0.51100000000E-03 0.  1.
    9900012    2    1    2    0    0 -0.46548723559E-01  0.40240431238E+02 -0.16258221358E+02  0.47787259974E+02  0.19999949528E+02 0.  0.
         12    1    1    2    0    0  0.46548723559E-01 -0.40240431238E+02  0.16258221358E+02  0.43400740026E+02  0.00000000000E+00 0. -1.
         11    1    3    3    0    0  0.17635398691E+01  0.26589809759E+02 -0.49618704127E+01  0.27106239395E+02  0.51100000000E-03 0. -1.
        -11    1    3    3    0    0  0.63702586880E+00  0.14277645121E+02 -0.75527165375E+01  0.16164791354E+02  0.51100000000E-03 0.  1.
        -12    1    3    3    0    0 -0.24471144615E+01 -0.62702364181E+00 -0.37436344079E+01  0.45162292253E+01  0.00000000000E+00 0.  1.
</event>
<event>
 7    1  0.2682317E-010  0.4778727E+02  0.7816164E-02  0.1312668E+00
        -11   -1    0    0    0    0  0.00000000000E+00  0.00000000000E+00  0.45593999997E+02  0.45594000000E+02  0.51100000000E-03 0. -1.
         11   -1    0    0    0    0 -0.00000000000E+00 -0.00000000000E+00 -0.45593999997E+02  0.45594000000E+02  0.51100000000E-03 0.  1.
    9900012    2    1    2    0    0 -0.10069280505E+02  0.45399762175E+01 -0.41971673954E+02  0.47787271798E+02  0.20000003437E+02 0.  0.
         12    1    1    2    0    0  0.10069280505E+02 -0.45399762175E+01  0.41971673954E+02  0.43400728202E+02  0.00000000000E+00 0. -1.
         11    1    3    3    0    0  0.90647497200E+00  0.45051708082E+01 -0.63925163461E+01  0.78728982200E+01  0.51100000000E-03 0. -1.
        -11    1    3    3    0    0  0.28611072434E+01  0.26319009428E+01 -0.97718049418E+01  0.10516701446E+02  0.51100000000E-03 0.  1.
         12    1    3    3    0    0 -0.13836862721E+02 -0.25970955335E+01 -0.25807352666E+02  0.29397672132E+02  0.00000000000E+00 0. -1.
</event>
<event>
 7    1  0.2682317E-010  0.4778727E+02  0.7816164E-02  0.1312668E+00
        -11   -1    0    0    0    0  0.00000000000E+00  0.00000000000E+00  0.45593999997E+02  0.45594000000E+02  0.51100000000E-03 0.  1.
         11   -1    0    0    0    0 -0.00000000000E+00 -0.00000000000E+00 -0.45593999997E+02  0.45594000000E+02  0.51100000000E-03 0. -1.
    9900012    2    1    2    0    0  0.39294155068E+02 -0.14471011789E+02 -0.11409749831E+02  0.47787271942E+02  0.20000004093E+02 0.  0.
         12    1    1    2    0    0 -0.39294155068E+02  0.14471011789E+02  0.11409749831E+02  0.43400728058E+02  0.00000000000E+00 0. -1.
         11    1    3    3    0    0  0.16910345166E+02 -0.22525171485E+01  0.33773998707E+00  0.17063050012E+02  0.51100000000E-03 0. -1.
        -11    1    3    3    0    0  0.22274587150E+02 -0.12289994946E+02 -0.75669778281E+01  0.26541672181E+02  0.51100000000E-03 0.  1.
         12    1    3    3    0    0  0.10922275248E+00  0.71500305403E-01 -0.41805119903E+01  0.41825497492E+01  0.00000000000E+00 0. -1.
</event>
<event>
 7    1  0.2682317E-010  0.4778729E+02  0.7816164E-02  0.1312668E+00
        -11   -1    0    0    0    0  0.00000000000E+00  0.00000000000E+00  0.45593999997E+02  0.45594000000E+02  0.51100000000E-03 0.  1.
         11   -1    0    0    0    0 -0.00000000000E+00 -0.00000000000E+00 -0.45593999997E+02  0.45594000000E+02  0.51100000000E-03 0. -1.
    9900012    2    1    2    0    0  0.14917488728E+02  0.39926925911E+02  0.81811474844E+01  0.47787285066E+02  0.20000063928E+02 0.  0.
         12    1    1    2    0    0 -0.14917488728E+02 -0.39926925911E+02 -0.81811474844E+01  0.43400714934E+02  0.00000000000E+00 0. -1.
         11    1    3    3    0    0 -0.38884208039E+01  0.10920128817E+02  0.26476744275E+01  0.11890298981E+02  0.51100000000E-03 0. -1.
        -11    1    3    3    0    0  0.53564079701E+01  0.15516254470E+02  0.28174941519E+01  0.16654835114E+02  0.51100000000E-03 0.  1.
        -12    1    3    3    0    0  0.13449501561E+02  0.13490542624E+02  0.27159789050E+01  0.19242150970E+02  0.00000000000E+00 0.  1.
</event>
<event>
 7    1  0.2682317E-010  0.4778727E+02  0.7816164E-02  0.1312668E+00
        -11   -1    0    0    0    0  0.00000000000E+00  0.00000000000E+00  0.45593999997E+02  0.45594000000E+02  0.51100000000E-03 0.  1.
         11   -1    0    0    0    0 -0.00000000000E+00 -0.00000000000E+00 -0.45593999997E+02  0.45594000000E+02  0.51100000000E-03 0. -1.
    9900012    2    1    2    0    0  0.43282414089E+02 -0.31539918689E+01 -0.55520038420E+00  0.47787270956E+02  0.19999999596E+02 0.  0.
         12    1    1    2    0    0 -0.43282414089E+02  0.31539918689E+01  0.55520038420E+00  0.43400729044E+02  0.00000000000E+00 0. -1.
         11    1    3    3    0    0 -0.48751964680E+00  0.15951716774E+01  0.38159173270E+00  0.17110992367E+01  0.51100000000E-03 0. -1.
        -11    1    3    3    0    0  0.55576251044E+01  0.38497496221E+01  0.11266678836E+01  0.68539878709E+01  0.51100000000E-03 0.  1.
        -12    1    3    3    0    0  0.38212308632E+02 -0.85989131684E+01 -0.20634600005E+01  0.39222183848E+02  0.00000000000E+00 0.  1.
</event>
<event>
 7    1  0.2682317E-010  0.4778727E+02  0.7816164E-02  0.1312668E+00
        -11   -1    0    0    0    0  0.00000000000E+00  0.00000000000E+00  0.45593999997E+02  0.45594000000E+02  0.51100000000E-03 0. -1.
         11   -1    0    0    0    0 -0.00000000000E+00 -0.00000000000E+00 -0.45593999997E+02  0.45594000000E+02  0.51100000000E-03 0.  1.
    9900012    2    1    2    0    0  0.27226067805E+02 -0.30801554221E+02 -0.13915057235E+02  0.47787270417E+02  0.19999997138E+02 0.  0.
         12    1    1    2    0    0 -0.27226067805E+02  0.30801554221E+02  0.13915057235E+02  0.43400729583E+02  0.00000000000E+00 0. -1.
         11    1    3    3    0    0  0.51692648058E+01 -0.13814884584E+02 -0.80857535192E+00  0.14772478772E+02  0.51100000000E-03 0. -1.
        -11    1    3    3    0    0  0.84295424213E+01 -0.28842006995E+01  0.84261314766E+00  0.89490667829E+01  0.51100000000E-03 0.  1.
        -12    1    3    3    0    0  0.13627260577E+02 -0.14102468937E+02 -0.13949095030E+02  0.24065724862E+02  0.00000000000E+00 0.  1.
</event>
<event>
 7    1  0.2682317E-010  0.4778725E+02  0.7816164E-02  0.1312668E+00
        -11   -1    0    0    0    0  0.00000000000E+00  0.00000000000E+00  0.45593999997E+02  0.45594000000E+02  0.51100000000E-03 0.  1.
         11   -1    0    0    0    0 -0.00000000000E+00 -0.00000000000E+00 -0.45593999997E+02  0.45594000000E+02  0.51100000000E-03 0. -1.
    9900012    2    1    2    0    0 -0.54182942518E+01  0.25231145893E+02  0.34894929973E+02  0.47787253768E+02  0.19999921229E+02 0.  0.
         12    1    1    2    0    0  0.54182942518E+01 -0.25231145893E+02 -0.34894929973E+02  0.43400746232E+02  0.00000000000E+00 0. -1.
         11    1    3    3    0    0 -0.25060481810E+01 -0.66194499386E+00 -0.40015172929E+00  0.26227028669E+01  0.51100000000E-03 0. -1.
        -11    1    3    3    0    0 -0.23118812711E+01  0.29930566312E+01  0.11624190355E+02  0.12223951271E+02  0.51100000000E-03 0.  1.
        -12    1    3    3    0    0 -0.60036479973E+00  0.22900034255E+02  0.23670891348E+02  0.32940599630E+02  0.00000000000E+00 0.  1.
</event>
<event>
 7    1  0.2682317E-010  0.4778727E+02  0.7816164E-02  0.1312668E+00
        -11   -1    0    0    0    0  0.00000000000E+00  0.00000000000E+00  0.45593999997E+02  0.45594000000E+02  0.51100000000E-03 0. -1.
         11   -1    0    0    0    0 -0.00000000000E+00 -0.00000000000E+00 -0.45593999997E+02  0.45594000000E+02  0.51100000000E-03 0.  1.
    9900012    2    1    2    0    0  0.39843877708E+02 -0.15309346937E+02  0.78557172563E+01  0.47787274337E+02  0.20000015013E+02 0.  0.
         12    1    1    2    0    0 -0.39843877708E+02  0.15309346937E+02 -0.78557172563E+01  0.43400725663E+02  0.00000000000E+00 0. -1.
         11    1    3    3    0    0  0.72770058901E+01 -0.71334185777E+01 -0.40835210973E+00  0.10198393356E+02  0.51100000000E-03 0. -1.
        -11    1    3    3    0    0  0.55692033163E+00 -0.39327764736E+01 -0.79804503675E+00  0.40513907722E+01  0.51100000000E-03 0.  1.
        -12    1    3    3    0    0  0.32009951486E+02 -0.42431518854E+01  0.90621144028E+01  0.33537490209E+02  0.00000000000E+00 0.  1.
</event>
<event>
 7    1  0.2682317E-010  0.4778727E+02  0.7816164E-02  0.1312668E+00
        -11   -1    0    0    0    0  0.00000000000E+00  0.00000000000E+00  0.45593999997E+02  0.45594000000E+02  0.51100000000E-03 0.  1.
         11   -1    0    0    0    0 -0.00000000000E+00 -0.00000000000E+00 -0.45593999997E+02  0.45594000000E+02  0.51100000000E-03 0. -1.
    9900012    2    1    2    0    0 -0.84723636503E+01 -0.36740654034E+02  0.21493403184E+02  0.47787274371E+02  0.20000015169E+02 0.  0.
         12    1    1    2    0    0  0.84723636503E+01  0.36740654034E+02 -0.21493403184E+02  0.43400725629E+02  0.00000000000E+00 0. -1.
         11    1    3    3    0    0 -0.76263219778E+01 -0.14808225358E+02  0.15172885634E+02  0.22531328942E+02  0.51100000000E-03 0. -1.
        -11    1    3    3    0    0 -0.52664571549E+01 -0.17143171718E+02  0.45368139735E+01  0.18498826687E+02  0.51100000000E-03 0.  1.
         12    1    3    3    0    0  0.44204154825E+01 -0.47892569583E+01  0.17837035761E+01  0.67571187423E+01  0.00000000000E+00 0. -1.
</event>
<event>
 7    1  0.2682317E-010  0.4778727E+02  0.7816164E-02  0.1312668E+00
        -11   -1    0    0    0    0  0.00000000000E+00  0.00000000000E+00  0.45593999997E+02  0.45594000000E+02  0.51100000000E-03 0.  1.
         11   -1    0    0    0    0 -0.00000000000E+00 -0.00000000000E+00 -0.45593999997E+02  0.45594000000E+02  0.51100000000E-03 0. -1.
    9900012    2    1    2    0    0 -0.86981618289E+01  0.28803012592E+02  0.31278616732E+02  0.47787269382E+02  0.19999992419E+02 0.  0.
         12    1    1    2    0    0  0.86981618289E+01 -0.28803012592E+02 -0.31278616732E+02  0.43400730618E+02  0.00000000000E+00 0. -1.
         11    1    3    3    0    0  0.25569333503E+00  0.96152208785E+00 -0.11694598962E+01  0.15354284474E+01  0.51100000000E-03 0. -1.
        -11    1    3    3    0    0 -0.88907516521E+01  0.18258935532E+02  0.11798283521E+02  0.23486883276E+02  0.51100000000E-03 0.  1.
        -12    1    3    3    0    0 -0.63103511813E-01  0.95825549713E+01  0.20649793107E+02  0.22764957658E+02  0.00000000000E+00 0.  1.
</event>
<event>
 7    1  0.2682317E-010  0.4778726E+02  0.7816164E-02  0.1312668E+00
        -11   -1    0    0    0    0  0.00000000000E+00  0.00000000000E+00  0.45593999997E+02  0.45594000000E+02  0.51100000000E-03 0. -1.
         11   -1    0    0    0    0 -0.00000000000E+00 -0.00000000000E+00 -0.45593999997E+02  0.45594000000E+02  0.51100000000E-03 0.  1.
    9900012    2    1    2    0    0 -0.12280458308E+01  0.36524368557E+02 -0.23411244773E+02  0.47787262945E+02  0.19999963072E+02 0.  0.
         12    1    1    2    0    0  0.12280458308E+01 -0.36524368557E+02  0.23411244773E+02  0.43400737055E+02  0.00000000000E+00 0. -1.
         11    1    3    3    0    0 -0.17531468917E+00  0.27375139697E+01 -0.87670151039E+01  0.91861456590E+01  0.51100000000E-03 0. -1.
        -11    1    3    3    0    0  0.93155791563E+00  0.18150573356E+02 -0.13794315553E+02  0.22816534687E+02  0.51100000000E-03 0.  1.
        -12    1    3    3    0    0 -0.19842890572E+01  0.15636281232E+02 -0.84991411623E+00  0.15784582599E+02  0.00000000000E+00 0.  1.
</event>
<event>
 7    1  0.2682317E-010  0.4778727E+02  0.7816164E-02  0.1312668E+00
        -11   -1    0    0    0    0  0.00000000000E+00  0.00000000000E+00  0.45593999997E+02  0.45594000000E+02  0.51100000000E-03 0.  1.
         11   -1    0    0    0    0 -0.00000000000E+00 -0.00000000000E+00 -0.45593999997E+02  0.45594000000E+02  0.51100000000E-03 0. -1.
    9900012    2    1    2    0    0 -0.36023588183E+02 -0.30497464826E+01  0.24012982993E+02  0.47787271764E+02  0.20000003282E+02 0.  0.
         12    1    1    2    0    0  0.36023588183E+02  0.30497464826E+01 -0.24012982993E+02  0.43400728236E+02  0.00000000000E+00 0. -1.
         11    1    3    3    0    0 -0.12820448711E+02 -0.60085814722E+01  0.46029909257E+01  0.14888065092E+02  0.51100000000E-03 0. -1.
        -11    1    3    3    0    0 -0.17214725546E+02 -0.17033266807E+01  0.76772283430E+01  0.18925853553E+02  0.51100000000E-03 0.  1.
         12    1    3    3    0    0 -0.59884139255E+01  0.46621616704E+01  0.11732763724E+02  0.13973353119E+02  0.00000000000E+00 0. -1.
</event>
<event>
 7    1  0.2682317E-010  0.4778727E+02  0.7816164E-02  0.1312668E+00
        -11   -1    0    0    0    0  0.00000000000E+00  0.00000000000E+00  0.45593999997E+02  0.45594000000E+02  0.51100000000E-03 0.  1.
         11   -1    0    0    0    0 -0.00000000000E+00 -0.00000000000E+00 -0.45593999997E+02  0.45594000000E+02  0.51100000000E-03 0. -1.
    9900012    2    1    2    0    0 -0.97374686030E+01  0.34401429010E+02  0.24603792225E+02  0.47787271843E+02  0.20000003641E+02 0.  0.
         12    1    1    2    0    0  0.97374686030E+01 -0.34401429010E+02 -0.24603792225E+02  0.43400728157E+02  0.00000000000E+00 0. -1.
         11    1    3    3    0    0 -0.62121619310E+01  0.18393382772E+02  0.15458836781E+02  0.24816992577E+02  0.51100000000E-03 0. -1.
        -11    1    3    3    0    0 -0.74539371388E+01  0.13809682345E+02  0.41222831175E+01  0.16225342021E+02  0.51100000000E-03 0.  1.
         12    1    3    3    0    0  0.39286304667E+01  0.21983638924E+01  0.50226723261E+01  0.67449372453E+01  0.00000000000E+00 0. -1.
</event>
<event>
 7    1  0.2682317E-010  0.4778728E+02  0.7816164E-02  0.1312668E+00
        -11   -1    0    0    0    0  0.00000000000E+00  0.00000000000E+00  0.45593999997E+02  0.45594000000E+02  0.51100000000E-03 0.  1.
         11   -1    0    0    0    0 -0.00000000000E+00 -0.00000000000E+00 -0.45593999997E+02  0.45594000000E+02  0.51100000000E-03 0. -1.
    9900012    2    1    2    0    0 -0.15952453463E+02  0.84893113399E+01  0.39459768040E+02  0.47787280279E+02  0.20000042103E+02 0.  0.
         12    1    1    2    0    0  0.15952453463E+02 -0.84893113399E+01 -0.39459768040E+02  0.43400719721E+02  0.00000000000E+00 0. -1.
         11    1    3    3    0    0 -0.37039631497E+01  0.92221576612E+00  0.43383476461E+01  0.57785020112E+01  0.51100000000E-03 0. -1.
        -11    1    3    3    0    0 -0.54761429875E+01  0.86491151714E+01  0.55342598730E+01  0.11637154630E+02  0.51100000000E-03 0.  1.
         12    1    3    3    0    0 -0.67723473259E+01 -0.10820195976E+01  0.29587160521E+02  0.30371623638E+02  0.00000000000E+00 0. -1.
</event>
<event>
 7    1  0.2682317E-010  0.4778727E+02  0.7816164E-02  0.1312668E+00
        -11   -1    0    0    0    0  0.00000000000E+00  0.00000000000E+00  0.45593999997E+02  0.45594000000E+02  0.51100000000E-03 0. -1.
         11   -1    0    0    0    0 -0.00000000000E+00 -0.00000000000E+00 -0.45593999997E+02  0.45594000000E+02  0.51100000000E-03 0.  1.
    9900012    2    1    2    0    0 -0.14006154038E+02 -0.16258690555E+02 -0.37724082252E+02  0.47787265545E+02  0.19999974925E+02 0.  0.
         12    1    1    2    0    0  0.14006154038E+02  0.16258690555E+02  0.37724082252E+02  0.43400734455E+02  0.00000000000E+00 0. -1.
         11    1    3    3    0    0 -0.20910722014E+01 -0.23661320125E+01 -0.18063978385E+01  0.36378890945E+01  0.51100000000E-03 0. -1.
        -11    1    3    3    0    0  0.15963752205E+01 -0.11743458441E+02 -0.18981548413E+02  0.22377587234E+02  0.51100000000E-03 0.  1.
        -12    1    3    3    0    0 -0.13511457057E+02 -0.21491001018E+01 -0.16936136001E+02  0.21771789216E+02  0.00000000000E+00 0.  1.
</event>
<event>
 7    1  0.2682317E-010  0.4778727E+02  0.7816164E-02  0.1312668E+00
        -11   -1    0    0    0    0  0.00000000000E+00  0.00000000000E+00  0.45593999997E+02  0.45594000000E+02  0.51100000000E-03 0.  1.
         11   -1    0    0    0    0 -0.00000000000E+00 -0.00000000000E+00 -0.45593999997E+02  0.45594000000E+02  0.51100000000E-03 0. -1.
    9900012    2    1    2    0    0  0.38160381574E+02  0.20670283125E+02 -0.38450905174E+00  0.47787272200E+02  0.20000005268E+02 0.  0.
         12    1    1    2    0    0 -0.38160381574E+02 -0.20670283125E+02  0.38450905174E+00  0.43400727800E+02  0.00000000000E+00 0. -1.
         11    1    3    3    0    0  0.15920906804E+02 -0.30000211240E+00  0.42343191508E+01  0.16477097246E+02  0.51100000000E-03 0. -1.
        -11    1    3    3    0    0  0.11314394325E+02  0.74052046478E+01 -0.13608443258E+01  0.13590602355E+02  0.51100000000E-03 0.  1.
        -12    1    3    3    0    0  0.10925080445E+02  0.13565080590E+02 -0.32579838768E+01  0.17719572599E+02  0.00000000000E+00 0.  1.
</event>
<event>
 7    1  0.2682317E-010  0.4778727E+02  0.7816164E-02  0.1312668E+00
        -11   -1    0    0    0    0  0.00000000000E+00  0.00000000000E+00  0.45593999997E+02  0.45594000000E+02  0.51100000000E-03 0. -1.
         11   -1    0    0    0    0 -0.00000000000E+00 -0.00000000000E+00 -0.45593999997E+02  0.45594000000E+02  0.51100000000E-03 0.  1.
    9900012    2    1    2    0    0  0.27910192483E+02 -0.32275485892E+02  0.79333052479E+01  0.47787272285E+02  0.20000005657E+02 0.  0.
         12    1    1    2    0    0 -0.27910192483E+02  0.32275485892E+02 -0.79333052479E+01  0.43400727715E+02  0.00000000000E+00 0. -1.
         11    1    3    3    0    0 -0.67297688471E+00 -0.24355316103E+01  0.21922814955E+01  0.33452668845E+01  0.51100000000E-03 0. -1.
        -11    1    3    3    0    0  0.64994311382E+01 -0.16209994957E+02 -0.14165394048E+01  0.17521790027E+02  0.51100000000E-03 0.  1.
        -12    1    3    3    0    0  0.22083738230E+02 -0.13629959325E+02  0.71575631572E+01  0.26920215374E+02  0.00000000000E+00 0.  1.
</event>
<event>
 7    1  0.2682317E-010  0.4778727E+02  0.7816164E-02  0.1312668E+00
        -11   -1    0    0    0    0  0.00000000000E+00  0.00000000000E+00  0.45593999997E+02  0.45594000000E+02  0.51100000000E-03 0.  1.
         11   -1    0    0    0    0 -0.00000000000E+00 -0.00000000000E+00 -0.45593999997E+02  0.45594000000E+02  0.51100000000E-03 0. -1.
    9900012    2    1    2    0    0 -0.10654677701E+02  0.16595631822E+02  0.38661170372E+02  0.47787271354E+02  0.20000001413E+02 0.  0.
         12    1    1    2    0    0  0.10654677701E+02 -0.16595631822E+02 -0.38661170372E+02  0.43400728646E+02  0.00000000000E+00 0. -1.
         11    1    3    3    0    0 -0.21593727355E+01  0.33038794910E+01  0.10950603576E+02  0.11640198849E+02  0.51100000000E-03 0. -1.
        -11    1    3    3    0    0 -0.83687817197E+01  0.15767426256E+02  0.28426758550E+02  0.33566781796E+02  0.51100000000E-03 0.  1.
         12    1    3    3    0    0 -0.12652324536E+00 -0.24756739250E+01 -0.71619175502E+00  0.25802907093E+01  0.00000000000E+00 0. -1.
</event>
<event>
 7    1  0.2682317E-010  0.4778727E+02  0.7816164E-02  0.1312668E+00
        -11   -1    0    0    0    0  0.00000000000E+00  0.00000000000E+00  0.45593999997E+02  0.45594000000E+02  0.51100000000E-03 0.  1.
         11   -1    0    0    0    0 -0.00000000000E+00 -0.00000000000E+00 -0.45593999997E+02  0.45594000000E+02  0.51100000000E-03 0. -1.
    9900012    2    1    2    0    0 -0.15082548842E+02  0.36473748482E+02  0.18050098268E+02  0.47787266649E+02  0.19999979962E+02 0.  0.
         12    1    1    2    0    0  0.15082548842E+02 -0.36473748482E+02 -0.18050098268E+02  0.43400733351E+02  0.00000000000E+00 0. -1.
         11    1    3    3    0    0 -0.58270890052E+00  0.42785688219E+01  0.10426857573E+02  0.11285612963E+02  0.51100000000E-03 0. -1.
        -11    1    3    3    0    0 -0.56098675662E+01  0.11593937491E+02  0.53587806930E+01  0.13950144495E+02  0.51100000000E-03 0.  1.
         12    1    3    3    0    0 -0.88899723751E+01  0.20601242169E+02  0.22644600019E+01  0.22551509192E+02  0.00000000000E+00 0. -1.
</event>
<event>
 7    1  0.2682317E-010  0.4778727E+02  0.7816164E-02  0.1312668E+00
        -11   -1    0    0    0    0  0.00000000000E+00  0.00000000000E+00  0.45593999997E+02  0.45594000000E+02  0.51100000000E-03 0.  1.
         11   -1    0    0    0    0 -0.00000000000E+00 -0.00000000000E+00 -0.45593999997E+02  0.45594000000E+02  0.51100000000E-03 0. -1.
    9900012    2    1    2    0    0  0.36226572125E+02  0.77202576992E+01  0.22619817546E+02  0.47787273593E+02  0.20000011620E+02 0.  0.
         12    1    1    2    0    0 -0.36226572125E+02 -0.77202576992E+01 -0.22619817546E+02  0.43400726407E+02  0.00000000000E+00 0. -1.
         11    1    3    3    0    0  0.21353329322E+02  0.56606403068E+01  0.18457511671E+02  0.28786928617E+02  0.51100000000E-03 0. -1.
        -11    1    3    3    0    0  0.40050679935E+01  0.15357230675E+00  0.65799514266E+01  0.77045386055E+01  0.51100000000E-03 0.  1.
         12    1    3    3    0    0  0.10868174809E+02  0.19060450857E+01 -0.24176455525E+01  0.11295806371E+02  0.00000000000E+00 0. -1.
</event>
<event>
 7    1  0.2682317E-010  0.4778727E+02  0.7816164E-02  0.1312668E+00
        -11   -1    0    0    0    0  0.00000000000E+00  0.00000000000E+00  0.45593999997E+02  0.45594000000E+02  0.51100000000E-03 0.  1.
         11   -1    0    0    0    0 -0.00000000000E+00 -0.00000000000E+00 -0.45593999997E+02  0.45594000000E+02  0.51100000000E-03 0. -1.
    9900012    2    1    2    0    0  0.40834988014E+02  0.14135700455E+02  0.40384650379E+01  0.47787268747E+02  0.19999989525E+02 0.  0.
         12    1    1    2    0    0 -0.40834988014E+02 -0.14135700455E+02 -0.40384650379E+01  0.43400731253E+02  0.00000000000E+00 0. -1.
         11    1    3    3    0    0 -0.14120524342E+01 -0.27963534221E+00  0.38434682258E+00  0.14899029306E+01  0.51100000000E-03 0. -1.
        -11    1    3    3    0    0  0.86404978473E+01  0.18351089860E+01  0.54312316230E+01  0.10369383070E+02  0.51100000000E-03 0.  1.
        -12    1    3    3    0    0  0.33606542601E+02  0.12580226811E+02 -0.17771134077E+01  0.35927982747E+02  0.00000000000E+00 0.  1.
</event>
<event>
 7    1  0.2682317E-010  0.4778727E+02  0.7816164E-02  0.1312668E+00
        -11   -1    0    0    0    0  0.00000000000E+00  0.00000000000E+00  0.45593999997E+02  0.45594000000E+02  0.51100000000E-03 0. -1.
         11   -1    0    0    0    0 -0.00000000000E+00 -0.00000000000E+00 -0.45593999997E+02  0.45594000000E+02  0.51100000000E-03 0.  1.
    9900012    2    1    2    0    0 -0.17872895625E+02  0.28830408220E+02 -0.27073798536E+02  0.47787269553E+02  0.19999993201E+02 0.  0.
         12    1    1    2    0    0  0.17872895625E+02 -0.28830408220E+02  0.27073798536E+02  0.43400730447E+02  0.00000000000E+00 0. -1.
         11    1    3    3    0    0 -0.14633424310E+02  0.91060232414E+01 -0.13014128407E+02  0.21596858679E+02  0.51100000000E-03 0. -1.
        -11    1    3    3    0    0 -0.57169062226E+01  0.13796636270E+02 -0.12743619015E+02  0.19632371609E+02  0.51100000000E-03 0.  1.
        -12    1    3    3    0    0  0.24774349080E+01  0.59277487085E+01 -0.13160511133E+01  0.65580392655E+01  0.00000000000E+00 0.  1.
</event>
<event>
 7    1  0.2682317E-010  0.4778727E+02  0.7816164E-02  0.1312668E+00
        -11   -1    0    0    0    0  0.00000000000E+00  0.00000000000E+00  0.45593999997E+02  0.45594000000E+02  0.51100000000E-03 0. -1.
         11   -1    0    0    0    0 -0.00000000000E+00 -0.00000000000E+00 -0.45593999997E+02  0.45594000000E+02  0.51100000000E-03 0.  1.
    9900012    2    1    2    0    0 -0.27064886983E+02 -0.31737620207E+02 -0.11993276820E+02  0.47787270366E+02  0.19999996909E+02 0.  0.
         12    1    1    2    0    0  0.27064886983E+02  0.31737620207E+02  0.11993276820E+02  0.43400729634E+02  0.00000000000E+00 0. -1.
         11    1    3    3    0    0 -0.36869553754E+01 -0.16306907273E+01  0.39238378848E+01  0.56257707202E+01  0.51100000000E-03 0.  1.
        -11    1    3    3    0    0 -0.99125231139E+00  0.38488466209E+00 -0.11159492313E+01  0.15414474677E+01  0.51100000000E-03 0. -1.
        -12    1    3    3    0    0 -0.22386679297E+02 -0.30491814142E+02 -0.14801165474E+02  0.40620052179E+02  0.00000000000E+00 0.  1.
</event>
<event>
 7    1  0.2682317E-010  0.4778727E+02  0.7816164E-02  0.1312668E+00
        -11   -1    0    0    0    0  0.00000000000E+00  0.00000000000E+00  0.45593999997E+02  0.45594000000E+02  0.51100000000E-03 0. -1.
         11   -1    0    0    0    0 -0.00000000000E+00 -0.00000000000E+00 -0.45593999997E+02  0.45594000000E+02  0.51100000000E-03 0.  1.
    9900012    2    1    2    0    0  0.27831375125E+01  0.41733024113E+02 -0.11585854985E+02  0.47787271990E+02  0.20000004313E+02 0.  0.
         12    1    1    2    0    0 -0.27831375125E+01 -0.41733024113E+02  0.11585854985E+02  0.43400728010E+02  0.00000000000E+00 0. -1.
         11    1    3    3    0    0 -0.41767975996E+01  0.27536489860E+01  0.26476246590E+00  0.50098223871E+01  0.51100000000E-03 0. -1.
        -11    1    3    3    0    0  0.66963678738E+01  0.22376819942E+02 -0.11808870756E+02  0.26172749993E+02  0.51100000000E-03 0.  1.
         12    1    3    3    0    0  0.26356723827E+00  0.16602555185E+02 -0.41746695346E-01  0.16604699610E+02  0.00000000000E+00 0. -1.
</event>
<event>
 7    1  0.2682317E-010  0.4778727E+02  0.7816164E-02  0.1312668E+00
        -11   -1    0    0    0    0  0.00000000000E+00  0.00000000000E+00  0.45593999997E+02  0.45594000000E+02  0.51100000000E-03 0.  1.
         11   -1    0    0    0    0 -0.00000000000E+00 -0.00000000000E+00 -0.45593999997E+02  0.45594000000E+02  0.51100000000E-03 0. -1.
    9900012    2    1    2    0    0 -0.17192604200E+02  0.22184113298E+02  0.33104428154E+02  0.47787266303E+02  0.19999978382E+02 0.  0.
         12    1    1    2    0    0  0.17192604200E+02 -0.22184113298E+02 -0.33104428154E+02  0.43400733697E+02  0.00000000000E+00 0. -1.
         11    1    3    3    0    0 -0.12120945561E+02  0.11076542733E+02  0.22688347721E+02  0.28006574992E+02  0.51100000000E-03 0. -1.
        -11    1    3    3    0    0 -0.29078920315E+01  0.12009699319E+02  0.11776965656E+02  0.17070021504E+02  0.51100000000E-03 0.  1.
         12    1    3    3    0    0 -0.21637666069E+01 -0.90212875355E+00 -0.13608852225E+01  0.27106698076E+01  0.00000000000E+00 0. -1.
</event>
<event>
 7    1  0.2682317E-010  0.4778727E+02  0.7816164E-02  0.1312668E+00
        -11   -1    0    0    0    0  0.00000000000E+00  0.00000000000E+00  0.45593999997E+02  0.45594000000E+02  0.51100000000E-03 0.  1.
         11   -1    0    0    0    0 -0.00000000000E+00 -0.00000000000E+00 -0.45593999997E+02  0.45594000000E+02  0.51100000000E-03 0. -1.
    9900012    2    1    2    0    0  0.14511860395E+00  0.43393986398E+02  0.75106845703E+00  0.47787271680E+02  0.20000002897E+02 0.  0.
         12    1    1    2    0    0 -0.14511860395E+00 -0.43393986398E+02 -0.75106845703E+00  0.43400728320E+02  0.00000000000E+00 0. -1.
         11    1    3    3    0    0 -0.14765838972E+01  0.12390303077E+01 -0.36353260291E+01  0.41147407826E+01  0.51100000000E-03 0. -1.
        -11    1    3    3    0    0 -0.42405715995E+01  0.18669851430E+02  0.46347090743E+00  0.19150994894E+02  0.51100000000E-03 0.  1.
         12    1    3    3    0    0  0.58622741006E+01  0.23485104660E+02  0.39229235787E+01  0.24521536003E+02  0.00000000000E+00 0. -1.
</event>
<event>
 7    1  0.2682317E-010  0.4778728E+02  0.7816164E-02  0.1312668E+00
        -11   -1    0    0    0    0  0.00000000000E+00  0.00000000000E+00  0.45593999997E+02  0.45594000000E+02  0.51100000000E-03 0. -1.
         11   -1    0    0    0    0 -0.00000000000E+00 -0.00000000000E+00 -0.45593999997E+02  0.45594000000E+02  0.51100000000E-03 0.  1.
    9900012    2    1    2    0    0 -0.14424432600E+02 -0.39734924255E+02  0.98333323477E+01  0.47787275508E+02  0.20000020352E+02 0.  0.
         12    1    1    2    0    0  0.14424432600E+02  0.39734924255E+02 -0.98333323477E+01  0.43400724492E+02  0.00000000000E+00 0. -1.
         11    1    3    3    0    0 -0.28134780842E+01 -0.41408257535E+01  0.74459046853E+01  0.89723794890E+01  0.51100000000E-03 0. -1.
        -11    1    3    3    0    0 -0.38052484486E+01 -0.29990710129E+01  0.21418895174E+01  0.52973610093E+01  0.51100000000E-03 0.  1.
        -12    1    3    3    0    0 -0.78057060676E+01 -0.32595027488E+02  0.24553814492E+00  0.33517535010E+02  0.00000000000E+00 0.  1.
</event>
<event>
 7    1  0.2682317E-010  0.4778727E+02  0.7816164E-02  0.1312668E+00
        -11   -1    0    0    0    0  0.00000000000E+00  0.00000000000E+00  0.45593999997E+02  0.45594000000E+02  0.51100000000E-03 0.  1.
         11   -1    0    0    0    0 -0.00000000000E+00 -0.00000000000E+00 -0.45593999997E+02  0.45594000000E+02  0.51100000000E-03 0. -1.
    9900012    2    1    2    0    0 -0.23603988151E+02  0.18874074230E+02  0.31148742763E+02  0.47787272928E+02  0.20000008588E+02 0.  0.
         12    1    1    2    0    0  0.23603988151E+02 -0.18874074230E+02 -0.31148742763E+02  0.43400727072E+02  0.00000000000E+00 0. -1.
         11    1    3    3    0    0 -0.55832336059E+01  0.12876457276E+02  0.10101465249E+02  0.17292057423E+02  0.51100000000E-03 0. -1.
        -11    1    3    3    0    0 -0.68624303269E+01  0.81987518527E+01  0.99763366156E+01  0.14623261417E+02  0.51100000000E-03 0.  1.
        -12    1    3    3    0    0 -0.11158324218E+02 -0.22011348993E+01  0.11070940898E+02  0.15871954088E+02  0.00000000000E+00 0.  1.
</event>
<event>
 7    1  0.2682317E-010  0.4778727E+02  0.7816164E-02  0.1312668E+00
        -11   -1    0    0    0    0  0.00000000000E+00  0.00000000000E+00  0.45593999997E+02  0.45594000000E+02  0.51100000000E-03 0. -1.
         11   -1    0    0    0    0 -0.00000000000E+00 -0.00000000000E+00 -0.45593999997E+02  0.45594000000E+02  0.51100000000E-03 0.  1.
    9900012    2    1    2    0    0  0.38784038064E+02  0.80311936018E+01  0.17746042218E+02  0.47787266209E+02  0.19999977952E+02 0.  0.
         12    1    1    2    0    0 -0.38784038064E+02 -0.80311936018E+01 -0.17746042218E+02  0.43400733791E+02  0.00000000000E+00 0. -1.
         11    1    3    3    0    0  0.13232756868E+02  0.45993986783E+00  0.54285942219E+01  0.14310382053E+02  0.51100000000E-03 0. -1.
        -11    1    3    3    0    0  0.16347005723E+02 -0.29186358957E+01  0.35035525251E+01  0.16971090482E+02  0.51100000000E-03 0.  1.
         12    1    3    3    0    0  0.92042754729E+01  0.10489889630E+02  0.88138954710E+01  0.16505793674E+02  0.00000000000E+00 0. -1.
</event>
<event>
 7    1  0.2682317E-010  0.4778726E+02  0.7816164E-02  0.1312668E+00
        -11   -1    0    0    0    0  0.00000000000E+00  0.00000000000E+00  0.45593999997E+02  0.45594000000E+02  0.51100000000E-03 0.  1.
         11   -1    0    0    0    0 -0.00000000000E+00 -0.00000000000E+00 -0.45593999997E+02  0.45594000000E+02  0.51100000000E-03 0. -1.
    9900012    2    1    2    0    0  0.66019001925E+01  0.40753528634E+02  0.13386155244E+02  0.47787258826E+02  0.19999944290E+02 0.  0.
         12    1    1    2    0    0 -0.66019001925E+01 -0.40753528634E+02 -0.13386155244E+02  0.43400741174E+02  0.00000000000E+00 0. -1.
         11    1    3    3    0    0  0.16735415664E+01  0.14690514436E+01  0.18409346094E+01  0.28892722294E+01  0.51100000000E-03 0. -1.
        -11    1    3    3    0    0  0.14797254023E+01  0.22647879601E+02 -0.25274898141E+01  0.22836467386E+02  0.51100000000E-03 0.  1.
        -12    1    3    3    0    0  0.34486332239E+01  0.16636597589E+02  0.14072710449E+02  0.22061519210E+02  0.00000000000E+00 0.  1.
</event>
<event>
 7    1  0.2682317E-010  0.4778728E+02  0.7816164E-02  0.1312668E+00
        -11   -1    0    0    0    0  0.00000000000E+00  0.00000000000E+00  0.45593999997E+02  0.45594000000E+02  0.51100000000E-03 0.  1.
         11   -1    0    0    0    0 -0.00000000000E+00 -0.00000000000E+00 -0.45593999997E+02  0.45594000000E+02  0.51100000000E-03 0. -1.
    9900012    2    1    2    0    0  0.28645684170E+02  0.15129837291E+02  0.28881403958E+02  0.47787277741E+02  0.20000030532E+02 0.  0.
         12    1    1    2    0    0 -0.28645684170E+02 -0.15129837291E+02 -0.28881403958E+02  0.43400722259E+02  0.00000000000E+00 0. -1.
         11    1    3    3    0    0  0.58977528194E+01  0.61495708910E+01  0.17307988205E+02  0.19291634623E+02  0.51100000000E-03 0.  1.
        -11    1    3    3    0    0 -0.65148179970E+00 -0.71430953447E-01  0.11577332996E+01  0.13303674570E+01  0.51100000000E-03 0. -1.
        -12    1    3    3    0    0  0.23399413150E+02  0.90516973531E+01  0.10415682453E+02  0.27165275661E+02  0.00000000000E+00 0.  1.
</event>
<event>
 7    1  0.2682317E-010  0.4778728E+02  0.7816164E-02  0.1312668E+00
        -11   -1    0    0    0    0  0.00000000000E+00  0.00000000000E+00  0.45593999997E+02  0.45594000000E+02  0.51100000000E-03 0. -1.
         11   -1    0    0    0    0 -0.00000000000E+00 -0.00000000000E+00 -0.45593999997E+02  0.45594000000E+02  0.51100000000E-03 0.  1.
    9900012    2    1    2    0    0  0.23789538518E+02 -0.28369026746E+02 -0.22646828865E+02  0.47787277897E+02  0.20000031244E+02 0.  0.
         12    1    1    2    0    0 -0.23789538518E+02  0.28369026746E+02  0.22646828865E+02  0.43400722103E+02  0.00000000000E+00 0. -1.
         11    1    3    3    0    0  0.12254795925E+01 -0.47811531602E+01 -0.93300212939E+01  0.10555118350E+02  0.51100000000E-03 0. -1.
        -11    1    3    3    0    0  0.11855446468E+02 -0.16435337779E+02 -0.13505705473E+02  0.24353152146E+02  0.51100000000E-03 0.  1.
         12    1    3    3    0    0  0.10708612457E+02 -0.71525358068E+01  0.18889790120E+00  0.12879007401E+02  0.00000000000E+00 0. -1.
</event>
<event>
 7    1  0.2682317E-010  0.4778730E+02  0.7816164E-02  0.1312668E+00
        -11   -1    0    0    0    0  0.00000000000E+00  0.00000000000E+00  0.45593999997E+02  0.45594000000E+02  0.51100000000E-03 0. -1.
         11   -1    0    0    0    0 -0.00000000000E+00 -0.00000000000E+00 -0.45593999997E+02  0.45594000000E+02  0.51100000000E-03 0.  1.
    9900012    2    1    2    0    0 -0.39894633285E+02  0.17019464839E+02 -0.15417225650E+01  0.47787298891E+02  0.20000126961E+02 0.  0.
         12    1    1    2    0    0  0.39894633285E+02 -0.17019464839E+02  0.15417225650E+01  0.43400701109E+02  0.00000000000E+00 0. -1.
         11    1    3    3    0    0 -0.26949843345E+01  0.15893791119E+01  0.25869191378E+01  0.40597065671E+01  0.51100000000E-03 0. -1.
        -11    1    3    3    0    0 -0.34617494136E+02  0.82111075584E+01 -0.53038568320E+01  0.35971156294E+02  0.51100000000E-03 0.  1.
         12    1    3    3    0    0 -0.25821548146E+01  0.72189781682E+01  0.11752151292E+01  0.77564360295E+01  0.00000000000E+00 0. -1.
</event>
<event>
 7    1  0.2682317E-010  0.4778727E+02  0.7816164E-02  0.1312668E+00
        -11   -1    0    0    0    0  0.00000000000E+00  0.00000000000E+00  0.45593999997E+02  0.45594000000E+02  0.51100000000E-03 0. -1.
         11   -1    0    0    0    0 -0.00000000000E+00 -0.00000000000E+00 -0.45593999997E+02  0.45594000000E+02  0.51100000000E-03 0.  1.
    9900012    2    1    2    0    0 -0.16325752574E+02  0.43158708468E+01 -0.39980824511E+02  0.47787271125E+02  0.20000000369E+02 0.  0.
         12    1    1    2    0    0  0.16325752574E+02 -0.43158708468E+01  0.39980824511E+02  0.43400728875E+02  0.00000000000E+00 0. -1.
         11    1    3    3    0    0 -0.73903976601E+01  0.24108618833E+01 -0.54616017116E+01  0.95004908353E+01  0.51100000000E-03 0. -1.
        -11    1    3    3    0    0 -0.82645508591E+01 -0.48965669140E+01 -0.17847267141E+02  0.20268303163E+02  0.51100000000E-03 0.  1.
        -12    1    3    3    0    0 -0.67080405443E+00  0.68015758776E+01 -0.16671955658E+02  0.18018477127E+02  0.00000000000E+00 0.  1.
</event>
<event>
 7    1  0.2682317E-010  0.4778727E+02  0.7816164E-02  0.1312668E+00
        -11   -1    0    0    0    0  0.00000000000E+00  0.00000000000E+00  0.45593999997E+02  0.45594000000E+02  0.51100000000E-03 0.  1.
         11   -1    0    0    0    0 -0.00000000000E+00 -0.00000000000E+00 -0.45593999997E+02  0.45594000000E+02  0.51100000000E-03 0. -1.
    9900012    2    1    2    0    0 -0.20905866919E+02  0.82324235639E+01  0.37132132687E+02  0.47787270199E+02  0.19999996145E+02 0.  0.
         12    1    1    2    0    0  0.20905866919E+02 -0.82324235639E+01 -0.37132132687E+02  0.43400729801E+02  0.00000000000E+00 0. -1.
         11    1    3    3    0    0 -0.21936051753E+01  0.77167601678E+00  0.15210791785E+02  0.15387513591E+02  0.51100000000E-03 0. -1.
        -11    1    3    3    0    0 -0.56161269153E+00 -0.91834699698E+00  0.79202810984E+01  0.79930984581E+01  0.51100000000E-03 0.  1.
         12    1    3    3    0    0 -0.18150649052E+02  0.83790945441E+01  0.14001059804E+02  0.24406658149E+02  0.00000000000E+00 0. -1.
</event>
<event>
 7    1  0.2682317E-010  0.4778727E+02  0.7816164E-02  0.1312668E+00
        -11   -1    0    0    0    0  0.00000000000E+00  0.00000000000E+00  0.45593999997E+02  0.45594000000E+02  0.51100000000E-03 0.  1.
         11   -1    0    0    0    0 -0.00000000000E+00 -0.00000000000E+00 -0.45593999997E+02  0.45594000000E+02  0.51100000000E-03 0. -1.
    9900012    2    1    2    0    0 -0.13588877106E+02  0.24941161930E+01  0.41142981325E+02  0.47787272945E+02  0.20000008667E+02 0.  0.
         12    1    1    2    0    0  0.13588877106E+02 -0.24941161930E+01 -0.41142981325E+02  0.43400727055E+02  0.00000000000E+00 0. -1.
         11    1    3    3    0    0 -0.35072106674E+01 -0.42893828106E+01  0.33804216035E+01  0.64904993676E+01  0.51100000000E-03 0. -1.
        -11    1    3    3    0    0 -0.89967149846E+01  0.67379070400E+00  0.30175280562E+02  0.31495117585E+02  0.51100000000E-03 0.  1.
        -12    1    3    3    0    0 -0.10849514541E+01  0.61097082996E+01  0.75872791593E+01  0.98016559930E+01  0.00000000000E+00 0.  1.
</event>
<event>
 7    1  0.2682317E-010  0.4778727E+02  0.7816164E-02  0.1312668E+00
        -11   -1    0    0    0    0  0.00000000000E+00  0.00000000000E+00  0.45593999997E+02  0.45594000000E+02  0.51100000000E-03 0. -1.
         11   -1    0    0    0    0 -0.00000000000E+00 -0.00000000000E+00 -0.45593999997E+02  0.45594000000E+02  0.51100000000E-03 0.  1.
    9900012    2    1    2    0    0  0.62514135448E+01  0.42925752102E+02  0.13866418048E+01  0.47787272583E+02  0.20000007014E+02 0.  0.
         12    1    1    2    0    0 -0.62514135448E+01 -0.42925752102E+02 -0.13866418048E+01  0.43400727417E+02  0.00000000000E+00 0. -1.
         11    1    3    3    0    0  0.11044981127E+02  0.31940818505E+02  0.24321045000E+01  0.33883958261E+02  0.51100000000E-03 0. -1.
        -11    1    3    3    0    0 -0.65067419219E+00  0.72941955499E+01 -0.31463450472E+01  0.79704550084E+01  0.51100000000E-03 0.  1.
        -12    1    3    3    0    0 -0.41428933904E+01  0.36907380475E+01  0.21008823519E+01  0.59328593137E+01  0.00000000000E+00 0.  1.
</event>
<event>
 7    1  0.2682317E-010  0.4778727E+02  0.7816164E-02  0.1312668E+00
        -11   -1    0    0    0    0  0.00000000000E+00  0.00000000000E+00  0.45593999997E+02  0.45594000000E+02  0.51100000000E-03 0.  1.
         11   -1    0    0    0    0 -0.00000000000E+00 -0.00000000000E+00 -0.45593999997E+02  0.45594000000E+02  0.51100000000E-03 0. -1.
    9900012    2    1    2    0    0 -0.28984668292E+02  0.29937787085E+02 -0.12134295266E+02  0.47787271744E+02  0.20000003188E+02 0.  0.
         12    1    1    2    0    0  0.28984668292E+02 -0.29937787085E+02  0.12134295266E+02  0.43400728256E+02  0.00000000000E+00 0. -1.
         11    1    3    3    0    0 -0.26222849140E+02  0.24145586037E+02 -0.15492693004E+02  0.38867347207E+02  0.51100000000E-03 0. -1.
        -11    1    3    3    0    0 -0.40012994196E+01  0.47435551072E+01  0.13741534276E+01  0.63561002198E+01  0.51100000000E-03 0.  1.
        -12    1    3    3    0    0  0.12394802677E+01  0.10486459408E+01  0.19842443107E+01  0.25638243168E+01  0.00000000000E+00 0.  1.
</event>
<event>
 7    1  0.2682317E-010  0.4778727E+02  0.7816164E-02  0.1312668E+00
        -11   -1    0    0    0    0  0.00000000000E+00  0.00000000000E+00  0.45593999997E+02  0.45594000000E+02  0.51100000000E-03 0.  1.
         11   -1    0    0    0    0 -0.00000000000E+00 -0.00000000000E+00 -0.45593999997E+02  0.45594000000E+02  0.51100000000E-03 0. -1.
    9900012    2    1    2    0    0 -0.29863045225E+02 -0.23066736418E+02  0.21441723703E+02  0.47787270578E+02  0.19999997871E+02 0.  0.
         12    1    1    2    0    0  0.29863045225E+02  0.23066736418E+02 -0.21441723703E+02  0.43400729422E+02  0.00000000000E+00 0. -1.
         11    1    3    3    0    0 -0.35894348631E+01 -0.11159269671E+02  0.30093320019E+01  0.12102455188E+02  0.51100000000E-03 0. -1.
        -11    1    3    3    0    0 -0.13622394046E+02 -0.11310118924E+02  0.87946156384E+01  0.19769513755E+02  0.51100000000E-03 0.  1.
        -12    1    3    3    0    0 -0.12651216315E+02 -0.59734782293E+00  0.96377760624E+01  0.15915301634E+02  0.00000000000E+00 0.  1.
</event>
<event>
 7    1  0.3295435E-010  0.4778727E+02  0.7816164E-02  0.1312668E+00
        -11   -1    0    0    0    0  0.00000000000E+00  0.00000000000E+00  0.45593999997E+02  0.45594000000E+02  0.51100000000E-03 0. -1.
         11   -1    0    0    0    0 -0.00000000000E+00 -0.00000000000E+00 -0.45593999997E+02  0.45594000000E+02  0.51100000000E-03 0.  1.
    9900012    2    1    2    0    0  0.69847262180E+01  0.16520033157E+02 -0.39521205885E+02  0.47787267167E+02  0.19999982323E+02 0.  0.
         12    1    1    2    0    0 -0.69847262180E+01 -0.16520033157E+02  0.39521205885E+02  0.43400732833E+02  0.00000000000E+00 0. -1.
         11    1    3    3    0    0  0.36033098393E+01 -0.62050031877E+00 -0.10055676257E+01  0.37921008629E+01  0.51100000000E-03 0. -1.
        -11    1    3    3    0    0 -0.20967415630E+01  0.65694480517E+01 -0.52618058325E+01  0.86741324504E+01  0.51100000000E-03 0.  1.
        -12    1    3    3    0    0  0.54781579417E+01  0.10571085424E+02 -0.33253832426E+02  0.35321033854E+02  0.00000000000E+00 0.  1.
</event>
<event>
 7    1  0.2682317E-010  0.4778726E+02  0.7816164E-02  0.1312668E+00
        -11   -1    0    0    0    0  0.00000000000E+00  0.00000000000E+00  0.45593999997E+02  0.45594000000E+02  0.51100000000E-03 0.  1.
         11   -1    0    0    0    0 -0.00000000000E+00 -0.00000000000E+00 -0.45593999997E+02  0.45594000000E+02  0.51100000000E-03 0. -1.
    9900012    2    1    2    0    0 -0.95621940415E+01  0.22859243737E+02  0.35632056262E+02  0.47787262535E+02  0.19999961200E+02 0.  0.
         12    1    1    2    0    0  0.95621940415E+01 -0.22859243737E+02 -0.35632056262E+02  0.43400737465E+02  0.00000000000E+00 0. -1.
         11    1    3    3    0    0  0.26965394955E+01  0.11668096961E+02  0.80579847099E+01  0.14434227717E+02  0.51100000000E-03 0. -1.
        -11    1    3    3    0    0 -0.63298020961E+01  0.10940365726E+02  0.16450386520E+02  0.20745438383E+02  0.51100000000E-03 0.  1.
         12    1    3    3    0    0 -0.59289314409E+01  0.25078105020E+00  0.11123685032E+02  0.12607596434E+02  0.00000000000E+00 0. -1.
</event>
<event>
 7    1  0.2682317E-010  0.4778726E+02  0.7816164E-02  0.1312668E+00
        -11   -1    0    0    0    0  0.00000000000E+00  0.00000000000E+00  0.45593999997E+02  0.45594000000E+02  0.51100000000E-03 0. -1.
         11   -1    0    0    0    0 -0.00000000000E+00 -0.00000000000E+00 -0.45593999997E+02  0.45594000000E+02  0.51100000000E-03 0.  1.
    9900012    2    1    2    0    0  0.17094704290E+02  0.39544960732E+02 -0.52527340408E+01  0.47787262115E+02  0.19999959287E+02 0.  0.
         12    1    1    2    0    0 -0.17094704290E+02 -0.39544960732E+02  0.52527340408E+01  0.43400737885E+02  0.00000000000E+00 0. -1.
         11    1    3    3    0    0  0.37367702067E+01  0.16042315099E+02 -0.45671666347E+01  0.17093224875E+02  0.51100000000E-03 0. -1.
        -11    1    3    3    0    0 -0.22498586206E+01  0.67687444553E+01 -0.29092771610E+01  0.77033537615E+01  0.51100000000E-03 0.  1.
         12    1    3    3    0    0  0.15607792704E+02  0.16733901178E+02  0.22237097549E+01  0.22990683478E+02  0.00000000000E+00 0. -1.
</event>
<event>
 7    1  0.2682317E-010  0.4778727E+02  0.7816164E-02  0.1312668E+00
        -11   -1    0    0    0    0  0.00000000000E+00  0.00000000000E+00  0.45593999997E+02  0.45594000000E+02  0.51100000000E-03 0. -1.
         11   -1    0    0    0    0 -0.00000000000E+00 -0.00000000000E+00 -0.45593999997E+02  0.45594000000E+02  0.51100000000E-03 0.  1.
    9900012    2    1    2    0    0 -0.43857842357E+01  0.20574674291E+02 -0.37961443099E+02  0.47787268581E+02  0.19999988767E+02 0.  0.
         12    1    1    2    0    0  0.43857842357E+01 -0.20574674291E+02  0.37961443099E+02  0.43400731419E+02  0.00000000000E+00 0. -1.
         11    1    3    3    0    0  0.28307105906E+01 -0.27978995112E+00 -0.76696248837E+01  0.81801192523E+01  0.51100000000E-03 0. -1.
        -11    1    3    3    0    0  0.14567574500E+01  0.10304417615E+01  0.60726580842E+00  0.18848672408E+01  0.51100000000E-03 0.  1.
        -12    1    3    3    0    0 -0.86732522763E+01  0.19824022481E+02 -0.30899084024E+02  0.37722282088E+02  0.00000000000E+00 0.  1.
</event>
<event>
 7    1  0.2682317E-010  0.4778726E+02  0.7816164E-02  0.1312668E+00
        -11   -1    0    0    0    0  0.00000000000E+00  0.00000000000E+00  0.45593999997E+02  0.45594000000E+02  0.51100000000E-03 0.  1.
         11   -1    0    0    0    0 -0.00000000000E+00 -0.00000000000E+00 -0.45593999997E+02  0.45594000000E+02  0.51100000000E-03 0. -1.
    9900012    2    1    2    0    0  0.88274098421E+01  0.16171469470E+02  0.39296111417E+02  0.47787263119E+02  0.19999963864E+02 0.  0.
         12    1    1    2    0    0 -0.88274098421E+01 -0.16171469470E+02 -0.39296111417E+02  0.43400736881E+02  0.00000000000E+00 0. -1.
         11    1    3    3    0    0  0.15215224077E+01  0.45029257269E+01  0.53930855603E+01  0.71886537447E+01  0.51100000000E-03 0. -1.
        -11    1    3    3    0    0  0.21595116800E+01  0.39504977309E+01  0.30322774737E+02  0.30655188648E+02  0.51100000000E-03 0.  1.
        -12    1    3    3    0    0  0.51463757544E+01  0.77180460126E+01  0.35802511193E+01  0.99434207261E+01  0.00000000000E+00 0.  1.
</event>
<event>
 7    1  0.2682317E-010  0.4778729E+02  0.7816164E-02  0.1312668E+00
        -11   -1    0    0    0    0  0.00000000000E+00  0.00000000000E+00  0.45593999997E+02  0.45594000000E+02  0.51100000000E-03 0.  1.
         11   -1    0    0    0    0 -0.00000000000E+00 -0.00000000000E+00 -0.45593999997E+02  0.45594000000E+02  0.51100000000E-03 0. -1.
    9900012    2    1    2    0    0 -0.23701469281E+02 -0.19926717047E+02  0.30410331067E+02  0.47787286481E+02  0.20000070381E+02 0.  0.
         12    1    1    2    0    0  0.23701469281E+02  0.19926717047E+02 -0.30410331067E+02  0.43400713519E+02  0.00000000000E+00 0. -1.
         11    1    3    3    0    0 -0.64291801422E+01 -0.65738286178E+01  0.62207367868E+01  0.11101673136E+02  0.51100000000E-03 0. -1.
        -11    1    3    3    0    0 -0.13868691144E+02 -0.16713939922E+02  0.15221315951E+02  0.26521403456E+02  0.51100000000E-03 0.  1.
         12    1    3    3    0    0 -0.34035979943E+01  0.33610514925E+01  0.89682783301E+01  0.10164209888E+02  0.00000000000E+00 0. -1.
</event>
<event>
 7    1  0.2682317E-010  0.4778727E+02  0.7816164E-02  0.1312668E+00
        -11   -1    0    0    0    0  0.00000000000E+00  0.00000000000E+00  0.45593999997E+02  0.45594000000E+02  0.51100000000E-03 0. -1.
         11   -1    0    0    0    0 -0.00000000000E+00 -0.00000000000E+00 -0.45593999997E+02  0.45594000000E+02  0.51100000000E-03 0.  1.
    9900012    2    1    2    0    0  0.31548385198E+02 -0.29744619010E+02  0.18921907238E+01  0.47787270116E+02  0.19999995768E+02 0.  0.
         12    1    1    2    0    0 -0.31548385198E+02  0.29744619010E+02 -0.18921907238E+01  0.43400729884E+02  0.00000000000E+00 0. -1.
         11    1    3    3    0    0  0.55934105346E+01 -0.99436580073E+01  0.47461125815E+01  0.12356705098E+02  0.51100000000E-03 0. -1.
        -11    1    3    3    0    0  0.20757734138E+02 -0.20478807546E+02  0.57912667223E+00  0.29165055684E+02  0.51100000000E-03 0.  1.
        -12    1    3    3    0    0  0.51972405256E+01  0.67784654319E+00 -0.34330485299E+01  0.62655093349E+01  0.00000000000E+00 0.  1.
</event>
<event>
 7    1  0.2682317E-010  0.4778727E+02  0.7816164E-02  0.1312668E+00
        -11   -1    0    0    0    0  0.00000000000E+00  0.00000000000E+00  0.45593999997E+02  0.45594000000E+02  0.51100000000E-03 0.  1.
         11   -1    0    0    0    0 -0.00000000000E+00 -0.00000000000E+00 -0.45593999997E+02  0.45594000000E+02  0.51100000000E-03 0. -1.
    9900012    2    1    2    0    0  0.51447798863E+01  0.36872677470E+02  0.22306052251E+02  0.47787273383E+02  0.20000010661E+02 0.  0.
         12    1    1    2    0    0 -0.51447798863E+01 -0.36872677470E+02 -0.22306052251E+02  0.43400726617E+02  0.00000000000E+00 0. -1.
         11    1    3    3    0    0  0.16938717961E+01  0.86255015178E+01  0.25500105211E+01  0.91526516384E+01  0.51100000000E-03 0. -1.
        -11    1    3    3    0    0 -0.31256158406E+01  0.18661405953E+02  0.19259726515E+02  0.26999159472E+02  0.51100000000E-03 0.  1.
        -12    1    3    3    0    0  0.65765239308E+01  0.95857699994E+01  0.49631521486E+00  0.11635462272E+02  0.00000000000E+00 0.  1.
</event>
<event>
 7    1  0.2682317E-010  0.4778727E+02  0.7816164E-02  0.1312668E+00
        -11   -1    0    0    0    0  0.00000000000E+00  0.00000000000E+00  0.45593999997E+02  0.45594000000E+02  0.51100000000E-03 0.  1.
         11   -1    0    0    0    0 -0.00000000000E+00 -0.00000000000E+00 -0.45593999997E+02  0.45594000000E+02  0.51100000000E-03 0. -1.
    9900012    2    1    2    0    0 -0.21542577509E+02 -0.36178693411E+02 -0.10518677467E+02  0.47787273297E+02  0.20000010272E+02 0.  0.
         12    1    1    2    0    0  0.21542577509E+02  0.36178693411E+02  0.10518677467E+02  0.43400726703E+02  0.00000000000E+00 0. -1.
         11    1    3    3    0    0 -0.12329765187E+02 -0.16309581604E+02 -0.88023274560E+01  0.22259975979E+02  0.51100000000E-03 0. -1.
        -11    1    3    3    0    0  0.42458596202E+00 -0.20246648126E+01 -0.45989803488E+01  0.50428326715E+01  0.51100000000E-03 0.  1.
        -12    1    3    3    0    0 -0.96373982841E+01 -0.17844446994E+02  0.28826303374E+01  0.20484464647E+02  0.00000000000E+00 0.  1.
</event>
<event>
 7    1  0.2682317E-010  0.4778726E+02  0.7816164E-02  0.1312668E+00
        -11   -1    0    0    0    0  0.00000000000E+00  0.00000000000E+00  0.45593999997E+02  0.45594000000E+02  0.51100000000E-03 0. -1.
         11   -1    0    0    0    0 -0.00000000000E+00 -0.00000000000E+00 -0.45593999997E+02  0.45594000000E+02  0.51100000000E-03 0.  1.
    9900012    2    1    2    0    0 -0.17485050837E+01 -0.43127386760E+02  0.45382642738E+01  0.47787255751E+02  0.19999930272E+02 0.  0.
         12    1    1    2    0    0  0.17485050837E+01  0.43127386760E+02 -0.45382642738E+01  0.43400744249E+02  0.00000000000E+00 0. -1.
         11    1    3    3    0    0  0.49575316837E+00 -0.22150302906E+01  0.38784126025E+01  0.44937973885E+01  0.51100000000E-03 0. -1.
        -11    1    3    3    0    0 -0.48247914037E+01 -0.74742534757E+01 -0.33732433945E+01  0.95142970507E+01  0.51100000000E-03 0.  1.
         12    1    3    3    0    0  0.25805331516E+01 -0.33438102993E+02  0.40330950658E+01  0.33779161312E+02  0.00000000000E+00 0. -1.
</event>
<event>
 7    1  0.2682317E-010  0.4778727E+02  0.7816164E-02  0.1312668E+00
        -11   -1    0    0    0    0  0.00000000000E+00  0.00000000000E+00  0.45593999997E+02  0.45594000000E+02  0.51100000000E-03 0.  1.
         11   -1    0    0    0    0 -0.00000000000E+00 -0.00000000000E+00 -0.45593999997E+02  0.45594000000E+02  0.51100000000E-03 0. -1.
    9900012    2    1    2    0    0  0.42488287050E+02  0.74767936185E+01 -0.47398724064E+01  0.47787269941E+02  0.19999994969E+02 0.  0.
         12    1    1    2    0    0 -0.42488287050E+02 -0.74767936185E+01  0.47398724064E+01  0.43400730059E+02  0.00000000000E+00 0. -1.
         11    1    3    3    0    0  0.11238634917E+02  0.89970981014E+01 -0.50931031040E+01  0.15270703603E+02  0.51100000000E-03 0. -1.
        -11    1    3    3    0    0  0.18473599540E+01 -0.24533157970E+01 -0.35084472418E+00  0.30910498995E+01  0.51100000000E-03 0.  1.
        -12    1    3    3    0    0  0.29402292179E+02  0.93301131405E+00  0.70407542177E+00  0.29425516439E+02  0.00000000000E+00 0.  1.
</event>
<event>
 7    1  0.2682317E-010  0.4778728E+02  0.7816164E-02  0.1312668E+00
        -11   -1    0    0    0    0  0.00000000000E+00  0.00000000000E+00  0.45593999997E+02  0.45594000000E+02  0.51100000000E-03 0. -1.
         11   -1    0    0    0    0 -0.00000000000E+00 -0.00000000000E+00 -0.45593999997E+02  0.45594000000E+02  0.51100000000E-03 0.  1.
    9900012    2    1    2    0    0  0.13230277831E+02 -0.23281314743E+02 -0.34154979315E+02  0.47787280194E+02  0.20000041719E+02 0.  0.
         12    1    1    2    0    0 -0.13230277831E+02  0.23281314743E+02  0.34154979315E+02  0.43400719806E+02  0.00000000000E+00 0. -1.
         11    1    3    3    0    0 -0.60918749406E+00 -0.72365264048E+01 -0.46510008144E+01  0.86238177536E+01  0.51100000000E-03 0.  1.
        -11    1    3    3    0    0 -0.14970646605E+01 -0.33021557778E+00  0.80873698531E+00  0.17332918675E+01  0.51100000000E-03 0. -1.
        -12    1    3    3    0    0  0.15336529985E+02 -0.15714572760E+02 -0.30312715486E+02  0.37430170573E+02  0.00000000000E+00 0.  1.
</event>
<event>
 7    1  0.2682317E-010  0.4778728E+02  0.7816164E-02  0.1312668E+00
        -11   -1    0    0    0    0  0.00000000000E+00  0.00000000000E+00  0.45593999997E+02  0.45594000000E+02  0.51100000000E-03 0.  1.
         11   -1    0    0    0    0 -0.00000000000E+00 -0.00000000000E+00 -0.45593999997E+02  0.45594000000E+02  0.51100000000E-03 0. -1.
    9900012    2    1    2    0    0 -0.15233602739E+02 -0.39746263192E+02  0.84731765014E+01  0.47787276387E+02  0.20000024357E+02 0.  0.
         12    1    1    2    0    0  0.15233602739E+02  0.39746263192E+02 -0.84731765014E+01  0.43400723613E+02  0.00000000000E+00 0. -1.
         11    1    3    3    0    0  0.33019354090E+00 -0.36287991962E+01 -0.10874941929E+01  0.38026116369E+01  0.51100000000E-03 0. -1.
        -11    1    3    3    0    0  0.17392054836E+01 -0.17009876125E+02  0.49216554595E+01  0.17792791074E+02  0.51100000000E-03 0.  1.
         12    1    3    3    0    0 -0.17303001763E+02 -0.19107587871E+02  0.46390152349E+01  0.26191873675E+02  0.00000000000E+00 0. -1.
</event>
<event>
 7    1  0.2682317E-010  0.4778727E+02  0.7816164E-02  0.1312668E+00
        -11   -1    0    0    0    0  0.00000000000E+00  0.00000000000E+00  0.45593999997E+02  0.45594000000E+02  0.51100000000E-03 0. -1.
         11   -1    0    0    0    0 -0.00000000000E+00 -0.00000000000E+00 -0.45593999997E+02  0.45594000000E+02  0.51100000000E-03 0.  1.
    9900012    2    1    2    0    0 -0.42249916901E+02 -0.93483228266E+01 -0.33431211355E+01  0.47787273316E+02  0.20000010355E+02 0.  0.
         12    1    1    2    0    0  0.42249916901E+02  0.93483228266E+01  0.33431211355E+01  0.43400726684E+02  0.00000000000E+00 0. -1.
         11    1    3    3    0    0 -0.14047338250E+01 -0.44478508148E+01  0.77733055482E+00  0.47287310182E+01  0.51100000000E-03 0. -1.
        -11    1    3    3    0    0 -0.21346910812E+02 -0.82580667991E+01 -0.42130560509E+01  0.23273076935E+02  0.51100000000E-03 0.  1.
         12    1    3    3    0    0 -0.19498272264E+02  0.33575947873E+01  0.92604360497E-01  0.19785465363E+02  0.00000000000E+00 0. -1.
</event>
<event>
 7    1  0.2682317E-010  0.4778727E+02  0.7816164E-02  0.1312668E+00
        -11   -1    0    0    0    0  0.00000000000E+00  0.00000000000E+00  0.45593999997E+02  0.45594000000E+02  0.51100000000E-03 0.  1.
         11   -1    0    0    0    0 -0.00000000000E+00 -0.00000000000E+00 -0.45593999997E+02  0.45594000000E+02  0.51100000000E-03 0. -1.
    9900012    2    1    2    0    0  0.35849439660E+02  0.12346223236E+02  0.21118987460E+02  0.47787272086E+02  0.20000004750E+02 0.  0.
         12    1    1    2    0    0 -0.35849439660E+02 -0.12346223236E+02 -0.21118987460E+02  0.43400727914E+02  0.00000000000E+00 0. -1.
         11    1    3    3    0    0  0.29345968706E+01  0.22736590762E+01  0.70894809007E+01  0.80026323226E+01  0.51100000000E-03 0.  1.
        -11    1    3    3    0    0  0.18873209536E+01  0.45283098741E+01  0.49839123672E+01  0.69933506592E+01  0.51100000000E-03 0. -1.
        -12    1    3    3    0    0  0.31027521836E+02  0.55442542858E+01  0.90455941921E+01  0.32791289104E+02  0.00000000000E+00 0.  1.
</event>
<event>
 7    1  0.2682317E-010  0.4778728E+02  0.7816164E-02  0.1312668E+00
        -11   -1    0    0    0    0  0.00000000000E+00  0.00000000000E+00  0.45593999997E+02  0.45594000000E+02  0.51100000000E-03 0.  1.
         11   -1    0    0    0    0 -0.00000000000E+00 -0.00000000000E+00 -0.45593999997E+02  0.45594000000E+02  0.51100000000E-03 0. -1.
    9900012    2    1    2    0    0 -0.72586110137E+01  0.41462553307E+02  0.10573173213E+02  0.47787277052E+02  0.20000027393E+02 0.  0.
         12    1    1    2    0    0  0.72586110137E+01 -0.41462553307E+02 -0.10573173213E+02  0.43400722948E+02  0.00000000000E+00 0. -1.
         11    1    3    3    0    0 -0.39859681343E+01  0.39770505033E+01  0.77622764551E+00  0.56839600889E+01  0.51100000000E-03 0. -1.
        -11    1    3    3    0    0 -0.57088363161E+00  0.21078463458E+02  0.13540154365E+02  0.25059196124E+02  0.51100000000E-03 0.  1.
        -12    1    3    3    0    0 -0.27017592478E+01  0.16407039345E+02 -0.37432087971E+01  0.17044120840E+02  0.00000000000E+00 0.  1.
</event>
<event>
 7    1  0.2682317E-010  0.4778728E+02  0.7816164E-02  0.1312668E+00
        -11   -1    0    0    0    0  0.00000000000E+00  0.00000000000E+00  0.45593999997E+02  0.45594000000E+02  0.51100000000E-03 0.  1.
         11   -1    0    0    0    0 -0.00000000000E+00 -0.00000000000E+00 -0.45593999997E+02  0.45594000000E+02  0.51100000000E-03 0. -1.
    9900012    2    1    2    0    0 -0.14721338437E+02  0.31979597651E+02  0.25381292600E+02  0.47787280129E+02  0.20000041418E+02 0.  0.
         12    1    1    2    0    0  0.14721338437E+02 -0.31979597651E+02 -0.25381292600E+02  0.43400719871E+02  0.00000000000E+00 0. -1.
         11    1    3    3    0    0 -0.58813925660E+01  0.12731419413E+02  0.66365830201E+01  0.15515284503E+02  0.51100000000E-03 0. -1.
        -11    1    3    3    0    0 -0.61983849797E+01  0.20333581335E+02  0.19968181916E+02  0.29165095501E+02  0.51100000000E-03 0.  1.
         12    1    3    3    0    0 -0.26415608915E+01 -0.10854030967E+01 -0.12234723361E+01  0.31069001244E+01  0.00000000000E+00 0. -1.
</event>
<event>
 7    1  0.2682317E-010  0.4778727E+02  0.7816164E-02  0.1312668E+00
        -11   -1    0    0    0    0  0.00000000000E+00  0.00000000000E+00  0.45593999997E+02  0.45594000000E+02  0.51100000000E-03 0.  1.
         11   -1    0    0    0    0 -0.00000000000E+00 -0.00000000000E+00 -0.45593999997E+02  0.45594000000E+02  0.51100000000E-03 0. -1.
    9900012    2    1    2    0    0 -0.24349549362E+02 -0.15103998665E+02 -0.32597422804E+02  0.47787270706E+02  0.19999998455E+02 0.  0.
         12    1    1    2    0    0  0.24349549362E+02  0.15103998665E+02  0.32597422804E+02  0.43400729294E+02  0.00000000000E+00 0. -1.
         11    1    3    3    0    0 -0.63924037416E+01 -0.59343756855E+01 -0.22133137508E+02  0.23789817498E+02  0.51100000000E-03 0. -1.
        -11    1    3    3    0    0 -0.69803271968E+01 -0.70104028944E+01 -0.75276768845E+01  0.12431276526E+02  0.51100000000E-03 0.  1.
        -12    1    3    3    0    0 -0.10976818424E+02 -0.21592200851E+01 -0.29366084118E+01  0.11566176682E+02  0.00000000000E+00 0.  1.
</event>
<event>
 7    1  0.2682317E-010  0.4778729E+02  0.7816164E-02  0.1312668E+00
        -11   -1    0    0    0    0  0.00000000000E+00  0.00000000000E+00  0.45593999997E+02  0.45594000000E+02  0.51100000000E-03 0.  1.
         11   -1    0    0    0    0 -0.00000000000E+00 -0.00000000000E+00 -0.45593999997E+02  0.45594000000E+02  0.51100000000E-03 0. -1.
    9900012    2    1    2    0    0  0.47600814693E+01  0.42536446687E+02 -0.71842687846E+01  0.47787292744E+02  0.20000098936E+02 0.  0.
         12    1    1    2    0    0 -0.47600814693E+01 -0.42536446687E+02  0.71842687846E+01  0.43400707256E+02  0.00000000000E+00 0. -1.
         11    1    3    3    0    0 -0.38053320593E+01  0.64514868341E+01 -0.46531171089E+01  0.88178077515E+01  0.51100000000E-03 0. -1.
        -11    1    3    3    0    0 -0.88890579021E+00 -0.54379932175E+00 -0.24956454777E+00  0.10715194496E+01  0.51100000000E-03 0.  1.
        -12    1    3    3    0    0  0.94543193187E+01  0.36628759175E+02 -0.22815871280E+01  0.37897965543E+02  0.00000000000E+00 0.  1.
</event>
<event>
 7    1  0.2682317E-010  0.4778726E+02  0.7816164E-02  0.1312668E+00
        -11   -1    0    0    0    0  0.00000000000E+00  0.00000000000E+00  0.45593999997E+02  0.45594000000E+02  0.51100000000E-03 0.  1.
         11   -1    0    0    0    0 -0.00000000000E+00 -0.00000000000E+00 -0.45593999997E+02  0.45594000000E+02  0.51100000000E-03 0. -1.
    9900012    2    1    2    0    0  0.18340010738E+02 -0.37808730183E+02  0.10852120979E+02  0.47787255747E+02  0.19999930254E+02 0.  0.
         12    1    1    2    0    0 -0.18340010738E+02  0.37808730183E+02 -0.10852120979E+02  0.43400744253E+02  0.00000000000E+00 0. -1.
         11    1    3    3    0    0  0.55089999676E+01  0.16008879855E+00  0.25702656506E+00  0.55173156501E+01  0.51100000000E-03 0. -1.
        -11    1    3    3    0    0  0.47003172491E+01 -0.55250425112E+01  0.36046990187E+01  0.81001810023E+01  0.51100000000E-03 0.  1.
        -12    1    3    3    0    0  0.81306935215E+01 -0.32443776471E+02  0.69903953950E+01  0.34169759095E+02  0.00000000000E+00 0.  1.
</event>
<event>
 7    1  0.2682317E-010  0.4778727E+02  0.7816164E-02  0.1312668E+00
        -11   -1    0    0    0    0  0.00000000000E+00  0.00000000000E+00  0.45593999997E+02  0.45594000000E+02  0.51100000000E-03 0. -1.
         11   -1    0    0    0    0 -0.00000000000E+00 -0.00000000000E+00 -0.45593999997E+02  0.45594000000E+02  0.51100000000E-03 0.  1.
    9900012    2    1    2    0    0 -0.48611759268E+01 -0.23146588532E+02 -0.36389940871E+02  0.47787269722E+02  0.19999993968E+02 0.  0.
         12    1    1    2    0    0  0.48611759268E+01  0.23146588532E+02  0.36389940871E+02  0.43400730278E+02  0.00000000000E+00 0. -1.
         11    1    3    3    0    0  0.43790345558E+01 -0.36346157634E+01 -0.96914028865E+01  0.11238757296E+02  0.51100000000E-03 0. -1.
        -11    1    3    3    0    0 -0.45320717214E+01 -0.47047502234E+01 -0.17050391985E+02  0.18258976309E+02  0.51100000000E-03 0.  1.
         12    1    3    3    0    0 -0.47081387612E+01 -0.14807222546E+02 -0.96481459995E+01  0.18289536116E+02  0.00000000000E+00 0. -1.
</event>
<event>
 7    1  0.2682317E-010  0.4778727E+02  0.7816164E-02  0.1312668E+00
        -11   -1    0    0    0    0  0.00000000000E+00  0.00000000000E+00  0.45593999997E+02  0.45594000000E+02  0.51100000000E-03 0. -1.
         11   -1    0    0    0    0 -0.00000000000E+00 -0.00000000000E+00 -0.45593999997E+02  0.45594000000E+02  0.51100000000E-03 0.  1.
    9900012    2    1    2    0    0  0.12224938157E+02 -0.40751918156E+02 -0.85706265142E+01  0.47787267458E+02  0.19999983647E+02 0.  0.
         12    1    1    2    0    0 -0.12224938157E+02  0.40751918156E+02  0.85706265142E+01  0.43400732542E+02  0.00000000000E+00 0. -1.
         11    1    3    3    0    0  0.18797596719E+01 -0.13630466036E+01  0.14986047159E+01  0.27635500399E+01  0.51100000000E-03 0. -1.
        -11    1    3    3    0    0  0.58463258165E+01 -0.54398330365E+01  0.27666465443E+01  0.84513692606E+01  0.51100000000E-03 0.  1.
        -12    1    3    3    0    0  0.44988526689E+01 -0.33949038516E+02 -0.12835877774E+02  0.36572348157E+02  0.00000000000E+00 0.  1.
</event>
<event>
 7    1  0.2682317E-010  0.4778727E+02  0.7816164E-02  0.1312668E+00
        -11   -1    0    0    0    0  0.00000000000E+00  0.00000000000E+00  0.45593999997E+02  0.45594000000E+02  0.51100000000E-03 0.  1.
         11   -1    0    0    0    0 -0.00000000000E+00 -0.00000000000E+00 -0.45593999997E+02  0.45594000000E+02  0.51100000000E-03 0. -1.
    9900012    2    1    2    0    0  0.18185842055E+02 -0.17867499596E+02  0.35123366814E+02  0.47787270865E+02  0.19999999182E+02 0.  0.
         12    1    1    2    0    0 -0.18185842055E+02  0.17867499596E+02 -0.35123366814E+02  0.43400729135E+02  0.00000000000E+00 0. -1.
         11    1    3    3    0    0  0.10948077291E+02 -0.59109761343E+01  0.51240680708E+01  0.13455709163E+02  0.51100000000E-03 0. -1.
        -11    1    3    3    0    0  0.84680686570E-01  0.13711395310E+01  0.13059191648E+01  0.18954206810E+01  0.51100000000E-03 0.  1.
        -12    1    3    3    0    0  0.71530840781E+01 -0.13327662993E+02  0.28693379579E+02  0.32436141021E+02  0.00000000000E+00 0.  1.
</event>
<event>
 7    1  0.2682317E-010  0.4778727E+02  0.7816164E-02  0.1312668E+00
        -11   -1    0    0    0    0  0.00000000000E+00  0.00000000000E+00  0.45593999997E+02  0.45594000000E+02  0.51100000000E-03 0.  1.
         11   -1    0    0    0    0 -0.00000000000E+00 -0.00000000000E+00 -0.45593999997E+02  0.45594000000E+02  0.51100000000E-03 0. -1.
    9900012    2    1    2    0    0  0.22374873093E+02 -0.31798503513E+01  0.37052354099E+02  0.47787270300E+02  0.19999996608E+02 0.  0.
         12    1    1    2    0    0 -0.22374873093E+02  0.31798503513E+01 -0.37052354099E+02  0.43400729700E+02  0.00000000000E+00 0. -1.
         11    1    3    3    0    0  0.90549702604E+01 -0.83379865406E+00  0.21581267743E+02  0.23418770768E+02  0.51100000000E-03 0. -1.
        -11    1    3    3    0    0  0.22489622388E+01  0.21946272262E+01  0.11248837594E+02  0.11679493451E+02  0.51100000000E-03 0.  1.
         12    1    3    3    0    0  0.11070940594E+02 -0.45406789234E+01  0.42222487620E+01  0.12689006081E+02  0.00000000000E+00 0. -1.
</event>
<event>
 7    1  0.2682317E-010  0.4778727E+02  0.7816164E-02  0.1312668E+00
        -11   -1    0    0    0    0  0.00000000000E+00  0.00000000000E+00  0.45593999997E+02  0.45594000000E+02  0.51100000000E-03 0. -1.
         11   -1    0    0    0    0 -0.00000000000E+00 -0.00000000000E+00 -0.45593999997E+02  0.45594000000E+02  0.51100000000E-03 0.  1.
    9900012    2    1    2    0    0  0.31306220359E+02  0.29296291421E+02  0.67284071569E+01  0.47787267436E+02  0.19999983549E+02 0.  0.
         12    1    1    2    0    0 -0.31306220359E+02 -0.29296291421E+02 -0.67284071569E+01  0.43400732564E+02  0.00000000000E+00 0. -1.
         11    1    3    3    0    0  0.10150509108E+02  0.18019490143E+02  0.23817794228E+01  0.20818446956E+02  0.51100000000E-03 0. -1.
        -11    1    3    3    0    0  0.82308725056E+01  0.84165889701E+01  0.66676207693E+01  0.13529353239E+02  0.51100000000E-03 0.  1.
         12    1    3    3    0    0  0.12924838746E+02  0.28602123074E+01 -0.23209930352E+01  0.13439467241E+02  0.00000000000E+00 0. -1.
</event>
<event>
 7    1  0.2682317E-010  0.4778727E+02  0.7816164E-02  0.1312668E+00
        -11   -1    0    0    0    0  0.00000000000E+00  0.00000000000E+00  0.45593999997E+02  0.45594000000E+02  0.51100000000E-03 0.  1.
         11   -1    0    0    0    0 -0.00000000000E+00 -0.00000000000E+00 -0.45593999997E+02  0.45594000000E+02  0.51100000000E-03 0. -1.
    9900012    2    1    2    0    0 -0.20451140911E+02 -0.96174939680E+01  0.37052367136E+02  0.47787271145E+02  0.20000000457E+02 0.  0.
         12    1    1    2    0    0  0.20451140911E+02  0.96174939680E+01 -0.37052367136E+02  0.43400728855E+02  0.00000000000E+00 0. -1.
         11    1    3    3    0    0 -0.44284868997E+01  0.87424291454E+00  0.77901949441E+01  0.90034956779E+01  0.51100000000E-03 0. -1.
        -11    1    3    3    0    0 -0.99057099973E+01  0.42876018170E+00  0.41963055921E+01  0.10766424974E+02  0.51100000000E-03 0.  1.
         12    1    3    3    0    0 -0.61169440136E+01 -0.10920497064E+02  0.25065866600E+02  0.28017350492E+02  0.00000000000E+00 0. -1.
</event>
<event>
 7    1  0.2682317E-010  0.4778727E+02  0.7816164E-02  0.1312668E+00
        -11   -1    0    0    0    0  0.00000000000E+00  0.00000000000E+00  0.45593999997E+02  0.45594000000E+02  0.51100000000E-03 0.  1.
         11   -1    0    0    0    0 -0.00000000000E+00 -0.00000000000E+00 -0.45593999997E+02  0.45594000000E+02  0.51100000000E-03 0. -1.
    9900012    2    1    2    0    0  0.13183313125E+02 -0.38101005796E+02  0.16066639632E+02  0.47787270781E+02  0.19999998801E+02 0.  0.
         12    1    1    2    0    0 -0.13183313125E+02  0.38101005796E+02 -0.16066639632E+02  0.43400729219E+02  0.00000000000E+00 0. -1.
         11    1    3    3    0    0  0.40259447003E+01 -0.46615440081E+01  0.32320652348E+01  0.69558945660E+01  0.51100000000E-03 0.  1.
        -11    1    3    3    0    0 -0.47032529920E+01 -0.57051274759E+01  0.47552967308E+01  0.87910133365E+01  0.51100000000E-03 0. -1.
        -12    1    3    3    0    0  0.13860621417E+02 -0.27734334312E+02  0.80792776662E+01  0.32040362879E+02  0.00000000000E+00 0.  1.
</event>
<event>
 7    1  0.2682317E-010  0.4778727E+02  0.7816164E-02  0.1312668E+00
        -11   -1    0    0    0    0  0.00000000000E+00  0.00000000000E+00  0.45593999997E+02  0.45594000000E+02  0.51100000000E-03 0.  1.
         11   -1    0    0    0    0 -0.00000000000E+00 -0.00000000000E+00 -0.45593999997E+02  0.45594000000E+02  0.51100000000E-03 0. -1.
    9900012    2    1    2    0    0 -0.90595381609E+01  0.42366093512E+02 -0.25811177090E+01  0.47787270976E+02  0.19999999689E+02 0.  0.
         12    1    1    2    0    0  0.90595381609E+01 -0.42366093512E+02  0.25811177090E+01  0.43400729024E+02  0.00000000000E+00 0. -1.
         11    1    3    3    0    0 -0.11885603366E+01  0.35522499391E+02  0.14126240215E+01  0.35570439209E+02  0.51100000000E-03 0. -1.
        -11    1    3    3    0    0  0.62396210148E+00  0.11664694029E+01 -0.57847994999E+00  0.14438209327E+01  0.51100000000E-03 0.  1.
        -12    1    3    3    0    0 -0.84949399258E+01  0.56771247186E+01 -0.34152617805E+01  0.10773010835E+02  0.00000000000E+00 0.  1.
</event>
<event>
 7    1  0.2682317E-010  0.4778727E+02  0.7816164E-02  0.1312668E+00
        -11   -1    0    0    0    0  0.00000000000E+00  0.00000000000E+00  0.45593999997E+02  0.45594000000E+02  0.51100000000E-03 0. -1.
         11   -1    0    0    0    0 -0.00000000000E+00 -0.00000000000E+00 -0.45593999997E+02  0.45594000000E+02  0.51100000000E-03 0.  1.
    9900012    2    1    2    0    0 -0.40788470017E+02 -0.13237155966E+02  0.66859315004E+01  0.47787271153E+02  0.20000000495E+02 0.  0.
         12    1    1    2    0    0  0.40788470017E+02  0.13237155966E+02 -0.66859315004E+01  0.43400728847E+02  0.00000000000E+00 0. -1.
         11    1    3    3    0    0 -0.20776534497E+00  0.52024137871E+00 -0.10562600673E+01  0.11956183010E+01  0.51100000000E-03 0. -1.
        -11    1    3    3    0    0 -0.10973534053E+02 -0.10135532025E+02  0.76069920631E+01  0.16763465858E+02  0.51100000000E-03 0.  1.
         12    1    3    3    0    0 -0.29607170619E+02 -0.36218653189E+01  0.13519950457E+00  0.29828186994E+02  0.00000000000E+00 0. -1.
</event>
<event>
 7    1  0.2682317E-010  0.4778729E+02  0.7816164E-02  0.1312668E+00
        -11   -1    0    0    0    0  0.00000000000E+00  0.00000000000E+00  0.45593999997E+02  0.45594000000E+02  0.51100000000E-03 0.  1.
         11   -1    0    0    0    0 -0.00000000000E+00 -0.00000000000E+00 -0.45593999997E+02  0.45594000000E+02  0.51100000000E-03 0. -1.
    9900012    2    1    2    0    0  0.61148159856E+01 -0.27604304457E+02  0.32927700015E+02  0.47787285405E+02  0.20000065475E+02 0.  0.
         12    1    1    2    0    0 -0.61148159856E+01  0.27604304457E+02 -0.32927700015E+02  0.43400714595E+02  0.00000000000E+00 0. -1.
         11    1    3    3    0    0 -0.46127942882E+00 -0.19073085345E+02  0.21649188690E+02  0.28856242557E+02  0.51100000000E-03 0.  1.
        -11    1    3    3    0    0  0.31451129148E+01 -0.99136454805E+01  0.47643062584E+01  0.11439873965E+02  0.51100000000E-03 0. -1.
        -12    1    3    3    0    0  0.34309824996E+01  0.13824263689E+01  0.65142050669E+01  0.74911688828E+01  0.00000000000E+00 0.  1.
</event>
<event>
 7    1  0.2682317E-010  0.4778727E+02  0.7816164E-02  0.1312668E+00
        -11   -1    0    0    0    0  0.00000000000E+00  0.00000000000E+00  0.45593999997E+02  0.45594000000E+02  0.51100000000E-03 0. -1.
         11   -1    0    0    0    0 -0.00000000000E+00 -0.00000000000E+00 -0.45593999997E+02  0.45594000000E+02  0.51100000000E-03 0.  1.
    9900012    2    1    2    0    0 -0.30484244094E+02 -0.17878295381E+02 -0.25193266986E+02  0.47787270915E+02  0.19999999409E+02 0.  0.
         12    1    1    2    0    0  0.30484244094E+02  0.17878295381E+02  0.25193266986E+02  0.43400729085E+02  0.00000000000E+00 0. -1.
         11    1    3    3    0    0 -0.48948464554E+01  0.33408538358E+01 -0.26013232711E+01  0.64720714764E+01  0.51100000000E-03 0. -1.
        -11    1    3    3    0    0 -0.68529877435E+01 -0.13692161551E+01 -0.69452622098E+01  0.98526575763E+01  0.51100000000E-03 0.  1.
        -12    1    3    3    0    0 -0.18736409895E+02 -0.19849933061E+02 -0.15646681506E+02  0.31462541862E+02  0.00000000000E+00 0.  1.
</event>
<event>
 7    1  0.2682317E-010  0.4778727E+02  0.7816164E-02  0.1312668E+00
        -11   -1    0    0    0    0  0.00000000000E+00  0.00000000000E+00  0.45593999997E+02  0.45594000000E+02  0.51100000000E-03 0. -1.
         11   -1    0    0    0    0 -0.00000000000E+00 -0.00000000000E+00 -0.45593999997E+02  0.45594000000E+02  0.51100000000E-03 0.  1.
    9900012    2    1    2    0    0  0.20338130641E+02  0.19936877163E+02 -0.32749118651E+02  0.47787269576E+02  0.19999993303E+02 0.  0.
         12    1    1    2    0    0 -0.20338130641E+02 -0.19936877163E+02  0.32749118651E+02  0.43400730424E+02  0.00000000000E+00 0. -1.
         11    1    3    3    0    0  0.82709816720E+01  0.12206031211E+02 -0.55482962993E+01  0.15753727426E+02  0.51100000000E-03 0. -1.
        -11    1    3    3    0    0  0.87949742220E+01  0.96898750069E+01 -0.20402901829E+02  0.24238887197E+02  0.51100000000E-03 0.  1.
        -12    1    3    3    0    0  0.32721747467E+01 -0.19590290545E+01 -0.67979205222E+01  0.77946549529E+01  0.00000000000E+00 0.  1.
</event>
<event>
 7    1  0.2682317E-010  0.4778725E+02  0.7816164E-02  0.1312668E+00
        -11   -1    0    0    0    0  0.00000000000E+00  0.00000000000E+00  0.45593999997E+02  0.45594000000E+02  0.51100000000E-03 0.  1.
         11   -1    0    0    0    0 -0.00000000000E+00 -0.00000000000E+00 -0.45593999997E+02  0.45594000000E+02  0.51100000000E-03 0. -1.
    9900012    2    1    2    0    0 -0.28790439603E+02 -0.17460538150E+02  0.27383660587E+02  0.47787254935E+02  0.19999926552E+02 0.  0.
         12    1    1    2    0    0  0.28790439603E+02  0.17460538150E+02 -0.27383660587E+02  0.43400745065E+02  0.00000000000E+00 0. -1.
         11    1    3    3    0    0 -0.70518421250E+01 -0.68409548250E+01  0.67259745419E+01  0.11906547530E+02  0.51100000000E-03 0.  1.
        -11    1    3    3    0    0 -0.60397337197E+01 -0.14989891240E+01  0.15954918555E+02  0.17125559207E+02  0.51100000000E-03 0. -1.
         12    1    3    3    0    0 -0.15698863758E+02 -0.91205942011E+01  0.47027674896E+01  0.18755148198E+02  0.00000000000E+00 0. -1.
</event>
<event>
 7    1  0.2682317E-010  0.4778727E+02  0.7816164E-02  0.1312668E+00
        -11   -1    0    0    0    0  0.00000000000E+00  0.00000000000E+00  0.45593999997E+02  0.45594000000E+02  0.51100000000E-03 0.  1.
         11   -1    0    0    0    0 -0.00000000000E+00 -0.00000000000E+00 -0.45593999997E+02  0.45594000000E+02  0.51100000000E-03 0. -1.
    9900012    2    1    2    0    0 -0.13364588400E+02 -0.32624536141E+01  0.41162698561E+02  0.47787267524E+02  0.19999983947E+02 0.  0.
         12    1    1    2    0    0  0.13364588400E+02  0.32624536141E+01 -0.41162698561E+02  0.43400732476E+02  0.00000000000E+00 0. -1.
         11    1    3    3    0    0 -0.17605593101E+01 -0.82601138948E+00  0.31686833020E+02  0.31746452574E+02  0.51100000000E-03 0. -1.
        -11    1    3    3    0    0 -0.50146471111E+01  0.71036293441E+00  0.62854394652E+01  0.80720536841E+01  0.51100000000E-03 0.  1.
         12    1    3    3    0    0 -0.65893819786E+01 -0.31468051591E+01  0.31904260755E+01  0.79687612659E+01  0.00000000000E+00 0. -1.
</event>
<event>
 7    1  0.2682317E-010  0.4778727E+02  0.7816164E-02  0.1312668E+00
        -11   -1    0    0    0    0  0.00000000000E+00  0.00000000000E+00  0.45593999997E+02  0.45594000000E+02  0.51100000000E-03 0.  1.
         11   -1    0    0    0    0 -0.00000000000E+00 -0.00000000000E+00 -0.45593999997E+02  0.45594000000E+02  0.51100000000E-03 0. -1.
    9900012    2    1    2    0    0  0.19001420393E+02  0.83068252490E+01  0.38125660801E+02  0.47787270350E+02  0.19999996833E+02 0.  0.
         12    1    1    2    0    0 -0.19001420393E+02 -0.83068252490E+01 -0.38125660801E+02  0.43400729650E+02  0.00000000000E+00 0. -1.
         11    1    3    3    0    0  0.18891978492E+01  0.16885977183E+01 -0.14882825844E+01  0.29386078473E+01  0.51100000000E-03 0. -1.
        -11    1    3    3    0    0  0.89179213634E+01  0.87899773698E+01  0.24750315916E+02  0.27737540659E+02  0.51100000000E-03 0.  1.
        -12    1    3    3    0    0  0.81943011804E+01 -0.21717498391E+01  0.14863627470E+02  0.17111121844E+02  0.00000000000E+00 0.  1.
</event>
<event>
 7    1  0.2682317E-010  0.4778727E+02  0.7816164E-02  0.1312668E+00
        -11   -1    0    0    0    0  0.00000000000E+00  0.00000000000E+00  0.45593999997E+02  0.45594000000E+02  0.51100000000E-03 0.  1.
         11   -1    0    0    0    0 -0.00000000000E+00 -0.00000000000E+00 -0.45593999997E+02  0.45594000000E+02  0.51100000000E-03 0. -1.
    9900012    2    1    2    0    0  0.15808059624E+02 -0.15483903760E+02  0.37336011471E+02  0.47787265245E+02  0.19999973557E+02 0.  0.
         12    1    1    2    0    0 -0.15808059624E+02  0.15483903760E+02 -0.37336011471E+02  0.43400734755E+02  0.00000000000E+00 0. -1.
         11    1    3    3    0    0  0.13060874837E+02 -0.26715503212E+01  0.22543409462E+02  0.26190245189E+02  0.51100000000E-03 0. -1.
        -11    1    3    3    0    0  0.26471463334E+00  0.13273165436E+01  0.16459689326E+01  0.21309756057E+01  0.51100000000E-03 0.  1.
        -12    1    3    3    0    0  0.24824701534E+01 -0.14139669982E+02  0.13146633076E+02  0.19466044449E+02  0.00000000000E+00 0.  1.
</event>
<event>
 7    1  0.2682317E-010  0.4778727E+02  0.7816164E-02  0.1312668E+00
        -11   -1    0    0    0    0  0.00000000000E+00  0.00000000000E+00  0.45593999997E+02  0.45594000000E+02  0.51100000000E-03 0.  1.
         11   -1    0    0    0    0 -0.00000000000E+00 -0.00000000000E+00 -0.45593999997E+02  0.45594000000E+02  0.51100000000E-03 0. -1.
    9900012    2    1    2    0    0 -0.11796801951E+02  0.78285621013E+00  0.41759379327E+02  0.47787272335E+02  0.20000005884E+02 0.  0.
         12    1    1    2    0    0  0.11796801951E+02 -0.78285621013E+00 -0.41759379327E+02  0.43400727665E+02  0.00000000000E+00 0. -1.
         11    1    3    3    0    0 -0.79659295618E+01  0.54586403166E+01  0.24765271438E+02  0.26581411880E+02  0.51100000000E-03 0. -1.
        -11    1    3    3    0    0 -0.14106434597E-01 -0.20060092277E+01  0.16386186087E+02  0.16508524064E+02  0.51100000000E-03 0.  1.
         12    1    3    3    0    0 -0.38167659549E+01 -0.26697748788E+01  0.60792180183E+00  0.46973363915E+01  0.00000000000E+00 0. -1.
</event>
<event>
 7    1  0.2682317E-010  0.4778727E+02  0.7816164E-02  0.1312668E+00
        -11   -1    0    0    0    0  0.00000000000E+00  0.00000000000E+00  0.45593999997E+02  0.45594000000E+02  0.51100000000E-03 0.  1.
         11   -1    0    0    0    0 -0.00000000000E+00 -0.00000000000E+00 -0.45593999997E+02  0.45594000000E+02  0.51100000000E-03 0. -1.
    9900012    2    1    2    0    0 -0.59678490651E+01  0.39794767341E+02  0.16259908766E+02  0.47787270014E+02  0.19999995304E+02 0.  0.
         12    1    1    2    0    0  0.59678490651E+01 -0.39794767341E+02 -0.16259908766E+02  0.43400729986E+02  0.00000000000E+00 0. -1.
         11    1    3    3    0    0 -0.26896587115E+01 -0.25275646737E+00 -0.55066860488E-01  0.27020700281E+01  0.51100000000E-03 0. -1.
        -11    1    3    3    0    0  0.60418800731E+00  0.31958075908E+02  0.16779469294E+02  0.36100335856E+02  0.51100000000E-03 0.  1.
        -12    1    3    3    0    0 -0.38823783609E+01  0.80894479007E+01 -0.46449366685E+00  0.89848641304E+01  0.00000000000E+00 0.  1.
</event>
<event>
 7    1  0.2682317E-010  0.4778727E+02  0.7816164E-02  0.1312668E+00
        -11   -1    0    0    0    0  0.00000000000E+00  0.00000000000E+00  0.45593999997E+02  0.45594000000E+02  0.51100000000E-03 0. -1.
         11   -1    0    0    0    0 -0.00000000000E+00 -0.00000000000E+00 -0.45593999997E+02  0.45594000000E+02  0.51100000000E-03 0.  1.
    9900012    2    1    2    0    0 -0.35889082005E+02  0.22612849079E+02 -0.91791214319E+01  0.47787269351E+02  0.19999992277E+02 0.  0.
         12    1    1    2    0    0  0.35889082005E+02 -0.22612849079E+02  0.91791214319E+01  0.43400730649E+02  0.00000000000E+00 0. -1.
         11    1    3    3    0    0 -0.59826027062E+00  0.24604111831E+01  0.24913075923E+01  0.35522038683E+01  0.51100000000E-03 0. -1.
        -11    1    3    3    0    0 -0.13160477421E+02  0.13106998663E+02 -0.79729661355E+00  0.18591053280E+02  0.51100000000E-03 0.  1.
         12    1    3    3    0    0 -0.22130344314E+02  0.70454392324E+01 -0.10873132411E+02  0.25644012202E+02  0.00000000000E+00 0. -1.
</event>
<event>
 7    1  0.2682317E-010  0.4778727E+02  0.7816164E-02  0.1312668E+00
        -11   -1    0    0    0    0  0.00000000000E+00  0.00000000000E+00  0.45593999997E+02  0.45594000000E+02  0.51100000000E-03 0.  1.
         11   -1    0    0    0    0 -0.00000000000E+00 -0.00000000000E+00 -0.45593999997E+02  0.45594000000E+02  0.51100000000E-03 0. -1.
    9900012    2    1    2    0    0  0.38675972943E+02  0.19546181902E+02  0.23956678945E+01  0.47787270343E+02  0.19999996803E+02 0.  0.
         12    1    1    2    0    0 -0.38675972943E+02 -0.19546181902E+02 -0.23956678945E+01  0.43400729657E+02  0.00000000000E+00 0. -1.
         11    1    3    3    0    0  0.23457526065E+02  0.86691754645E+01 -0.63195030838E+01  0.25794306578E+02  0.51100000000E-03 0.  1.
        -11    1    3    3    0    0  0.36583978718E+01  0.62399106913E+01  0.90078610542E+00  0.72891547036E+01  0.51100000000E-03 0. -1.
        -12    1    3    3    0    0  0.11560049006E+02  0.46370957467E+01  0.78143848729E+01  0.14703809062E+02  0.00000000000E+00 0.  1.
</event>
<event>
 7    1  0.2682317E-010  0.4778728E+02  0.7816164E-02  0.1312668E+00
        -11   -1    0    0    0    0  0.00000000000E+00  0.00000000000E+00  0.45593999997E+02  0.45594000000E+02  0.51100000000E-03 0. -1.
         11   -1    0    0    0    0 -0.00000000000E+00 -0.00000000000E+00 -0.45593999997E+02  0.45594000000E+02  0.51100000000E-03 0.  1.
    9900012    2    1    2    0    0 -0.30519436044E+01  0.28829628666E+02 -0.32298003560E+02  0.47787275550E+02  0.20000020543E+02 0.  0.
         12    1    1    2    0    0  0.30519436044E+01 -0.28829628666E+02  0.32298003560E+02  0.43400724450E+02  0.00000000000E+00 0. -1.
         11    1    3    3    0    0  0.32638667328E+01  0.33894931499E+01 -0.19371383820E+01  0.50886142745E+01  0.51100000000E-03 0. -1.
        -11    1    3    3    0    0  0.26733212921E+01  0.86023895054E+01 -0.17502052925E+02  0.19684247732E+02  0.51100000000E-03 0.  1.
         12    1    3    3    0    0 -0.89891316293E+01  0.16837746011E+02 -0.12858812254E+02  0.23014413543E+02  0.00000000000E+00 0. -1.
</event>
<event>
 7    1  0.2682317E-010  0.4778727E+02  0.7816164E-02  0.1312668E+00
        -11   -1    0    0    0    0  0.00000000000E+00  0.00000000000E+00  0.45593999997E+02  0.45594000000E+02  0.51100000000E-03 0.  1.
         11   -1    0    0    0    0 -0.00000000000E+00 -0.00000000000E+00 -0.45593999997E+02  0.45594000000E+02  0.51100000000E-03 0. -1.
    9900012    2    1    2    0    0 -0.26746973540E+02  0.26797407101E+02  0.21216071382E+02  0.47787270677E+02  0.19999998326E+02 0.  0.
         12    1    1    2    0    0  0.26746973540E+02 -0.26797407101E+02 -0.21216071382E+02  0.43400729323E+02  0.00000000000E+00 0. -1.
         11    1    3    3    0    0 -0.32711039142E+01  0.24999431056E+01  0.76636204936E+01  0.86994778970E+01  0.51100000000E-03 0. -1.
        -11    1    3    3    0    0 -0.15083553783E+02  0.16339779294E+02  0.15835215540E+02  0.27299377897E+02  0.51100000000E-03 0.  1.
        -12    1    3    3    0    0 -0.83923158425E+01  0.79576847015E+01 -0.22827646518E+01  0.11788414883E+02  0.00000000000E+00 0.  1.
</event>
<event>
 7    1  0.2682317E-010  0.4778727E+02  0.7816164E-02  0.1312668E+00
        -11   -1    0    0    0    0  0.00000000000E+00  0.00000000000E+00  0.45593999997E+02  0.45594000000E+02  0.51100000000E-03 0. -1.
         11   -1    0    0    0    0 -0.00000000000E+00 -0.00000000000E+00 -0.45593999997E+02  0.45594000000E+02  0.51100000000E-03 0.  1.
    9900012    2    1    2    0    0  0.41328462981E+02  0.15353490179E+01  0.13161464955E+02  0.47787270643E+02  0.19999998168E+02 0.  0.
         12    1    1    2    0    0 -0.41328462981E+02 -0.15353490179E+01 -0.13161464955E+02  0.43400729357E+02  0.00000000000E+00 0. -1.
         11    1    3    3    0    0  0.50531042436E+01 -0.21093971040E+01  0.14602378319E+01  0.56670727387E+01  0.51100000000E-03 0. -1.
        -11    1    3    3    0    0  0.27883714294E+02  0.23544578039E+01  0.40094910451E+00  0.27985813457E+02  0.51100000000E-03 0.  1.
         12    1    3    3    0    0  0.83916444433E+01  0.12902883181E+01  0.11300278018E+02  0.14134384447E+02  0.00000000000E+00 0. -1.
</event>
<event>
 7    1  0.2682317E-010  0.4778727E+02  0.7816164E-02  0.1312668E+00
        -11   -1    0    0    0    0  0.00000000000E+00  0.00000000000E+00  0.45593999997E+02  0.45594000000E+02  0.51100000000E-03 0.  1.
         11   -1    0    0    0    0 -0.00000000000E+00 -0.00000000000E+00 -0.45593999997E+02  0.45594000000E+02  0.51100000000E-03 0. -1.
    9900012    2    1    2    0    0  0.10830091741E+02  0.99272626154E+01  0.40838484824E+02  0.47787271056E+02  0.20000000052E+02 0.  0.
         12    1    1    2    0    0 -0.10830091741E+02 -0.99272626154E+01 -0.40838484824E+02  0.43400728944E+02  0.00000000000E+00 0. -1.
         11    1    3    3    0    0  0.41687797682E+01 -0.51512321275E+01  0.69443689784E+01  0.95988633680E+01  0.51100000000E-03 0. -1.
        -11    1    3    3    0    0 -0.22670000647E+00  0.55344957797E+00  0.57164683222E+01  0.57476699338E+01  0.51100000000E-03 0.  1.
         12    1    3    3    0    0  0.68880119794E+01  0.14525045165E+02  0.28177647523E+02  0.32440737754E+02  0.00000000000E+00 0. -1.
</event>
<event>
 7    1  0.2682317E-010  0.4778727E+02  0.7816164E-02  0.1312668E+00
        -11   -1    0    0    0    0  0.00000000000E+00  0.00000000000E+00  0.45593999997E+02  0.45594000000E+02  0.51100000000E-03 0.  1.
         11   -1    0    0    0    0 -0.00000000000E+00 -0.00000000000E+00 -0.45593999997E+02  0.45594000000E+02  0.51100000000E-03 0. -1.
    9900012    2    1    2    0    0 -0.33480449822E+02 -0.26596402658E+02  0.74373503627E+01  0.47787270340E+02  0.19999996787E+02 0.  0.
         12    1    1    2    0    0  0.33480449822E+02  0.26596402658E+02 -0.74373503627E+01  0.43400729660E+02  0.00000000000E+00 0. -1.
         11    1    3    3    0    0 -0.10704593888E+02 -0.21899898145E+01  0.25611922244E+01  0.11222481525E+02  0.51100000000E-03 0. -1.
        -11    1    3    3    0    0 -0.97111528672E+01 -0.33147421401E+01  0.57053770860E+01  0.11740755232E+02  0.51100000000E-03 0.  1.
         12    1    3    3    0    0 -0.13064703066E+02 -0.21091670703E+02 -0.82921894771E+00  0.24824033583E+02  0.00000000000E+00 0. -1.
</event>
<event>
 7    1  0.2682317E-010  0.4778727E+02  0.7816164E-02  0.1312668E+00
        -11   -1    0    0    0    0  0.00000000000E+00  0.00000000000E+00  0.45593999997E+02  0.45594000000E+02  0.51100000000E-03 0.  1.
         11   -1    0    0    0    0 -0.00000000000E+00 -0.00000000000E+00 -0.45593999997E+02  0.45594000000E+02  0.51100000000E-03 0. -1.
    9900012    2    1    2    0    0  0.86602435265E+01 -0.21072076490E+01  0.42475679319E+02  0.47787268720E+02  0.19999989402E+02 0.  0.
         12    1    1    2    0    0 -0.86602435265E+01  0.21072076490E+01 -0.42475679319E+02  0.43400731280E+02  0.00000000000E+00 0. -1.
         11    1    3    3    0    0  0.15987941458E+01 -0.38647547819E+01  0.66522930563E+01  0.78578289249E+01  0.51100000000E-03 0. -1.
        -11    1    3    3    0    0  0.85944670867E+00 -0.69069146904E+01  0.13213539904E+02  0.14934582560E+02  0.51100000000E-03 0.  1.
        -12    1    3    3    0    0  0.62020026720E+01  0.86644618234E+01  0.22609846359E+02  0.24994857235E+02  0.00000000000E+00 0.  1.
</event>
<event>
 7    1  0.2682317E-010  0.4778726E+02  0.7816164E-02  0.1312668E+00
        -11   -1    0    0    0    0  0.00000000000E+00  0.00000000000E+00  0.45593999997E+02  0.45594000000E+02  0.51100000000E-03 0.  1.
         11   -1    0    0    0    0 -0.00000000000E+00 -0.00000000000E+00 -0.45593999997E+02  0.45594000000E+02  0.51100000000E-03 0. -1.
    9900012    2    1    2    0    0  0.35805690783E+02  0.24432518557E+02  0.21513683577E+01  0.47787264507E+02  0.19999970195E+02 0.  0.
         12    1    1    2    0    0 -0.35805690783E+02 -0.24432518557E+02 -0.21513683577E+01  0.43400735493E+02  0.00000000000E+00 0. -1.
         11    1    3    3    0    0  0.36902992596E+01  0.22995818541E+01  0.24209441406E+01  0.49766812357E+01  0.51100000000E-03 0. -1.
        -11    1    3    3    0    0  0.18314908870E+02  0.19646132096E+02  0.58857840009E+01  0.27496342426E+02  0.51100000000E-03 0.  1.
         12    1    3    3    0    0  0.13800482653E+02  0.24868046075E+01 -0.61553597838E+01  0.15314240846E+02  0.00000000000E+00 0. -1.
</event>
<event>
 7    1  0.2682317E-010  0.4778727E+02  0.7816164E-02  0.1312668E+00
        -11   -1    0    0    0    0  0.00000000000E+00  0.00000000000E+00  0.45593999997E+02  0.45594000000E+02  0.51100000000E-03 0. -1.
         11   -1    0    0    0    0 -0.00000000000E+00 -0.00000000000E+00 -0.45593999997E+02  0.45594000000E+02  0.51100000000E-03 0.  1.
    9900012    2    1    2    0    0  0.12764784455E+02  0.36218310164E+02 -0.20221710269E+02  0.47787270979E+02  0.19999999702E+02 0.  0.
         12    1    1    2    0    0 -0.12764784455E+02 -0.36218310164E+02  0.20221710269E+02  0.43400729021E+02  0.00000000000E+00 0. -1.
         11    1    3    3    0    0  0.10464871533E+02  0.99593919527E+01 -0.76289675408E+01  0.16337202033E+02  0.51100000000E-03 0.  1.
        -11    1    3    3    0    0  0.34507313019E+01  0.17776757303E+01  0.30729645662E-01  0.38818323112E+01  0.51100000000E-03 0. -1.
        -12    1    3    3    0    0 -0.11508183800E+01  0.24481242481E+02 -0.12623472374E+02  0.27568236635E+02  0.00000000000E+00 0.  1.
</event>
<event>
 7    1  0.2682317E-010  0.4778727E+02  0.7816164E-02  0.1312668E+00
        -11   -1    0    0    0    0  0.00000000000E+00  0.00000000000E+00  0.45593999997E+02  0.45594000000E+02  0.51100000000E-03 0.  1.
         11   -1    0    0    0    0 -0.00000000000E+00 -0.00000000000E+00 -0.45593999997E+02  0.45594000000E+02  0.51100000000E-03 0. -1.
    9900012    2    1    2    0    0  0.41431015606E+02  0.10860828189E+02  0.70097530502E+01  0.47787270963E+02  0.19999999629E+02 0.  0.
         12    1    1    2    0    0 -0.41431015606E+02 -0.10860828189E+02 -0.70097530502E+01  0.43400729037E+02  0.00000000000E+00 0. -1.
         11    1    3    3    0    0  0.19219709961E+01  0.14616328527E+01 -0.29935690997E+00  0.24330963661E+01  0.51100000000E-03 0. -1.
        -11    1    3    3    0    0  0.33056676606E+02  0.14322151286E+02  0.88410684760E+01  0.37094910402E+02  0.51100000000E-03 0.  1.
         12    1    3    3    0    0  0.64523680044E+01 -0.49229559497E+01 -0.15319585158E+01  0.82592641949E+01  0.00000000000E+00 0. -1.
</event>
<event>
 7    1  0.2682317E-010  0.4778727E+02  0.7816164E-02  0.1312668E+00
        -11   -1    0    0    0    0  0.00000000000E+00  0.00000000000E+00  0.45593999997E+02  0.45594000000E+02  0.51100000000E-03 0.  1.
         11   -1    0    0    0    0 -0.00000000000E+00 -0.00000000000E+00 -0.45593999997E+02  0.45594000000E+02  0.51100000000E-03 0. -1.
    9900012    2    1    2    0    0  0.10055900834E+02  0.40906842661E+02  0.10446643982E+02  0.47787270875E+02  0.19999999227E+02 0.  0.
         12    1    1    2    0    0 -0.10055900834E+02 -0.40906842661E+02 -0.10446643982E+02  0.43400729125E+02  0.00000000000E+00 0. -1.
         11    1    3    3    0    0 -0.21938017753E+01  0.94225521612E+01  0.93182766534E+01  0.13432331723E+02  0.51100000000E-03 0.  1.
        -11    1    3    3    0    0  0.23714922337E+00  0.33747431847E+01  0.16885801134E+01  0.37810625990E+01  0.51100000000E-03 0. -1.
         12    1    3    3    0    0  0.12012553386E+02  0.28109547315E+02 -0.56021278459E+00  0.30573876553E+02  0.00000000000E+00 0. -1.
</event>
<event>
 7    1  0.2682317E-010  0.4778727E+02  0.7816164E-02  0.1312668E+00
        -11   -1    0    0    0    0  0.00000000000E+00  0.00000000000E+00  0.45593999997E+02  0.45594000000E+02  0.51100000000E-03 0. -1.
         11   -1    0    0    0    0 -0.00000000000E+00 -0.00000000000E+00 -0.45593999997E+02  0.45594000000E+02  0.51100000000E-03 0.  1.
    9900012    2    1    2    0    0  0.75874080715E+01  0.21808940717E+02 -0.36748121211E+02  0.47787273405E+02  0.20000010762E+02 0.  0.
         12    1    1    2    0    0 -0.75874080715E+01 -0.21808940717E+02  0.36748121211E+02  0.43400726595E+02  0.00000000000E+00 0. -1.
         11    1    3    3    0    0 -0.58216492339E+01  0.42136688905E+01 -0.11811991515E+02  0.13826414905E+02  0.51100000000E-03 0. -1.
        -11    1    3    3    0    0  0.30547502267E+01  0.77894072120E+01 -0.12485677861E+02  0.15029920678E+02  0.51100000000E-03 0.  1.
         12    1    3    3    0    0  0.10354307079E+02  0.98058646150E+01 -0.12450451835E+02  0.18930937822E+02  0.00000000000E+00 0. -1.
</event>
<event>
 7    1  0.2682317E-010  0.4778727E+02  0.7816164E-02  0.1312668E+00
        -11   -1    0    0    0    0  0.00000000000E+00  0.00000000000E+00  0.45593999997E+02  0.45594000000E+02  0.51100000000E-03 0.  1.
         11   -1    0    0    0    0 -0.00000000000E+00 -0.00000000000E+00 -0.45593999997E+02  0.45594000000E+02  0.51100000000E-03 0. -1.
    9900012    2    1    2    0    0  0.28813099334E+02 -0.27268515522E+02  0.17602756900E+02  0.47787266337E+02  0.19999978537E+02 0.  0.
         12    1    1    2    0    0 -0.28813099334E+02  0.27268515522E+02 -0.17602756900E+02  0.43400733663E+02  0.00000000000E+00 0. -1.
         11    1    3    3    0    0  0.34653631402E+01 -0.10784145903E+02  0.16130734348E+00  0.11328396394E+02  0.51100000000E-03 0. -1.
        -11    1    3    3    0    0  0.10945039689E+02 -0.11869037523E+02  0.50795324792E+01  0.16925412727E+02  0.51100000000E-03 0.  1.
        -12    1    3    3    0    0  0.14402696505E+02 -0.46153320966E+01  0.12361917077E+02  0.19533457215E+02  0.00000000000E+00 0.  1.
</event>
<event>
 7    1  0.2682317E-010  0.4778727E+02  0.7816164E-02  0.1312668E+00
        -11   -1    0    0    0    0  0.00000000000E+00  0.00000000000E+00  0.45593999997E+02  0.45594000000E+02  0.51100000000E-03 0.  1.
         11   -1    0    0    0    0 -0.00000000000E+00 -0.00000000000E+00 -0.45593999997E+02  0.45594000000E+02  0.51100000000E-03 0. -1.
    9900012    2    1    2    0    0  0.36537792128E+01 -0.27737761700E+02  0.33179659454E+02  0.47787270419E+02  0.19999997148E+02 0.  0.
         12    1    1    2    0    0 -0.36537792128E+01  0.27737761700E+02 -0.33179659454E+02  0.43400729581E+02  0.00000000000E+00 0. -1.
         11    1    3    3    0    0  0.25926870796E+01 -0.12554352994E+02  0.91433053076E+01  0.15745914949E+02  0.51100000000E-03 0. -1.
        -11    1    3    3    0    0  0.76145383524E+01 -0.92421091016E+01  0.10827176644E+02  0.16143900684E+02  0.51100000000E-03 0.  1.
         12    1    3    3    0    0 -0.65534462193E+01 -0.59412996047E+01  0.13209177503E+02  0.15897454785E+02  0.00000000000E+00 0. -1.
</event>
<event>
 7    1  0.2682317E-010  0.4778727E+02  0.7816164E-02  0.1312668E+00
        -11   -1    0    0    0    0  0.00000000000E+00  0.00000000000E+00  0.45593999997E+02  0.45594000000E+02  0.51100000000E-03 0.  1.
         11   -1    0    0    0    0 -0.00000000000E+00 -0.00000000000E+00 -0.45593999997E+02  0.45594000000E+02  0.51100000000E-03 0. -1.
    9900012    2    1    2    0    0 -0.88379919682E+01  0.30039415503E+02  0.30052398279E+02  0.47787271571E+02  0.20000002403E+02 0.  0.
         12    1    1    2    0    0  0.88379919682E+01 -0.30039415503E+02 -0.30052398279E+02  0.43400728429E+02  0.00000000000E+00 0. -1.
         11    1    3    3    0    0 -0.92370565931E+00  0.91304927781E+01  0.10485464132E+01  0.92368057443E+01  0.51100000000E-03 0. -1.
        -11    1    3    3    0    0 -0.82830556989E+01  0.19464989006E+02  0.18993220253E+02  0.28429513266E+02  0.51100000000E-03 0.  1.
         12    1    3    3    0    0  0.36876939000E+00  0.14439337191E+01  0.10010631613E+02  0.10120952561E+02  0.00000000000E+00 0. -1.
</event>
<event>
 7    1  0.2682317E-010  0.4778727E+02  0.7816164E-02  0.1312668E+00
        -11   -1    0    0    0    0  0.00000000000E+00  0.00000000000E+00  0.45593999997E+02  0.45594000000E+02  0.51100000000E-03 0. -1.
         11   -1    0    0    0    0 -0.00000000000E+00 -0.00000000000E+00 -0.45593999997E+02  0.45594000000E+02  0.51100000000E-03 0.  1.
    9900012    2    1    2    0    0  0.13479550310E+01 -0.20780911362E+02 -0.38078339836E+02  0.47787271614E+02  0.20000002597E+02 0.  0.
         12    1    1    2    0    0 -0.13479550310E+01  0.20780911362E+02  0.38078339836E+02  0.43400728386E+02  0.00000000000E+00 0. -1.
         11    1    3    3    0    0 -0.81730615248E+00  0.74777921340E+00 -0.10941971312E+02  0.10997904325E+02  0.51100000000E-03 0. -1.
        -11    1    3    3    0    0  0.61516466665E+01 -0.53623742389E+01 -0.80916433777E+01  0.11492280322E+02  0.51100000000E-03 0.  1.
        -12    1    3    3    0    0 -0.39863854831E+01 -0.16166316336E+02 -0.19044725146E+02  0.25297086967E+02  0.00000000000E+00 0.  1.
</event>
<event>
 7    1  0.2682317E-010  0.4778727E+02  0.7816164E-02  0.1312668E+00
        -11   -1    0    0    0    0  0.00000000000E+00  0.00000000000E+00  0.45593999997E+02  0.45594000000E+02  0.51100000000E-03 0.  1.
         11   -1    0    0    0    0 -0.00000000000E+00 -0.00000000000E+00 -0.45593999997E+02  0.45594000000E+02  0.51100000000E-03 0. -1.
    9900012    2    1    2    0    0 -0.31001650111E+02  0.26526634450E+02  0.14793865010E+02  0.47787273200E+02  0.20000009828E+02 0.  0.
         12    1    1    2    0    0  0.31001650111E+02 -0.26526634450E+02 -0.14793865010E+02  0.43400726800E+02  0.00000000000E+00 0. -1.
         11    1    3    3    0    0 -0.84640545073E+01  0.52334950004E+01 -0.14526559985E+01  0.10056833415E+02  0.51100000000E-03 0. -1.
        -11    1    3    3    0    0 -0.80749435656E+01  0.13256819781E+02  0.14238210059E+02  0.21063584933E+02  0.51100000000E-03 0.  1.
        -12    1    3    3    0    0 -0.14462652038E+02  0.80363196688E+01  0.20083109493E+01  0.16666854852E+02  0.00000000000E+00 0.  1.
</event>
<event>
 7    1  0.2682317E-010  0.4778727E+02  0.7816164E-02  0.1312668E+00
        -11   -1    0    0    0    0  0.00000000000E+00  0.00000000000E+00  0.45593999997E+02  0.45594000000E+02  0.51100000000E-03 0.  1.
         11   -1    0    0    0    0 -0.00000000000E+00 -0.00000000000E+00 -0.45593999997E+02  0.45594000000E+02  0.51100000000E-03 0. -1.
    9900012    2    1    2    0    0 -0.32531126598E+01  0.35227793308E+02  0.25140475250E+02  0.47787266606E+02  0.19999979763E+02 0.  0.
         12    1    1    2    0    0  0.32531126598E+01 -0.35227793308E+02 -0.25140475250E+02  0.43400733394E+02  0.00000000000E+00 0. -1.
         11    1    3    3    0    0  0.22313977382E+01  0.18996213738E+01  0.35656630584E+01  0.46153711159E+01  0.51100000000E-03 0. -1.
        -11    1    3    3    0    0 -0.87319242540E+01  0.99862763649E+01  0.11445184968E+02  0.17520401709E+02  0.51100000000E-03 0.  1.
        -12    1    3    3    0    0  0.32474138560E+01  0.23341895569E+02  0.10129627223E+02  0.25651493781E+02  0.00000000000E+00 0.  1.
</event>
<event>
 7    1  0.2682317E-010  0.4778726E+02  0.7816164E-02  0.1312668E+00
        -11   -1    0    0    0    0  0.00000000000E+00  0.00000000000E+00  0.45593999997E+02  0.45594000000E+02  0.51100000000E-03 0. -1.
         11   -1    0    0    0    0 -0.00000000000E+00 -0.00000000000E+00 -0.45593999997E+02  0.45594000000E+02  0.51100000000E-03 0.  1.
    9900012    2    1    2    0    0 -0.34339086673E+02 -0.72666131726E+01 -0.25527384395E+02  0.47787263894E+02  0.19999967397E+02 0.  0.
         12    1    1    2    0    0  0.34339086673E+02  0.72666131726E+01  0.25527384395E+02  0.43400736106E+02  0.00000000000E+00 0. -1.
         11    1    3    3    0    0 -0.68770869564E+01 -0.15477254823E+01 -0.13248477618E+02  0.15007062959E+02  0.51100000000E-03 0. -1.
        -11    1    3    3    0    0 -0.16955653251E+02 -0.66325118890E+01 -0.12744372718E+02  0.22223938160E+02  0.51100000000E-03 0.  1.
         12    1    3    3    0    0 -0.10506346466E+02  0.91362419867E+00  0.46546594151E+00  0.10556262775E+02  0.00000000000E+00 0. -1.
</event>
<event>
 7    1  0.2682317E-010  0.4778727E+02  0.7816164E-02  0.1312668E+00
        -11   -1    0    0    0    0  0.00000000000E+00  0.00000000000E+00  0.45593999997E+02  0.45594000000E+02  0.51100000000E-03 0.  1.
         11   -1    0    0    0    0 -0.00000000000E+00 -0.00000000000E+00 -0.45593999997E+02  0.45594000000E+02  0.51100000000E-03 0. -1.
    9900012    2    1    2    0    0  0.38856888067E+01  0.39477707281E+02  0.17607826535E+02  0.47787268382E+02  0.19999987863E+02 0.  0.
         12    1    1    2    0    0 -0.38856888067E+01 -0.39477707281E+02 -0.17607826535E+02  0.43400731618E+02  0.00000000000E+00 0. -1.
         11    1    3    3    0    0 -0.34349014686E+01  0.14944288263E+02  0.63179776735E+01  0.16584545273E+02  0.51100000000E-03 0. -1.
        -11    1    3    3    0    0 -0.15984282650E+01  0.75154317449E+01 -0.18783010650E+01  0.79097852299E+01  0.51100000000E-03 0.  1.
        -12    1    3    3    0    0  0.89190185404E+01  0.17017987273E+02  0.13168149927E+02  0.23292937879E+02  0.00000000000E+00 0.  1.
</event>
<event>
 7    1  0.2682317E-010  0.4778727E+02  0.7816164E-02  0.1312668E+00
        -11   -1    0    0    0    0  0.00000000000E+00  0.00000000000E+00  0.45593999997E+02  0.45594000000E+02  0.51100000000E-03 0.  1.
         11   -1    0    0    0    0 -0.00000000000E+00 -0.00000000000E+00 -0.45593999997E+02  0.45594000000E+02  0.51100000000E-03 0. -1.
    9900012    2    1    2    0    0 -0.14710548129E+02  0.40640478086E+02  0.39464330576E+01  0.47787273978E+02  0.20000013377E+02 0.  0.
         12    1    1    2    0    0  0.14710548129E+02 -0.40640478086E+02 -0.39464330576E+01  0.43400726022E+02  0.00000000000E+00 0. -1.
         11    1    3    3    0    0 -0.28799468646E+01  0.11110183304E+02  0.48579456113E+01  0.12463141771E+02  0.51100000000E-03 0. -1.
        -11    1    3    3    0    0 -0.13381914697E+02  0.28586351983E+02  0.22868106593E+01  0.31646242493E+02  0.51100000000E-03 0.  1.
        -12    1    3    3    0    0  0.15513134329E+01  0.94394279942E+00 -0.31983232129E+01  0.36778897142E+01  0.00000000000E+00 0.  1.
</event>
<event>
 7    1  0.2682317E-010  0.4778727E+02  0.7816164E-02  0.1312668E+00
        -11   -1    0    0    0    0  0.00000000000E+00  0.00000000000E+00  0.45593999997E+02  0.45594000000E+02  0.51100000000E-03 0.  1.
         11   -1    0    0    0    0 -0.00000000000E+00 -0.00000000000E+00 -0.45593999997E+02  0.45594000000E+02  0.51100000000E-03 0. -1.
    9900012    2    1    2    0    0  0.80771924469E+01 -0.40706060448E+02  0.12704289279E+02  0.47787270039E+02  0.19999995417E+02 0.  0.
         12    1    1    2    0    0 -0.80771924469E+01  0.40706060448E+02 -0.12704289279E+02  0.43400729961E+02  0.00000000000E+00 0. -1.
         11    1    3    3    0    0  0.10507497898E+02 -0.21327982288E+02  0.74507391969E+01  0.24915935772E+02  0.51100000000E-03 0. -1.
        -11    1    3    3    0    0  0.18173656180E+01  0.53572686832E+00  0.55813516978E+00  0.19751800413E+01  0.51100000000E-03 0.  1.
         12    1    3    3    0    0 -0.42476710691E+01 -0.19913805029E+02  0.46954149118E+01  0.20896154226E+02  0.00000000000E+00 0. -1.
</event>
<event>
 7    1  0.2682317E-010  0.4778727E+02  0.7816164E-02  0.1312668E+00
        -11   -1    0    0    0    0  0.00000000000E+00  0.00000000000E+00  0.45593999997E+02  0.45594000000E+02  0.51100000000E-03 0.  1.
         11   -1    0    0    0    0 -0.00000000000E+00 -0.00000000000E+00 -0.45593999997E+02  0.45594000000E+02  0.51100000000E-03 0. -1.
    9900012    2    1    2    0    0 -0.84481412428E+01  0.38327939922E+02  0.18526242944E+02  0.47787265597E+02  0.19999975163E+02 0.  0.
         12    1    1    2    0    0  0.84481412428E+01 -0.38327939922E+02 -0.18526242944E+02  0.43400734403E+02  0.00000000000E+00 0. -1.
         11    1    3    3    0    0  0.25099843628E+01  0.33810387044E+00  0.10233590380E+01  0.27315928889E+01  0.51100000000E-03 0. -1.
        -11    1    3    3    0    0 -0.55079001510E+01  0.80400012186E+01  0.94314091555E+01  0.13562081794E+02  0.51100000000E-03 0.  1.
         12    1    3    3    0    0 -0.54502254546E+01  0.29949834833E+02  0.80714747500E+01  0.31493590914E+02  0.00000000000E+00 0. -1.
</event>
<event>
 7    1  0.2682317E-010  0.4778727E+02  0.7816164E-02  0.1312668E+00
        -11   -1    0    0    0    0  0.00000000000E+00  0.00000000000E+00  0.45593999997E+02  0.45594000000E+02  0.51100000000E-03 0. -1.
         11   -1    0    0    0    0 -0.00000000000E+00 -0.00000000000E+00 -0.45593999997E+02  0.45594000000E+02  0.51100000000E-03 0.  1.
    9900012    2    1    2    0    0  0.20802628016E+02 -0.36592344065E+02  0.10577057107E+02  0.47787272891E+02  0.20000008420E+02 0.  0.
         12    1    1    2    0    0 -0.20802628016E+02  0.36592344065E+02 -0.10577057107E+02  0.43400727109E+02  0.00000000000E+00 0. -1.
         11    1    3    3    0    0  0.71932935292E+00 -0.31604732758E+00  0.32231213776E+01  0.33175039272E+01  0.51100000000E-03 0. -1.
        -11    1    3    3    0    0  0.74870077424E+01 -0.20497288979E+02  0.10185642702E+02  0.24081973713E+02  0.51100000000E-03 0.  1.
        -12    1    3    3    0    0  0.12596290921E+02 -0.15779007759E+02 -0.28317069725E+01  0.20387795251E+02  0.00000000000E+00 0.  1.
</event>
<event>
 7    1  0.2682317E-010  0.4778727E+02  0.7816164E-02  0.1312668E+00
        -11   -1    0    0    0    0  0.00000000000E+00  0.00000000000E+00  0.45593999997E+02  0.45594000000E+02  0.51100000000E-03 0.  1.
         11   -1    0    0    0    0 -0.00000000000E+00 -0.00000000000E+00 -0.45593999997E+02  0.45594000000E+02  0.51100000000E-03 0. -1.
    9900012    2    1    2    0    0  0.22069364358E+02  0.37133210411E+02 -0.42060837012E+01  0.47787270758E+02  0.19999998696E+02 0.  0.
         12    1    1    2    0    0 -0.22069364358E+02 -0.37133210411E+02  0.42060837012E+01  0.43400729242E+02  0.00000000000E+00 0. -1.
         11    1    3    3    0    0  0.65157571746E+01  0.73346571766E+01  0.27388669085E+01  0.10185955020E+02  0.51100000000E-03 0. -1.
        -11    1    3    3    0    0 -0.96040295102E+00 -0.73263620106E+00  0.14521593928E+01  0.18888877136E+01  0.51100000000E-03 0.  1.
         12    1    3    3    0    0  0.16514010135E+02  0.30531189436E+02 -0.83971100024E+01  0.35712428025E+02  0.00000000000E+00 0. -1.
</event>
<event>
 7    1  0.2682317E-010  0.4778727E+02  0.7816164E-02  0.1312668E+00
        -11   -1    0    0    0    0  0.00000000000E+00  0.00000000000E+00  0.45593999997E+02  0.45594000000E+02  0.51100000000E-03 0.  1.
         11   -1    0    0    0    0 -0.00000000000E+00 -0.00000000000E+00 -0.45593999997E+02  0.45594000000E+02  0.51100000000E-03 0. -1.
    9900012    2    1    2    0    0 -0.34539237320E+02  0.22677690300E+02 -0.13281081932E+02  0.47787266259E+02  0.19999978183E+02 0.  0.
         12    1    1    2    0    0  0.34539237320E+02 -0.22677690300E+02  0.13281081932E+02  0.43400733741E+02  0.00000000000E+00 0. -1.
         11    1    3    3    0    0  0.46512542526E-01  0.68791479069E+01 -0.51524139541E+00  0.68985732799E+01  0.51100000000E-03 0. -1.
        -11    1    3    3    0    0 -0.13857351659E+02  0.92623946944E+01 -0.25092816305E+01  0.16855700669E+02  0.51100000000E-03 0.  1.
         12    1    3    3    0    0 -0.20728398203E+02  0.65361476982E+01 -0.10256558906E+02  0.24032992310E+02  0.00000000000E+00 0. -1.
</event>
<event>
 7    1  0.2682317E-010  0.4778727E+02  0.7816164E-02  0.1312668E+00
        -11   -1    0    0    0    0  0.00000000000E+00  0.00000000000E+00  0.45593999997E+02  0.45594000000E+02  0.51100000000E-03 0.  1.
         11   -1    0    0    0    0 -0.00000000000E+00 -0.00000000000E+00 -0.45593999997E+02  0.45594000000E+02  0.51100000000E-03 0. -1.
    9900012    2    1    2    0    0 -0.14861452991E+02 -0.34840198794E+01  0.40627852578E+02  0.47787267465E+02  0.19999983679E+02 0.  0.
         12    1    1    2    0    0  0.14861452991E+02  0.34840198794E+01 -0.40627852578E+02  0.43400732535E+02  0.00000000000E+00 0. -1.
         11    1    3    3    0    0  0.21823164359E+01  0.41803226867E+00  0.66831893639E+01  0.70428883520E+01  0.51100000000E-03 0. -1.
        -11    1    3    3    0    0 -0.70494826151E+00  0.23567538074E+01  0.13993257676E+02  0.14207832390E+02  0.51100000000E-03 0.  1.
        -12    1    3    3    0    0 -0.16338821165E+02 -0.62588059555E+01  0.19951405538E+02  0.26536546723E+02  0.00000000000E+00 0.  1.
</event>
<event>
 7    1  0.2682317E-010  0.4778727E+02  0.7816164E-02  0.1312668E+00
        -11   -1    0    0    0    0  0.00000000000E+00  0.00000000000E+00  0.45593999997E+02  0.45594000000E+02  0.51100000000E-03 0. -1.
         11   -1    0    0    0    0 -0.00000000000E+00 -0.00000000000E+00 -0.45593999997E+02  0.45594000000E+02  0.51100000000E-03 0.  1.
    9900012    2    1    2    0    0  0.14255945955E+02 -0.25093404676E+02 -0.32414691389E+02  0.47787272228E+02  0.20000005398E+02 0.  0.
         12    1    1    2    0    0 -0.14255945955E+02  0.25093404676E+02  0.32414691389E+02  0.43400727772E+02  0.00000000000E+00 0. -1.
         11    1    3    3    0    0 -0.20115555816E+01 -0.34010421306E+01 -0.28985563446E+01  0.49005175825E+01  0.51100000000E-03 0. -1.
        -11    1    3    3    0    0  0.32581332013E+01 -0.89576205115E+01 -0.20421754605E+02  0.22536691385E+02  0.51100000000E-03 0.  1.
         12    1    3    3    0    0  0.13009368335E+02 -0.12734742034E+02 -0.90943804395E+01  0.20350063261E+02  0.00000000000E+00 0. -1.
</event>
<event>
 7    1  0.2682317E-010  0.4778727E+02  0.7816164E-02  0.1312668E+00
        -11   -1    0    0    0    0  0.00000000000E+00  0.00000000000E+00  0.45593999997E+02  0.45594000000E+02  0.51100000000E-03 0. -1.
         11   -1    0    0    0    0 -0.00000000000E+00 -0.00000000000E+00 -0.45593999997E+02  0.45594000000E+02  0.51100000000E-03 0.  1.
    9900012    2    1    2    0    0  0.32836805651E+02 -0.10688766829E+01 -0.28358861980E+02  0.47787270104E+02  0.19999995710E+02 0.  0.
         12    1    1    2    0    0 -0.32836805651E+02  0.10688766829E+01  0.28358861980E+02  0.43400729896E+02  0.00000000000E+00 0. -1.
         11    1    3    3    0    0  0.16545421642E+02 -0.40843716912E+01 -0.13642817685E+02  0.21830243793E+02  0.51100000000E-03 0. -1.
        -11    1    3    3    0    0  0.17467299833E+02  0.57377700472E+01 -0.12169384206E+02  0.22048185430E+02  0.51100000000E-03 0.  1.
         12    1    3    3    0    0 -0.11759158239E+01 -0.27222750389E+01 -0.25466600897E+01  0.39088408800E+01  0.00000000000E+00 0. -1.
</event>
<event>
 7    1  0.2682317E-010  0.4778727E+02  0.7816164E-02  0.1312668E+00
        -11   -1    0    0    0    0  0.00000000000E+00  0.00000000000E+00  0.45593999997E+02  0.45594000000E+02  0.51100000000E-03 0.  1.
         11   -1    0    0    0    0 -0.00000000000E+00 -0.00000000000E+00 -0.45593999997E+02  0.45594000000E+02  0.51100000000E-03 0. -1.
    9900012    2    1    2    0    0 -0.34583835535E+02  0.19867639188E+02 -0.17113117301E+02  0.47787267852E+02  0.19999985446E+02 0.  0.
         12    1    1    2    0    0  0.34583835535E+02 -0.19867639188E+02  0.17113117301E+02  0.43400732148E+02  0.00000000000E+00 0. -1.
         11    1    3    3    0    0 -0.10191530962E+02  0.10828820813E+02 -0.13504139376E+02  0.20087121349E+02  0.51100000000E-03 0. -1.
        -11    1    3    3    0    0 -0.52588784523E+01  0.60862137944E+01 -0.19007508241E+01  0.82650260063E+01  0.51100000000E-03 0.  1.
        -12    1    3    3    0    0 -0.19133426120E+02  0.29526045810E+01 -0.17082271007E+01  0.19435120497E+02  0.00000000000E+00 0.  1.
</event>
<event>
 7    1  0.2682317E-010  0.4778727E+02  0.7816164E-02  0.1312668E+00
        -11   -1    0    0    0    0  0.00000000000E+00  0.00000000000E+00  0.45593999997E+02  0.45594000000E+02  0.51100000000E-03 0. -1.
         11   -1    0    0    0    0 -0.00000000000E+00 -0.00000000000E+00 -0.45593999997E+02  0.45594000000E+02  0.51100000000E-03 0.  1.
    9900012    2    1    2    0    0  0.30685511442E+02 -0.39435371687E+01  0.30437987373E+02  0.47787272204E+02  0.20000005287E+02 0.  0.
         12    1    1    2    0    0 -0.30685511442E+02  0.39435371687E+01 -0.30437987373E+02  0.43400727796E+02  0.00000000000E+00 0. -1.
         11    1    3    3    0    0  0.32508161101E+01 -0.35152969228E+01  0.60120623553E+01  0.76857017807E+01  0.51100000000E-03 0. -1.
        -11    1    3    3    0    0  0.60637062802E+00 -0.40280470051E+01  0.75493699073E+00  0.41427983459E+01  0.51100000000E-03 0.  1.
        -12    1    3    3    0    0  0.26828324704E+02  0.35998067592E+01  0.23670988027E+02  0.35958772078E+02  0.00000000000E+00 0.  1.
</event>
<event>
 7    1  0.2682317E-010  0.4778729E+02  0.7816164E-02  0.1312668E+00
        -11   -1    0    0    0    0  0.00000000000E+00  0.00000000000E+00  0.45593999997E+02  0.45594000000E+02  0.51100000000E-03 0.  1.
         11   -1    0    0    0    0 -0.00000000000E+00 -0.00000000000E+00 -0.45593999997E+02  0.45594000000E+02  0.51100000000E-03 0. -1.
    9900012    2    1    2    0    0  0.11233140747E+02  0.33710657995E+02  0.24920460139E+02  0.47787294394E+02  0.20000106461E+02 0.  0.
         12    1    1    2    0    0 -0.11233140747E+02 -0.33710657995E+02 -0.24920460139E+02  0.43400705606E+02  0.00000000000E+00 0. -1.
         11    1    3    3    0    0  0.26421867454E+01  0.31395604064E-01  0.41007042312E+01  0.48783103565E+01  0.51100000000E-03 0. -1.
        -11    1    3    3    0    0  0.19514773775E+01  0.12783188269E+01 -0.17081223344E+01  0.28913742664E+01  0.51100000000E-03 0.  1.
        -12    1    3    3    0    0  0.66394766238E+01  0.32400943564E+02  0.22527878243E+02  0.40017609771E+02  0.00000000000E+00 0.  1.
</event>
<event>
 7    1  0.2682317E-010  0.4778724E+02  0.7816164E-02  0.1312668E+00
        -11   -1    0    0    0    0  0.00000000000E+00  0.00000000000E+00  0.45593999997E+02  0.45594000000E+02  0.51100000000E-03 0.  1.
         11   -1    0    0    0    0 -0.00000000000E+00 -0.00000000000E+00 -0.45593999997E+02  0.45594000000E+02  0.51100000000E-03 0. -1.
    9900012    2    1    2    0    0 -0.26597457182E+01  0.40438250320E+02 -0.15533826673E+02  0.47787238401E+02  0.19999851167E+02 0.  0.
         12    1    1    2    0    0  0.26597457182E+01 -0.40438250320E+02  0.15533826673E+02  0.43400761599E+02  0.00000000000E+00 0. -1.
         11    1    3    3    0    0 -0.32955311464E+00  0.40817525936E+01 -0.46370404111E+01  0.61863926101E+01  0.51100000000E-03 0. -1.
        -11    1    3    3    0    0  0.46004121631E+00  0.36635557902E+02 -0.78688836775E+01  0.37473925219E+02  0.51100000000E-03 0.  1.
        -12    1    3    3    0    0 -0.27902338199E+01 -0.27906017555E+00 -0.30279025845E+01  0.41269205726E+01  0.00000000000E+00 0.  1.
</event>
<event>
 7    1  0.2682317E-010  0.4778727E+02  0.7816164E-02  0.1312668E+00
        -11   -1    0    0    0    0  0.00000000000E+00  0.00000000000E+00  0.45593999997E+02  0.45594000000E+02  0.51100000000E-03 0.  1.
         11   -1    0    0    0    0 -0.00000000000E+00 -0.00000000000E+00 -0.45593999997E+02  0.45594000000E+02  0.51100000000E-03 0. -1.
    9900012    2    1    2    0    0 -0.13354549098E+02  0.39894054382E+02  0.10665082198E+02  0.47787268037E+02  0.19999986287E+02 0.  0.
         12    1    1    2    0    0  0.13354549098E+02 -0.39894054382E+02 -0.10665082198E+02  0.43400731963E+02  0.00000000000E+00 0. -1.
         11    1    3    3    0    0 -0.35540408973E+01  0.14365257299E+02  0.25579537365E+01  0.15017821132E+02  0.51100000000E-03 0. -1.
        -11    1    3    3    0    0 -0.13876217494E+02  0.19585175696E+02  0.36047984342E+01  0.24271858005E+02  0.51100000000E-03 0.  1.
         12    1    3    3    0    0  0.40757092937E+01  0.59436213869E+01  0.45023300276E+01  0.84975889001E+01  0.00000000000E+00 0. -1.
</event>
<event>
 7    1  0.2682317E-010  0.4778727E+02  0.7816164E-02  0.1312668E+00
        -11   -1    0    0    0    0  0.00000000000E+00  0.00000000000E+00  0.45593999997E+02  0.45594000000E+02  0.51100000000E-03 0. -1.
         11   -1    0    0    0    0 -0.00000000000E+00 -0.00000000000E+00 -0.45593999997E+02  0.45594000000E+02  0.51100000000E-03 0.  1.
    9900012    2    1    2    0    0  0.79293371028E+01 -0.12324144869E+02 -0.40851737095E+02  0.47787270083E+02  0.19999995616E+02 0.  0.
         12    1    1    2    0    0 -0.79293371028E+01  0.12324144869E+02  0.40851737095E+02  0.43400729917E+02  0.00000000000E+00 0. -1.
         11    1    3    3    0    0 -0.10454735291E+00  0.23302667207E+00 -0.18005431069E+02  0.18007242427E+02  0.51100000000E-03 0. -1.
        -11    1    3    3    0    0 -0.27658497839E+01 -0.17354667498E+01 -0.71919393128E+01  0.78984657502E+01  0.51100000000E-03 0.  1.
        -12    1    3    3    0    0  0.10799734240E+02 -0.10821704791E+02 -0.15654366713E+02  0.21881561905E+02  0.00000000000E+00 0.  1.
</event>
<event>
 7    1  0.2682317E-010  0.4778727E+02  0.7816164E-02  0.1312668E+00
        -11   -1    0    0    0    0  0.00000000000E+00  0.00000000000E+00  0.45593999997E+02  0.45594000000E+02  0.51100000000E-03 0.  1.
         11   -1    0    0    0    0 -0.00000000000E+00 -0.00000000000E+00 -0.45593999997E+02  0.45594000000E+02  0.51100000000E-03 0. -1.
    9900012    2    1    2    0    0  0.41034265633E+02  0.47150499842E+01  0.13325937126E+02  0.47787271289E+02  0.20000001114E+02 0.  0.
         12    1    1    2    0    0 -0.41034265633E+02 -0.47150499842E+01 -0.13325937126E+02  0.43400728711E+02  0.00000000000E+00 0. -1.
         11    1    3    3    0    0  0.10321322302E+02  0.75447394944E+01  0.27768536467E+01  0.13082954733E+02  0.51100000000E-03 0. -1.
        -11    1    3    3    0    0  0.15840774888E+02  0.42933713758E+01  0.35577275853E+01  0.16793469345E+02  0.51100000000E-03 0.  1.
        -12    1    3    3    0    0  0.14872168443E+02 -0.71230608859E+01  0.69913558937E+01  0.17910847211E+02  0.00000000000E+00 0.  1.
</event>
<event>
 7    1  0.2682317E-010  0.4778726E+02  0.7816164E-02  0.1312668E+00
        -11   -1    0    0    0    0  0.00000000000E+00  0.00000000000E+00  0.45593999997E+02  0.45594000000E+02  0.51100000000E-03 0.  1.
         11   -1    0    0    0    0 -0.00000000000E+00 -0.00000000000E+00 -0.45593999997E+02  0.45594000000E+02  0.51100000000E-03 0. -1.
    9900012    2    1    2    0    0 -0.28926825959E+02 -0.40141114748E+01  0.32105300121E+02  0.47787255227E+02  0.19999927882E+02 0.  0.
         12    1    1    2    0    0  0.28926825959E+02  0.40141114748E+01 -0.32105300121E+02  0.43400744773E+02  0.00000000000E+00 0. -1.
         11    1    3    3    0    0 -0.26528636334E+01  0.11847072300E+01  0.32860354836E+01  0.43862565063E+01  0.51100000000E-03 0. -1.
        -11    1    3    3    0    0 -0.23470764920E+02 -0.66550799729E+01  0.13749782773E+02  0.28003989394E+02  0.51100000000E-03 0.  1.
         12    1    3    3    0    0 -0.28031974055E+01  0.14562612682E+01  0.15069481864E+02  0.15397009327E+02  0.00000000000E+00 0. -1.
</event>
<event>
 7    1  0.2682317E-010  0.4778728E+02  0.7816164E-02  0.1312668E+00
        -11   -1    0    0    0    0  0.00000000000E+00  0.00000000000E+00  0.45593999997E+02  0.45594000000E+02  0.51100000000E-03 0.  1.
         11   -1    0    0    0    0 -0.00000000000E+00 -0.00000000000E+00 -0.45593999997E+02  0.45594000000E+02  0.51100000000E-03 0. -1.
    9900012    2    1    2    0    0  0.29372630785E+02  0.23309491271E+02 -0.21852666976E+02  0.47787275622E+02  0.20000020872E+02 0.  0.
         12    1    1    2    0    0 -0.29372630785E+02 -0.23309491271E+02  0.21852666976E+02  0.43400724378E+02  0.00000000000E+00 0. -1.
         11    1    3    3    0    0  0.36428163041E+01 -0.61227050658E+00  0.23089749604E+00  0.37011214129E+01  0.51100000000E-03 0. -1.
        -11    1    3    3    0    0  0.60573214514E+01  0.23836051105E+01  0.13755187152E+01  0.66531773226E+01  0.51100000000E-03 0.  1.
         12    1    3    3    0    0  0.19672493029E+02  0.21538156667E+02 -0.23459083188E+02  0.37432976887E+02  0.00000000000E+00 0. -1.
</event>
<event>
 7    1  0.2682317E-010  0.4778728E+02  0.7816164E-02  0.1312668E+00
        -11   -1    0    0    0    0  0.00000000000E+00  0.00000000000E+00  0.45593999997E+02  0.45594000000E+02  0.51100000000E-03 0.  1.
         11   -1    0    0    0    0 -0.00000000000E+00 -0.00000000000E+00 -0.45593999997E+02  0.45594000000E+02  0.51100000000E-03 0. -1.
    9900012    2    1    2    0    0  0.12882884453E+02  0.17272149276E+02  0.37673956475E+02  0.47787275941E+02  0.20000022324E+02 0.  0.
         12    1    1    2    0    0 -0.12882884453E+02 -0.17272149276E+02 -0.37673956475E+02  0.43400724059E+02  0.00000000000E+00 0. -1.
         11    1    3    3    0    0 -0.19241283392E+01  0.41068084872E+01  0.24258277252E+01  0.51432272193E+01  0.51100000000E-03 0. -1.
        -11    1    3    3    0    0  0.15880504218E+02  0.93760057715E+01  0.33692628658E+02  0.38409544707E+02  0.51100000000E-03 0.  1.
        -12    1    3    3    0    0 -0.10734914264E+01  0.37893350171E+01  0.15555000916E+01  0.42345040146E+01  0.00000000000E+00 0.  1.
</event>
<event>
 7    1  0.2682317E-010  0.4778728E+02  0.7816164E-02  0.1312668E+00
        -11   -1    0    0    0    0  0.00000000000E+00  0.00000000000E+00  0.45593999997E+02  0.45594000000E+02  0.51100000000E-03 0.  1.
         11   -1    0    0    0    0 -0.00000000000E+00 -0.00000000000E+00 -0.45593999997E+02  0.45594000000E+02  0.51100000000E-03 0. -1.
    9900012    2    1    2    0    0  0.39850650351E+02 -0.13755274757E+02  0.10312163748E+02  0.47787278368E+02  0.20000033391E+02 0.  0.
         12    1    1    2    0    0 -0.39850650351E+02  0.13755274757E+02 -0.10312163748E+02  0.43400721632E+02  0.00000000000E+00 0. -1.
         11    1    3    3    0    0  0.81348298746E+01 -0.46680733523E+01  0.70135921538E+01  0.11711397913E+02  0.51100000000E-03 0. -1.
        -11    1    3    3    0    0  0.22754810789E+02 -0.10966043759E+02  0.69824809806E+01  0.26206689426E+02  0.51100000000E-03 0.  1.
         12    1    3    3    0    0  0.89610096869E+01  0.18788423545E+01 -0.36839093861E+01  0.98691910290E+01  0.00000000000E+00 0. -1.
</event>
<event>
 7    1  0.2682317E-010  0.4778727E+02  0.7816164E-02  0.1312668E+00
        -11   -1    0    0    0    0  0.00000000000E+00  0.00000000000E+00  0.45593999997E+02  0.45594000000E+02  0.51100000000E-03 0.  1.
         11   -1    0    0    0    0 -0.00000000000E+00 -0.00000000000E+00 -0.45593999997E+02  0.45594000000E+02  0.51100000000E-03 0. -1.
    9900012    2    1    2    0    0  0.42290949557E+01  0.11512320060E+02  0.41631772048E+02  0.47787271882E+02  0.20000003819E+02 0.  0.
         12    1    1    2    0    0 -0.42290949557E+01 -0.11512320060E+02 -0.41631772048E+02  0.43400728118E+02  0.00000000000E+00 0. -1.
         11    1    3    3    0    0 -0.76544771106E+00  0.12741636061E+01  0.20972440731E+01  0.25705711538E+01  0.51100000000E-03 0. -1.
        -11    1    3    3    0    0  0.10042615314E+01 -0.48160750541E+01  0.17872226751E+02  0.18536979512E+02  0.51100000000E-03 0.  1.
        -12    1    3    3    0    0  0.39902811354E+01  0.15054231508E+02  0.21662301224E+02  0.26679721216E+02  0.00000000000E+00 0.  1.
</event>
<event>
 7    1  0.2682317E-010  0.4778727E+02  0.7816164E-02  0.1312668E+00
        -11   -1    0    0    0    0  0.00000000000E+00  0.00000000000E+00  0.45593999997E+02  0.45594000000E+02  0.51100000000E-03 0. -1.
         11   -1    0    0    0    0 -0.00000000000E+00 -0.00000000000E+00 -0.45593999997E+02  0.45594000000E+02  0.51100000000E-03 0.  1.
    9900012    2    1    2    0    0  0.97597963709E+01  0.35050924853E+02 -0.23660140144E+02  0.47787272012E+02  0.20000004411E+02 0.  0.
         12    1    1    2    0    0 -0.97597963709E+01 -0.35050924853E+02  0.23660140144E+02  0.43400727988E+02  0.00000000000E+00 0. -1.
         11    1    3    3    0    0  0.52346004554E+00  0.27304843281E+02 -0.14122638771E+02  0.30745363929E+02  0.51100000000E-03 0.  1.
        -11    1    3    3    0    0 -0.11976252660E+01  0.11694145902E+01 -0.48527452226E+00  0.17427932707E+01  0.51100000000E-03 0. -1.
        -12    1    3    3    0    0  0.10433961591E+02  0.65766669823E+01 -0.90522268508E+01  0.15299114812E+02  0.00000000000E+00 0.  1.
</event>
<event>
 7    1  0.2682317E-010  0.4778727E+02  0.7816164E-02  0.1312668E+00
        -11   -1    0    0    0    0  0.00000000000E+00  0.00000000000E+00  0.45593999997E+02  0.45594000000E+02  0.51100000000E-03 0.  1.
         11   -1    0    0    0    0 -0.00000000000E+00 -0.00000000000E+00 -0.45593999997E+02  0.45594000000E+02  0.51100000000E-03 0. -1.
    9900012    2    1    2    0    0  0.22649278552E+02 -0.34445349041E+02 -0.13570241615E+02  0.47787270202E+02  0.19999996159E+02 0.  0.
         12    1    1    2    0    0 -0.22649278552E+02  0.34445349041E+02  0.13570241615E+02  0.43400729798E+02  0.00000000000E+00 0. -1.
         11    1    3    3    0    0  0.60219983145E+01 -0.14367653820E+02  0.10175190796E+00  0.15578969597E+02  0.51100000000E-03 0. -1.
        -11    1    3    3    0    0  0.43723119935E+01 -0.14899582267E+02 -0.49403991864E+01  0.16294852202E+02  0.51100000000E-03 0.  1.
         12    1    3    3    0    0  0.12254968244E+02 -0.51781129545E+01 -0.87315943367E+01  0.15913448403E+02  0.00000000000E+00 0. -1.
</event>
<event>
 7    1  0.2682317E-010  0.4778728E+02  0.7816164E-02  0.1312668E+00
        -11   -1    0    0    0    0  0.00000000000E+00  0.00000000000E+00  0.45593999997E+02  0.45594000000E+02  0.51100000000E-03 0. -1.
         11   -1    0    0    0    0 -0.00000000000E+00 -0.00000000000E+00 -0.45593999997E+02  0.45594000000E+02  0.51100000000E-03 0.  1.
    9900012    2    1    2    0    0  0.18756966704E+02  0.50361915849E+01 -0.38812827751E+02  0.47787278536E+02  0.20000034155E+02 0.  0.
         12    1    1    2    0    0 -0.18756966704E+02 -0.50361915849E+01  0.38812827751E+02  0.43400721464E+02  0.00000000000E+00 0. -1.
         11    1    3    3    0    0 -0.44925664411E+00  0.56424557578E+01 -0.23209394818E+01  0.61176710316E+01  0.51100000000E-03 0. -1.
        -11    1    3    3    0    0  0.45462998522E+01  0.23148119297E+01 -0.10830337003E+02  0.11971774992E+02  0.51100000000E-03 0.  1.
        -12    1    3    3    0    0  0.14659923495E+02 -0.29210761026E+01 -0.25661551267E+02  0.29697832512E+02  0.00000000000E+00 0.  1.
</event>
<event>
 7    1  0.2682317E-010  0.4778727E+02  0.7816164E-02  0.1312668E+00
        -11   -1    0    0    0    0  0.00000000000E+00  0.00000000000E+00  0.45593999997E+02  0.45594000000E+02  0.51100000000E-03 0.  1.
         11   -1    0    0    0    0 -0.00000000000E+00 -0.00000000000E+00 -0.45593999997E+02  0.45594000000E+02  0.51100000000E-03 0. -1.
    9900012    2    1    2    0    0  0.42649144682E+02  0.46349832510E+01 -0.65719961298E+01  0.47787265617E+02  0.19999975255E+02 0.  0.
         12    1    1    2    0    0 -0.42649144682E+02 -0.46349832510E+01  0.65719961298E+01  0.43400734383E+02  0.00000000000E+00 0. -1.
         11    1    3    3    0    0  0.73112769450E+01  0.50991614740E+01 -0.36185722316E+01  0.96203057936E+01  0.51100000000E-03 0. -1.
        -11    1    3    3    0    0  0.46069281026E+01  0.33776607469E+00 -0.56610727708E+01  0.73065462184E+01  0.51100000000E-03 0.  1.
        -12    1    3    3    0    0  0.30730939634E+02 -0.80194429772E+00  0.27076488727E+01  0.30860413605E+02  0.00000000000E+00 0.  1.
</event>
<event>
 7    1  0.2682317E-010  0.4778722E+02  0.7816164E-02  0.1312668E+00
        -11   -1    0    0    0    0  0.00000000000E+00  0.00000000000E+00  0.45593999997E+02  0.45594000000E+02  0.51100000000E-03 0.  1.
         11   -1    0    0    0    0 -0.00000000000E+00 -0.00000000000E+00 -0.45593999997E+02  0.45594000000E+02  0.51100000000E-03 0. -1.
    9900012    2    1    2    0    0  0.16656341696E+02 -0.39873600852E+02 -0.40361060505E+01  0.47787217569E+02  0.19999756180E+02 0.  0.
         12    1    1    2    0    0 -0.16656341696E+02  0.39873600852E+02  0.40361060505E+01  0.43400782431E+02  0.00000000000E+00 0. -1.
         11    1    3    3    0    0 -0.96020384507E+00 -0.45791941127E+01 -0.33425052848E+01  0.57500740852E+01  0.51100000000E-03 0. -1.
        -11    1    3    3    0    0  0.48451386534E+01 -0.17982767136E+02 -0.65485527330E+01  0.19741804011E+02  0.51100000000E-03 0.  1.
        -12    1    3    3    0    0  0.12771406888E+02 -0.17311639603E+02  0.58549519672E+01  0.22295339472E+02  0.00000000000E+00 0.  1.
</event>
<event>
 7    1  0.2682317E-010  0.4778728E+02  0.7816164E-02  0.1312668E+00
        -11   -1    0    0    0    0  0.00000000000E+00  0.00000000000E+00  0.45593999997E+02  0.45594000000E+02  0.51100000000E-03 0.  1.
         11   -1    0    0    0    0 -0.00000000000E+00 -0.00000000000E+00 -0.45593999997E+02  0.45594000000E+02  0.51100000000E-03 0. -1.
    9900012    2    1    2    0    0 -0.16298536374E+02 -0.26397085034E+02  0.30350857140E+02  0.47787275174E+02  0.20000018830E+02 0.  0.
         12    1    1    2    0    0  0.16298536374E+02  0.26397085034E+02 -0.30350857140E+02  0.43400724826E+02  0.00000000000E+00 0. -1.
         11    1    3    3    0    0 -0.21669662602E+01 -0.77801271470E+01  0.10717003299E+01  0.81470646895E+01  0.51100000000E-03 0. -1.
        -11    1    3    3    0    0  0.11217848240E+01 -0.59724112730E+01  0.11559444470E+02  0.13059435452E+02  0.51100000000E-03 0.  1.
        -12    1    3    3    0    0 -0.15253354937E+02 -0.12644546614E+02  0.17719712340E+02  0.26580775033E+02  0.00000000000E+00 0.  1.
</event>
<event>
 7    1  0.2682317E-010  0.4778727E+02  0.7816164E-02  0.1312668E+00
        -11   -1    0    0    0    0  0.00000000000E+00  0.00000000000E+00  0.45593999997E+02  0.45594000000E+02  0.51100000000E-03 0.  1.
         11   -1    0    0    0    0 -0.00000000000E+00 -0.00000000000E+00 -0.45593999997E+02  0.45594000000E+02  0.51100000000E-03 0. -1.
    9900012    2    1    2    0    0 -0.36212099198E+02 -0.12872548928E+02  0.20164438276E+02  0.47787271721E+02  0.20000003084E+02 0.  0.
         12    1    1    2    0    0  0.36212099198E+02  0.12872548928E+02 -0.20164438276E+02  0.43400728279E+02  0.00000000000E+00 0. -1.
         11    1    3    3    0    0 -0.48437165332E+01 -0.30205479658E+01 -0.15607171846E+01  0.59178660224E+01  0.51100000000E-03 0. -1.
        -11    1    3    3    0    0 -0.15920158423E+02 -0.68203750060E+01  0.32940187901E+01  0.17630074291E+02  0.51100000000E-03 0.  1.
        -12    1    3    3    0    0 -0.15448224241E+02 -0.30316259557E+01  0.18431136670E+02  0.24239331408E+02  0.00000000000E+00 0.  1.
</event>
<event>
 7    1  0.2682317E-010  0.4778727E+02  0.7816164E-02  0.1312668E+00
        -11   -1    0    0    0    0  0.00000000000E+00  0.00000000000E+00  0.45593999997E+02  0.45594000000E+02  0.51100000000E-03 0. -1.
         11   -1    0    0    0    0 -0.00000000000E+00 -0.00000000000E+00 -0.45593999997E+02  0.45594000000E+02  0.51100000000E-03 0.  1.
    9900012    2    1    2    0    0 -0.14094195561E+02  0.27583767504E+02 -0.30399223294E+02  0.47787270109E+02  0.19999995733E+02 0.  0.
         12    1    1    2    0    0  0.14094195561E+02 -0.27583767504E+02  0.30399223294E+02  0.43400729891E+02  0.00000000000E+00 0. -1.
         11    1    3    3    0    0 -0.11957796663E+00  0.65715638157E+01 -0.48852423334E+01  0.81893432454E+01  0.51100000000E-03 0. -1.
        -11    1    3    3    0    0 -0.12051162599E+02  0.23661832469E+02 -0.20231442211E+02  0.33382991028E+02  0.51100000000E-03 0.  1.
         12    1    3    3    0    0 -0.19234549950E+01 -0.26496287807E+01 -0.52825387494E+01  0.62149358349E+01  0.00000000000E+00 0. -1.
</event>
<event>
 7    1  0.2682317E-010  0.4778726E+02  0.7816164E-02  0.1312668E+00
        -11   -1    0    0    0    0  0.00000000000E+00  0.00000000000E+00  0.45593999997E+02  0.45594000000E+02  0.51100000000E-03 0. -1.
         11   -1    0    0    0    0 -0.00000000000E+00 -0.00000000000E+00 -0.45593999997E+02  0.45594000000E+02  0.51100000000E-03 0.  1.
    9900012    2    1    2    0    0 -0.39903312083E+02 -0.51369376798E+01 -0.16277638231E+02  0.47787263252E+02  0.19999964470E+02 0.  0.
         12    1    1    2    0    0  0.39903312083E+02  0.51369376798E+01  0.16277638231E+02  0.43400736748E+02  0.00000000000E+00 0. -1.
         11    1    3    3    0    0 -0.24744373954E+02 -0.22849717271E+01 -0.13383869629E+02  0.28224689630E+02  0.51100000000E-03 0. -1.
        -11    1    3    3    0    0 -0.12389987341E+02  0.11420880302E+01 -0.59805275920E+01  0.13805175186E+02  0.51100000000E-03 0.  1.
         12    1    3    3    0    0 -0.27689507878E+01 -0.39940539829E+01  0.30867589907E+01  0.57573984360E+01  0.00000000000E+00 0. -1.
</event>
<event>
 7    1  0.2682317E-010  0.4778727E+02  0.7816164E-02  0.1312668E+00
        -11   -1    0    0    0    0  0.00000000000E+00  0.00000000000E+00  0.45593999997E+02  0.45594000000E+02  0.51100000000E-03 0.  1.
         11   -1    0    0    0    0 -0.00000000000E+00 -0.00000000000E+00 -0.45593999997E+02  0.45594000000E+02  0.51100000000E-03 0. -1.
    9900012    2    1    2    0    0  0.15421249672E+02  0.18994826330E+02  0.35846968521E+02  0.47787268199E+02  0.19999987026E+02 0.  0.
         12    1    1    2    0    0 -0.15421249672E+02 -0.18994826330E+02 -0.35846968521E+02  0.43400731801E+02  0.00000000000E+00 0. -1.
         11    1    3    3    0    0  0.60067808831E+01  0.92515173890E+01  0.22151102735E+02  0.24745572195E+02  0.51100000000E-03 0. -1.
        -11    1    3    3    0    0 -0.18043554141E+01  0.57981901215E+01  0.74426158822E+01  0.96055837187E+01  0.51100000000E-03 0.  1.
         12    1    3    3    0    0  0.11218824203E+02  0.39451188197E+01  0.62532499028E+01  0.13436112286E+02  0.00000000000E+00 0. -1.
</event>
<event>
 7    1  0.2682317E-010  0.4778727E+02  0.7816164E-02  0.1312668E+00
        -11   -1    0    0    0    0  0.00000000000E+00  0.00000000000E+00  0.45593999997E+02  0.45594000000E+02  0.51100000000E-03 0. -1.
         11   -1    0    0    0    0 -0.00000000000E+00 -0.00000000000E+00 -0.45593999997E+02  0.45594000000E+02  0.51100000000E-03 0.  1.
    9900012    2    1    2    0    0  0.29507404827E+02 -0.27147222929E+02 -0.16612182802E+02  0.47787271091E+02  0.20000000213E+02 0.  0.
         12    1    1    2    0    0 -0.29507404827E+02  0.27147222929E+02  0.16612182802E+02  0.43400728909E+02  0.00000000000E+00 0. -1.
         11    1    3    3    0    0  0.44067695200E+01  0.34092205291E+00  0.12783989897E+01  0.46011030946E+01  0.51100000000E-03 0. -1.
        -11    1    3    3    0    0  0.18563153862E+02 -0.15179834437E+02 -0.56476434492E+01  0.24635623224E+02  0.51100000000E-03 0.  1.
        -12    1    3    3    0    0  0.65374814449E+01 -0.12308310544E+02 -0.12242938342E+02  0.18550544772E+02  0.00000000000E+00 0.  1.
</event>
<event>
 7    1  0.2682317E-010  0.4778727E+02  0.7816164E-02  0.1312668E+00
        -11   -1    0    0    0    0  0.00000000000E+00  0.00000000000E+00  0.45593999997E+02  0.45594000000E+02  0.51100000000E-03 0. -1.
         11   -1    0    0    0    0 -0.00000000000E+00 -0.00000000000E+00 -0.45593999997E+02  0.45594000000E+02  0.51100000000E-03 0.  1.
    9900012    2    1    2    0    0 -0.13425192209E+02  0.40311916144E+02 -0.88508122520E+01  0.47787271359E+02  0.20000001433E+02 0.  0.
         12    1    1    2    0    0  0.13425192209E+02 -0.40311916144E+02  0.88508122520E+01  0.43400728641E+02  0.00000000000E+00 0. -1.
         11    1    3    3    0    0  0.25168452295E+01  0.49140235223E+01 -0.45394315668E+01  0.71476273195E+01  0.51100000000E-03 0. -1.
        -11    1    3    3    0    0 -0.11194464342E+02  0.12741112876E+02 -0.42749253108E+01  0.17490768305E+02  0.51100000000E-03 0.  1.
         12    1    3    3    0    0 -0.47475730962E+01  0.22656779746E+02 -0.36455374359E-01  0.23148875734E+02  0.00000000000E+00 0. -1.
</event>
<event>
 7    1  0.2682317E-010  0.4778727E+02  0.7816164E-02  0.1312668E+00
        -11   -1    0    0    0    0  0.00000000000E+00  0.00000000000E+00  0.45593999997E+02  0.45594000000E+02  0.51100000000E-03 0. -1.
         11   -1    0    0    0    0 -0.00000000000E+00 -0.00000000000E+00 -0.45593999997E+02  0.45594000000E+02  0.51100000000E-03 0.  1.
    9900012    2    1    2    0    0  0.36335608669E+02  0.19601828675E+02  0.13383397366E+02  0.47787268787E+02  0.19999989708E+02 0.  0.
         12    1    1    2    0    0 -0.36335608669E+02 -0.19601828675E+02 -0.13383397366E+02  0.43400731213E+02  0.00000000000E+00 0. -1.
         11    1    3    3    0    0  0.10803740182E+00 -0.85079410120E+00 -0.62772880157E+00  0.10628106098E+01  0.51100000000E-03 0. -1.
        -11    1    3    3    0    0  0.12273330468E+02  0.15824589608E+02  0.82313468365E+01  0.21651959450E+02  0.51100000000E-03 0.  1.
         12    1    3    3    0    0  0.23954240800E+02  0.46280331681E+01  0.57797793306E+01  0.25072498727E+02  0.00000000000E+00 0. -1.
</event>
<event>
 7    1  0.2682317E-010  0.4778728E+02  0.7816164E-02  0.1312668E+00
        -11   -1    0    0    0    0  0.00000000000E+00  0.00000000000E+00  0.45593999997E+02  0.45594000000E+02  0.51100000000E-03 0.  1.
         11   -1    0    0    0    0 -0.00000000000E+00 -0.00000000000E+00 -0.45593999997E+02  0.45594000000E+02  0.51100000000E-03 0. -1.
    9900012    2    1    2    0    0 -0.19520486983E+02  0.26856196787E+02  0.27952061100E+02  0.47787280678E+02  0.20000043923E+02 0.  0.
         12    1    1    2    0    0  0.19520486983E+02 -0.26856196787E+02 -0.27952061100E+02  0.43400719322E+02  0.00000000000E+00 0. -1.
         11    1    3    3    0    0 -0.33004069853E+01  0.41124563984E+01  0.10476580058E+02  0.11728755854E+02  0.51100000000E-03 0. -1.
        -11    1    3    3    0    0 -0.83678520066E+01  0.75634414611E+01  0.15032831128E+02  0.18793951312E+02  0.51100000000E-03 0.  1.
        -12    1    3    3    0    0 -0.78522279912E+01  0.15180298928E+02  0.24426499138E+01  0.17264573512E+02  0.00000000000E+00 0.  1.
</event>
<event>
 7    1  0.2682317E-010  0.4778727E+02  0.7816164E-02  0.1312668E+00
        -11   -1    0    0    0    0  0.00000000000E+00  0.00000000000E+00  0.45593999997E+02  0.45594000000E+02  0.51100000000E-03 0. -1.
         11   -1    0    0    0    0 -0.00000000000E+00 -0.00000000000E+00 -0.45593999997E+02  0.45594000000E+02  0.51100000000E-03 0.  1.
    9900012    2    1    2    0    0  0.35068700453E+01  0.32870262422E+02 -0.28122427750E+02  0.47787271530E+02  0.20000002213E+02 0.  0.
         12    1    1    2    0    0 -0.35068700453E+01 -0.32870262422E+02  0.28122427750E+02  0.43400728470E+02  0.00000000000E+00 0. -1.
         11    1    3    3    0    0 -0.21625218249E+01  0.23124820346E+01 -0.16576080108E+01  0.35737569002E+01  0.51100000000E-03 0. -1.
        -11    1    3    3    0    0  0.84576669819E+01  0.26281124034E+02 -0.14455214863E+02  0.31163806704E+02  0.51100000000E-03 0.  1.
        -12    1    3    3    0    0 -0.27882751117E+01  0.42766563527E+01 -0.12009604876E+02  0.13049707926E+02  0.00000000000E+00 0.  1.
</event>
<event>
 7    1  0.2682317E-010  0.4778727E+02  0.7816164E-02  0.1312668E+00
        -11   -1    0    0    0    0  0.00000000000E+00  0.00000000000E+00  0.45593999997E+02  0.45594000000E+02  0.51100000000E-03 0.  1.
         11   -1    0    0    0    0 -0.00000000000E+00 -0.00000000000E+00 -0.45593999997E+02  0.45594000000E+02  0.51100000000E-03 0. -1.
    9900012    2    1    2    0    0 -0.18776740073E+02 -0.33257968057E+02  0.20614677000E+02  0.47787270573E+02  0.19999997849E+02 0.  0.
         12    1    1    2    0    0  0.18776740073E+02  0.33257968057E+02 -0.20614677000E+02  0.43400729427E+02  0.00000000000E+00 0. -1.
         11    1    3    3    0    0 -0.98617814359E+01 -0.93843341319E+01  0.10900995856E+02  0.17439959034E+02  0.51100000000E-03 0. -1.
        -11    1    3    3    0    0 -0.12082089088E+02 -0.21644531334E+02  0.75585656229E+01  0.25915140901E+02  0.51100000000E-03 0.  1.
        -12    1    3    3    0    0  0.31671304509E+01 -0.22291025910E+01  0.21551155208E+01  0.44321706378E+01  0.00000000000E+00 0.  1.
</event>
<event>
 7    1  0.2682317E-010  0.4778726E+02  0.7816164E-02  0.1312668E+00
        -11   -1    0    0    0    0  0.00000000000E+00  0.00000000000E+00  0.45593999997E+02  0.45594000000E+02  0.51100000000E-03 0.  1.
         11   -1    0    0    0    0 -0.00000000000E+00 -0.00000000000E+00 -0.45593999997E+02  0.45594000000E+02  0.51100000000E-03 0. -1.
    9900012    2    1    2    0    0  0.19541161101E+02  0.21838963160E+02  0.32012919663E+02  0.47787259057E+02  0.19999945344E+02 0.  0.
         12    1    1    2    0    0 -0.19541161101E+02 -0.21838963160E+02 -0.32012919663E+02  0.43400740943E+02  0.00000000000E+00 0. -1.
         11    1    3    3    0    0  0.25809659264E+01 -0.23718891177E+01  0.10363823544E+00  0.35068481924E+01  0.51100000000E-03 0. -1.
        -11    1    3    3    0    0  0.87383092695E+01  0.13552824231E+02  0.23178377517E+02  0.28236045723E+02  0.51100000000E-03 0.  1.
        -12    1    3    3    0    0  0.82218859052E+01  0.10658028047E+02  0.87309039105E+01  0.16044365141E+02  0.00000000000E+00 0.  1.
</event>
<event>
 7    1  0.2682317E-010  0.4778727E+02  0.7816164E-02  0.1312668E+00
        -11   -1    0    0    0    0  0.00000000000E+00  0.00000000000E+00  0.45593999997E+02  0.45594000000E+02  0.51100000000E-03 0. -1.
         11   -1    0    0    0    0 -0.00000000000E+00 -0.00000000000E+00 -0.45593999997E+02  0.45594000000E+02  0.51100000000E-03 0.  1.
    9900012    2    1    2    0    0 -0.16186481718E+02  0.40235628205E+02  0.16477357283E+01  0.47787274194E+02  0.20000014358E+02 0.  0.
         12    1    1    2    0    0  0.16186481718E+02 -0.40235628205E+02 -0.16477357283E+01  0.43400725806E+02  0.00000000000E+00 0. -1.
         11    1    3    3    0    0 -0.11822128920E+02  0.96726605438E+01  0.50884743587E+01  0.16100175954E+02  0.51100000000E-03 0. -1.
        -11    1    3    3    0    0 -0.20465105154E+01  0.60254417186E+01  0.15282415925E+01  0.65444385412E+01  0.51100000000E-03 0.  1.
        -12    1    3    3    0    0 -0.23178422832E+01  0.24537525943E+02 -0.49689802229E+01  0.25142659698E+02  0.00000000000E+00 0.  1.
</event>
<event>
 7    1  0.2682317E-010  0.4778727E+02  0.7816164E-02  0.1312668E+00
        -11   -1    0    0    0    0  0.00000000000E+00  0.00000000000E+00  0.45593999997E+02  0.45594000000E+02  0.51100000000E-03 0.  1.
         11   -1    0    0    0    0 -0.00000000000E+00 -0.00000000000E+00 -0.45593999997E+02  0.45594000000E+02  0.51100000000E-03 0. -1.
    9900012    2    1    2    0    0  0.13914097264E+02 -0.14797939138E+02  0.38354169037E+02  0.47787269730E+02  0.19999994008E+02 0.  0.
         12    1    1    2    0    0 -0.13914097264E+02  0.14797939138E+02 -0.38354169037E+02  0.43400730270E+02  0.00000000000E+00 0. -1.
         11    1    3    3    0    0  0.11558172776E+01  0.13505320703E-01  0.62738610316E+01  0.63794536191E+01  0.51100000000E-03 0. -1.
        -11    1    3    3    0    0  0.15789752302E+02 -0.91384228424E+01  0.16684802107E+02  0.24722655023E+02  0.51100000000E-03 0.  1.
        -12    1    3    3    0    0 -0.30314723151E+01 -0.56730216167E+01  0.15395505898E+02  0.16685161088E+02  0.00000000000E+00 0.  1.
</event>
<event>
 7    1  0.2682317E-010  0.4778727E+02  0.7816164E-02  0.1312668E+00
        -11   -1    0    0    0    0  0.00000000000E+00  0.00000000000E+00  0.45593999997E+02  0.45594000000E+02  0.51100000000E-03 0. -1.
         11   -1    0    0    0    0 -0.00000000000E+00 -0.00000000000E+00 -0.45593999997E+02  0.45594000000E+02  0.51100000000E-03 0.  1.
    9900012    2    1    2    0    0  0.37676262158E+02 -0.71950622049E+01 -0.20306491891E+02  0.47787271166E+02  0.20000000556E+02 0.  0.
         12    1    1    2    0    0 -0.37676262158E+02  0.71950622049E+01  0.20306491891E+02  0.43400728834E+02  0.00000000000E+00 0. -1.
         11    1    3    3    0    0  0.15965523048E+02  0.18773853608E+01 -0.11188634313E+02  0.19585914327E+02  0.51100000000E-03 0. -1.
        -11    1    3    3    0    0  0.22481418128E+02 -0.66208245306E+01 -0.10005420750E+02  0.25482502294E+02  0.51100000000E-03 0.  1.
         12    1    3    3    0    0 -0.77067901773E+00 -0.24516230351E+01  0.88756317139E+00  0.27188545452E+01  0.00000000000E+00 0. -1.
</event>
<event>
 7    1  0.2682317E-010  0.4778725E+02  0.7816164E-02  0.1312668E+00
        -11   -1    0    0    0    0  0.00000000000E+00  0.00000000000E+00  0.45593999997E+02  0.45594000000E+02  0.51100000000E-03 0.  1.
         11   -1    0    0    0    0 -0.00000000000E+00 -0.00000000000E+00 -0.45593999997E+02  0.45594000000E+02  0.51100000000E-03 0. -1.
    9900012    2    1    2    0    0 -0.21877436281E+02  0.59936865746E+01  0.37001056586E+02  0.47787254782E+02  0.19999925854E+02 0.  0.
         12    1    1    2    0    0  0.21877436281E+02 -0.59936865746E+01 -0.37001056586E+02  0.43400745218E+02  0.00000000000E+00 0. -1.
         11    1    3    3    0    0 -0.23521944918E+01  0.74049573696E+01  0.15071212585E+02  0.16956050885E+02  0.51100000000E-03 0. -1.
        -11    1    3    3    0    0 -0.12121551242E+02  0.30555309606E+01  0.16182785109E+02  0.20448736100E+02  0.51100000000E-03 0.  1.
         12    1    3    3    0    0 -0.74036905474E+01 -0.44668017556E+01  0.57470588918E+01  0.10382467797E+02  0.00000000000E+00 0. -1.
</event>
<event>
 7    1  0.2682317E-010  0.4778730E+02  0.7816164E-02  0.1312668E+00
        -11   -1    0    0    0    0  0.00000000000E+00  0.00000000000E+00  0.45593999997E+02  0.45594000000E+02  0.51100000000E-03 0. -1.
         11   -1    0    0    0    0 -0.00000000000E+00 -0.00000000000E+00 -0.45593999997E+02  0.45594000000E+02  0.51100000000E-03 0.  1.
    9900012    2    1    2    0    0 -0.52448912302E+01  0.28038035157E+02 -0.32710551461E+02  0.47787303273E+02  0.20000146944E+02 0.  0.
         12    1    1    2    0    0  0.52448912302E+01 -0.28038035157E+02  0.32710551461E+02  0.43400696727E+02  0.00000000000E+00 0. -1.
         11    1    3    3    0    0  0.14505432114E+01  0.38141246626E+00 -0.54108994597E+01  0.56149251377E+01  0.51100000000E-03 0. -1.
        -11    1    3    3    0    0 -0.77613080896E+00  0.24777463343E+02 -0.24981430582E+02  0.35193706013E+02  0.51100000000E-03 0.  1.
         12    1    3    3    0    0 -0.59193036326E+01  0.28791593478E+01 -0.23182214185E+01  0.69786721223E+01  0.00000000000E+00 0. -1.
</event>
<event>
 7    1  0.2682317E-010  0.4778727E+02  0.7816164E-02  0.1312668E+00
        -11   -1    0    0    0    0  0.00000000000E+00  0.00000000000E+00  0.45593999997E+02  0.45594000000E+02  0.51100000000E-03 0.  1.
         11   -1    0    0    0    0 -0.00000000000E+00 -0.00000000000E+00 -0.45593999997E+02  0.45594000000E+02  0.51100000000E-03 0. -1.
    9900012    2    1    2    0    0  0.32432708074E+02 -0.83053304673E+01  0.27618184872E+02  0.47787271864E+02  0.20000003734E+02 0.  0.
         12    1    1    2    0    0 -0.32432708074E+02  0.83053304673E+01 -0.27618184872E+02  0.43400728136E+02  0.00000000000E+00 0. -1.
         11    1    3    3    0    0 -0.79785560005E+00 -0.80073539713E+00 -0.92692279777E+00  0.14618265523E+01  0.51100000000E-03 0. -1.
        -11    1    3    3    0    0  0.10489184524E+02 -0.60553498136E+01  0.38169745949E+01  0.12698801072E+02  0.51100000000E-03 0.  1.
        -12    1    3    3    0    0  0.22741379150E+02 -0.14492452566E+01  0.24728133075E+02  0.33626644240E+02  0.00000000000E+00 0.  1.
</event>
<event>
 7    1  0.2682317E-010  0.4778727E+02  0.7816164E-02  0.1312668E+00
        -11   -1    0    0    0    0  0.00000000000E+00  0.00000000000E+00  0.45593999997E+02  0.45594000000E+02  0.51100000000E-03 0.  1.
         11   -1    0    0    0    0 -0.00000000000E+00 -0.00000000000E+00 -0.45593999997E+02  0.45594000000E+02  0.51100000000E-03 0. -1.
    9900012    2    1    2    0    0 -0.95896535019E-01 -0.30752039661E+02  0.30625588058E+02  0.47787265175E+02  0.19999973240E+02 0.  0.
         12    1    1    2    0    0  0.95896535019E-01  0.30752039661E+02 -0.30625588058E+02  0.43400734825E+02  0.00000000000E+00 0. -1.
         11    1    3    3    0    0 -0.10729216200E+01 -0.33944978077E+00  0.25638703295E+01  0.27999675505E+01  0.51100000000E-03 0. -1.
        -11    1    3    3    0    0 -0.12673752859E+01 -0.31504576740E+02  0.28441650467E+02  0.42462596214E+02  0.51100000000E-03 0.  1.
         12    1    3    3    0    0  0.22444003708E+01  0.10919868601E+01 -0.37993273853E+00  0.25247014107E+01  0.00000000000E+00 0. -1.
</event>
<event>
 7    1  0.2682317E-010  0.4778727E+02  0.7816164E-02  0.1312668E+00
        -11   -1    0    0    0    0  0.00000000000E+00  0.00000000000E+00  0.45593999997E+02  0.45594000000E+02  0.51100000000E-03 0. -1.
         11   -1    0    0    0    0 -0.00000000000E+00 -0.00000000000E+00 -0.45593999997E+02  0.45594000000E+02  0.51100000000E-03 0.  1.
    9900012    2    1    2    0    0  0.90130319112E+01  0.41990671934E+02 -0.62587777385E+01  0.47787267604E+02  0.19999984313E+02 0.  0.
         12    1    1    2    0    0 -0.90130319112E+01 -0.41990671934E+02  0.62587777385E+01  0.43400732396E+02  0.00000000000E+00 0. -1.
         11    1    3    3    0    0  0.54115855545E-01  0.13759887969E+02 -0.10987238401E+02  0.17608431315E+02  0.51100000000E-03 0. -1.
        -11    1    3    3    0    0  0.39284295419E+00  0.48336973446E+01  0.13568013692E+01  0.50358580026E+01  0.51100000000E-03 0.  1.
         12    1    3    3    0    0  0.85660731015E+01  0.23397086620E+02  0.33716592929E+01  0.25142978286E+02  0.00000000000E+00 0. -1.
</event>
<event>
 7    1  0.2682317E-010  0.4778727E+02  0.7816164E-02  0.1312668E+00
        -11   -1    0    0    0    0  0.00000000000E+00  0.00000000000E+00  0.45593999997E+02  0.45594000000E+02  0.51100000000E-03 0.  1.
         11   -1    0    0    0    0 -0.00000000000E+00 -0.00000000000E+00 -0.45593999997E+02  0.45594000000E+02  0.51100000000E-03 0. -1.
    9900012    2    1    2    0    0 -0.73139106575E+01 -0.36792768266E+02  0.21827109137E+02  0.47787265224E+02  0.19999973464E+02 0.  0.
         12    1    1    2    0    0  0.73139106575E+01  0.36792768266E+02 -0.21827109137E+02  0.43400734776E+02  0.00000000000E+00 0. -1.
         11    1    3    3    0    0  0.16326436977E+01 -0.35938079042E+01 -0.10465957338E+01  0.40836679085E+01  0.51100000000E-03 0. -1.
        -11    1    3    3    0    0  0.24885293041E+01 -0.17037815987E+02  0.13034709678E+02  0.21595916474E+02  0.51100000000E-03 0.  1.
        -12    1    3    3    0    0 -0.11435083659E+02 -0.16161144375E+02  0.98389951933E+01  0.22107680842E+02  0.00000000000E+00 0.  1.
</event>
<event>
 7    1  0.2682317E-010  0.4778727E+02  0.7816164E-02  0.1312668E+00
        -11   -1    0    0    0    0  0.00000000000E+00  0.00000000000E+00  0.45593999997E+02  0.45594000000E+02  0.51100000000E-03 0.  1.
         11   -1    0    0    0    0 -0.00000000000E+00 -0.00000000000E+00 -0.45593999997E+02  0.45594000000E+02  0.51100000000E-03 0. -1.
    9900012    2    1    2    0    0  0.16736885217E+02  0.31169949180E+02 -0.25138303058E+02  0.47787270291E+02  0.19999996565E+02 0.  0.
         12    1    1    2    0    0 -0.16736885217E+02 -0.31169949180E+02  0.25138303058E+02  0.43400729709E+02  0.00000000000E+00 0. -1.
         11    1    3    3    0    0  0.23095496202E+01  0.10440315645E+02 -0.13756621722E+02  0.17423514331E+02  0.51100000000E-03 0. -1.
        -11    1    3    3    0    0  0.11439025749E+02  0.19979627643E+02 -0.13440058953E+02  0.26658432357E+02  0.51100000000E-03 0.  1.
        -12    1    3    3    0    0  0.29883098476E+01  0.75000589293E+00  0.20583776168E+01  0.37053236023E+01  0.00000000000E+00 0.  1.
</event>
<event>
 7    1  0.2682317E-010  0.4778726E+02  0.7816164E-02  0.1312668E+00
        -11   -1    0    0    0    0  0.00000000000E+00  0.00000000000E+00  0.45593999997E+02  0.45594000000E+02  0.51100000000E-03 0.  1.
         11   -1    0    0    0    0 -0.00000000000E+00 -0.00000000000E+00 -0.45593999997E+02  0.45594000000E+02  0.51100000000E-03 0. -1.
    9900012    2    1    2    0    0 -0.30097963799E+02  0.74796701090E+01  0.30361010318E+02  0.47787264553E+02  0.19999970405E+02 0.  0.
         12    1    1    2    0    0  0.30097963799E+02 -0.74796701090E+01 -0.30361010318E+02  0.43400735447E+02  0.00000000000E+00 0. -1.
         11    1    3    3    0    0  0.57417560667E+00  0.26603998546E+00 -0.42795794079E-01  0.63426070529E+00  0.51100000000E-03 0. -1.
        -11    1    3    3    0    0 -0.32816914078E+02  0.76984055060E+01  0.27451618209E+02  0.43471906324E+02  0.51100000000E-03 0.  1.
        -12    1    3    3    0    0  0.21447746722E+01 -0.48477538243E+00  0.29521879029E+01  0.36810975238E+01  0.00000000000E+00 0.  1.
</event>
<event>
 7    1  0.2682317E-010  0.4778726E+02  0.7816164E-02  0.1312668E+00
        -11   -1    0    0    0    0  0.00000000000E+00  0.00000000000E+00  0.45593999997E+02  0.45594000000E+02  0.51100000000E-03 0.  1.
         11   -1    0    0    0    0 -0.00000000000E+00 -0.00000000000E+00 -0.45593999997E+02  0.45594000000E+02  0.51100000000E-03 0. -1.
    9900012    2    1    2    0    0  0.11185216744E+02  0.13372519020E+01  0.41913321362E+02  0.47787264708E+02  0.19999971111E+02 0.  0.
         12    1    1    2    0    0 -0.11185216744E+02 -0.13372519020E+01 -0.41913321362E+02  0.43400735292E+02  0.00000000000E+00 0. -1.
         11    1    3    3    0    0  0.82964983400E+01  0.25093541785E+01  0.70692804734E+01  0.11184966239E+02  0.51100000000E-03 0. -1.
        -11    1    3    3    0    0  0.53473470640E+00 -0.13851780403E+01 -0.18260379223E+00  0.14959959277E+01  0.51100000000E-03 0.  1.
        -12    1    3    3    0    0  0.23539836972E+01  0.21307576376E+00  0.35026644681E+02  0.35106302541E+02  0.00000000000E+00 0.  1.
</event>
<event>
 7    1  0.2682317E-010  0.4778727E+02  0.7816164E-02  0.1312668E+00
        -11   -1    0    0    0    0  0.00000000000E+00  0.00000000000E+00  0.45593999997E+02  0.45594000000E+02  0.51100000000E-03 0.  1.
         11   -1    0    0    0    0 -0.00000000000E+00 -0.00000000000E+00 -0.45593999997E+02  0.45594000000E+02  0.51100000000E-03 0. -1.
    9900012    2    1    2    0    0 -0.58526282591E+01 -0.15611682328E+02  0.40070501081E+02  0.47787274896E+02  0.20000017561E+02 0.  0.
         12    1    1    2    0    0  0.58526282591E+01  0.15611682328E+02 -0.40070501081E+02  0.43400725104E+02  0.00000000000E+00 0. -1.
         11    1    3    3    0    0  0.22642514941E+01 -0.21831850158E+00 -0.34669948554E+00  0.23010212062E+01  0.51100000000E-03 0. -1.
        -11    1    3    3    0    0 -0.63220477323E+01 -0.50929641888E+01  0.28494580602E+02  0.29628494658E+02  0.51100000000E-03 0.  1.
        -12    1    3    3    0    0 -0.17948320209E+01 -0.10300399638E+02  0.11922619965E+02  0.15857759032E+02  0.00000000000E+00 0.  1.
</event>
<event>
 7    1  0.2682317E-010  0.4778727E+02  0.7816164E-02  0.1312668E+00
        -11   -1    0    0    0    0  0.00000000000E+00  0.00000000000E+00  0.45593999997E+02  0.45594000000E+02  0.51100000000E-03 0.  1.
         11   -1    0    0    0    0 -0.00000000000E+00 -0.00000000000E+00 -0.45593999997E+02  0.45594000000E+02  0.51100000000E-03 0. -1.
    9900012    2    1    2    0    0 -0.27215121110E+02 -0.27883059661E+02  0.19117936671E+02  0.47787270333E+02  0.19999996756E+02 0.  0.
         12    1    1    2    0    0  0.27215121110E+02  0.27883059661E+02 -0.19117936671E+02  0.43400729667E+02  0.00000000000E+00 0. -1.
         11    1    3    3    0    0 -0.46443966987E+01  0.89483357788E+00  0.48171836141E+01  0.67510299999E+01  0.51100000000E-03 0. -1.
        -11    1    3    3    0    0 -0.95215317934E+01 -0.46617538430E+01  0.12702106826E+01  0.10677310149E+02  0.51100000000E-03 0.  1.
        -12    1    3    3    0    0 -0.13049192618E+02 -0.24116139395E+02  0.13030542375E+02  0.30358930184E+02  0.00000000000E+00 0.  1.
</event>
<event>
 7    1  0.2682317E-010  0.4778727E+02  0.7816164E-02  0.1312668E+00
        -11   -1    0    0    0    0  0.00000000000E+00  0.00000000000E+00  0.45593999997E+02  0.45594000000E+02  0.51100000000E-03 0. -1.
         11   -1    0    0    0    0 -0.00000000000E+00 -0.00000000000E+00 -0.45593999997E+02  0.45594000000E+02  0.51100000000E-03 0.  1.
    9900012    2    1    2    0    0  0.31856011697E+02  0.29466644368E+02  0.73128533948E+00  0.47787269709E+02  0.19999993912E+02 0.  0.
         12    1    1    2    0    0 -0.31856011697E+02 -0.29466644368E+02 -0.73128533948E+00  0.43400730291E+02  0.00000000000E+00 0. -1.
         11    1    3    3    0    0  0.10894708640E+01  0.45829652463E+01 -0.21299946549E+01  0.51698544180E+01  0.51100000000E-03 0. -1.
        -11    1    3    3    0    0  0.23260006889E+02  0.25835184094E+02  0.78917029391E+00  0.34772222357E+02  0.51100000000E-03 0.  1.
         12    1    3    3    0    0  0.75065339443E+01 -0.95150497190E+00  0.20721097005E+01  0.78451929345E+01  0.00000000000E+00 0. -1.
</event>
<event>
 7    1  0.2682317E-010  0.4778727E+02  0.7816164E-02  0.1312668E+00
        -11   -1    0    0    0    0  0.00000000000E+00  0.00000000000E+00  0.45593999997E+02  0.45594000000E+02  0.51100000000E-03 0.  1.
         11   -1    0    0    0    0 -0.00000000000E+00 -0.00000000000E+00 -0.45593999997E+02  0.45594000000E+02  0.51100000000E-03 0. -1.
    9900012    2    1    2    0    0  0.25186297809E+02 -0.76399055544E+01  0.34509500306E+02  0.47787269988E+02  0.19999995181E+02 0.  0.
         12    1    1    2    0    0 -0.25186297809E+02  0.76399055544E+01 -0.34509500306E+02  0.43400730012E+02  0.00000000000E+00 0. -1.
         11    1    3    3    0    0  0.69552339614E+01 -0.42386003979E+01  0.42742227624E+01  0.91983690551E+01  0.51100000000E-03 0. -1.
        -11    1    3    3    0    0  0.38463780536E+01 -0.26230959366E+01 -0.46295734470E+00  0.46786308027E+01  0.51100000000E-03 0.  1.
        -12    1    3    3    0    0  0.14384685794E+02 -0.77820921993E+00  0.30698234889E+02  0.33910270130E+02  0.00000000000E+00 0.  1.
</event>
<event>
 7    1  0.2682317E-010  0.4778727E+02  0.7816164E-02  0.1312668E+00
        -11   -1    0    0    0    0  0.00000000000E+00  0.00000000000E+00  0.45593999997E+02  0.45594000000E+02  0.51100000000E-03 0. -1.
         11   -1    0    0    0    0 -0.00000000000E+00 -0.00000000000E+00 -0.45593999997E+02  0.45594000000E+02  0.51100000000E-03 0.  1.
    9900012    2    1    2    0    0 -0.43048592134E+02 -0.23563964305E+01 -0.49889701218E+01  0.47787266000E+02  0.19999977002E+02 0.  0.
         12    1    1    2    0    0  0.43048592134E+02  0.23563964305E+01  0.49889701218E+01  0.43400734000E+02  0.00000000000E+00 0. -1.
         11    1    3    3    0    0 -0.21320032949E+01  0.15275348265E+00  0.10729236197E+01  0.23916389842E+01  0.51100000000E-03 0. -1.
        -11    1    3    3    0    0 -0.40530925033E+02 -0.20110274388E+01 -0.96830856703E+01  0.41720046306E+02  0.51100000000E-03 0.  1.
        -12    1    3    3    0    0 -0.38566380529E+00 -0.49812247433E+00  0.36211919289E+01  0.36755807101E+01  0.00000000000E+00 0.  1.
</event>
<event>
 7    1  0.2682317E-010  0.4778727E+02  0.7816164E-02  0.1312668E+00
        -11   -1    0    0    0    0  0.00000000000E+00  0.00000000000E+00  0.45593999997E+02  0.45594000000E+02  0.51100000000E-03 0. -1.
         11   -1    0    0    0    0 -0.00000000000E+00 -0.00000000000E+00 -0.45593999997E+02  0.45594000000E+02  0.51100000000E-03 0.  1.
    9900012    2    1    2    0    0  0.97017215637E+01  0.16615895946E+00 -0.42302155426E+02  0.47787270009E+02  0.19999995279E+02 0.  0.
         12    1    1    2    0    0 -0.97017215637E+01 -0.16615895946E+00  0.42302155426E+02  0.43400729991E+02  0.00000000000E+00 0. -1.
         11    1    3    3    0    0 -0.74390318249E+00 -0.31235058824E+00  0.86618249980E+00  0.11837344377E+01  0.51100000000E-03 0. -1.
        -11    1    3    3    0    0  0.89724134778E+01  0.32599800415E+01 -0.12274433395E+02  0.15549707036E+02  0.51100000000E-03 0.  1.
        -12    1    3    3    0    0  0.14732112684E+01 -0.27814704939E+01 -0.30893904531E+02  0.31053828535E+02  0.00000000000E+00 0.  1.
</event>
<event>
 7    1  0.2682317E-010  0.4778727E+02  0.7816164E-02  0.1312668E+00
        -11   -1    0    0    0    0  0.00000000000E+00  0.00000000000E+00  0.45593999997E+02  0.45594000000E+02  0.51100000000E-03 0.  1.
         11   -1    0    0    0    0 -0.00000000000E+00 -0.00000000000E+00 -0.45593999997E+02  0.45594000000E+02  0.51100000000E-03 0. -1.
    9900012    2    1    2    0    0  0.38262021390E+02 -0.17984433877E+02  0.98082150392E+01  0.47787271608E+02  0.20000002568E+02 0.  0.
         12    1    1    2    0    0 -0.38262021390E+02  0.17984433877E+02 -0.98082150392E+01  0.43400728392E+02  0.00000000000E+00 0. -1.
         11    1    3    3    0    0  0.96963203574E+01  0.10691509787E+01 -0.28338552437E+01  0.10158368377E+02  0.51100000000E-03 0. -1.
        -11    1    3    3    0    0  0.17179471258E+02 -0.72724621532E+01  0.39011482491E+01  0.19058905960E+02  0.51100000000E-03 0.  1.
         12    1    3    3    0    0  0.11386229774E+02 -0.11781122702E+02  0.87409220338E+01  0.18569997270E+02  0.00000000000E+00 0. -1.
</event>
<event>
 7    1  0.2682317E-010  0.4778727E+02  0.7816164E-02  0.1312668E+00
        -11   -1    0    0    0    0  0.00000000000E+00  0.00000000000E+00  0.45593999997E+02  0.45594000000E+02  0.51100000000E-03 0. -1.
         11   -1    0    0    0    0 -0.00000000000E+00 -0.00000000000E+00 -0.45593999997E+02  0.45594000000E+02  0.51100000000E-03 0.  1.
    9900012    2    1    2    0    0  0.38971214351E+02 -0.15609017221E+02 -0.11010274691E+02  0.47787272871E+02  0.20000008326E+02 0.  0.
         12    1    1    2    0    0 -0.38971214351E+02  0.15609017221E+02  0.11010274691E+02  0.43400727129E+02  0.00000000000E+00 0. -1.
         11    1    3    3    0    0  0.10385305354E+02 -0.37800219478E+01  0.34109685086E+01  0.11566237057E+02  0.51100000000E-03 0. -1.
        -11    1    3    3    0    0  0.24286759498E+02 -0.69615723152E+01 -0.67123284580E+01  0.26141261056E+02  0.51100000000E-03 0.  1.
        -12    1    3    3    0    0  0.42991494981E+01 -0.48674229584E+01 -0.77089147418E+01  0.10079774757E+02  0.00000000000E+00 0.  1.
</event>
<event>
 7    1  0.2682317E-010  0.4778727E+02  0.7816164E-02  0.1312668E+00
        -11   -1    0    0    0    0  0.00000000000E+00  0.00000000000E+00  0.45593999997E+02  0.45594000000E+02  0.51100000000E-03 0.  1.
         11   -1    0    0    0    0 -0.00000000000E+00 -0.00000000000E+00 -0.45593999997E+02  0.45594000000E+02  0.51100000000E-03 0. -1.
    9900012    2    1    2    0    0  0.24748435805E+02  0.20521632221E+02  0.29154770356E+02  0.47787273067E+02  0.20000009221E+02 0.  0.
         12    1    1    2    0    0 -0.24748435805E+02 -0.20521632221E+02 -0.29154770356E+02  0.43400726933E+02  0.00000000000E+00 0. -1.
         11    1    3    3    0    0  0.12043628981E+02  0.12530636388E+02  0.53548545928E+01  0.18186267217E+02  0.51100000000E-03 0. -1.
        -11    1    3    3    0    0 -0.68383315909E+00 -0.51304555030E+00 -0.15715400199E+00  0.86921871104E+00  0.51100000000E-03 0.  1.
        -12    1    3    3    0    0  0.13388639983E+02  0.85040413832E+01  0.23957069765E+02  0.28731787139E+02  0.00000000000E+00 0.  1.
</event>
<event>
 7    1  0.2682317E-010  0.4778727E+02  0.7816164E-02  0.1312668E+00
        -11   -1    0    0    0    0  0.00000000000E+00  0.00000000000E+00  0.45593999997E+02  0.45594000000E+02  0.51100000000E-03 0.  1.
         11   -1    0    0    0    0 -0.00000000000E+00 -0.00000000000E+00 -0.45593999997E+02  0.45594000000E+02  0.51100000000E-03 0. -1.
    9900012    2    1    2    0    0 -0.14989105840E+02 -0.12148619271E+02  0.38876231072E+02  0.47787267444E+02  0.19999983583E+02 0.  0.
         12    1    1    2    0    0  0.14989105840E+02  0.12148619271E+02 -0.38876231072E+02  0.43400732556E+02  0.00000000000E+00 0. -1.
         11    1    3    3    0    0  0.11715795820E+00 -0.23817443163E+01  0.12740000553E+01  0.27036102488E+01  0.51100000000E-03 0. -1.
        -11    1    3    3    0    0 -0.17646170583E+02 -0.73548681476E+01  0.36831031549E+02  0.41497063835E+02  0.51100000000E-03 0.  1.
        -12    1    3    3    0    0  0.25399067847E+01 -0.24120068069E+01  0.77119946739E+00  0.35865933600E+01  0.00000000000E+00 0.  1.
</event>
<event>
 7    1  0.2682317E-010  0.4778728E+02  0.7816164E-02  0.1312668E+00
        -11   -1    0    0    0    0  0.00000000000E+00  0.00000000000E+00  0.45593999997E+02  0.45594000000E+02  0.51100000000E-03 0.  1.
         11   -1    0    0    0    0 -0.00000000000E+00 -0.00000000000E+00 -0.45593999997E+02  0.45594000000E+02  0.51100000000E-03 0. -1.
    9900012    2    1    2    0    0 -0.81642764518E+01 -0.41396556246E+02  0.10163297626E+02  0.47787275379E+02  0.20000019763E+02 0.  0.
         12    1    1    2    0    0  0.81642764518E+01  0.41396556246E+02 -0.10163297626E+02  0.43400724621E+02  0.00000000000E+00 0. -1.
         11    1    3    3    0    0  0.94153543755E+00  0.93553111061E-01  0.16485222615E+01  0.19007543430E+01  0.51100000000E-03 0.  1.
        -11    1    3    3    0    0  0.27491909923E+01 -0.20757439814E+01  0.25763988142E+01  0.43016967930E+01  0.51100000000E-03 0. -1.
        -12    1    3    3    0    0 -0.11855002882E+02 -0.39414365375E+02  0.59383765508E+01  0.41584824243E+02  0.00000000000E+00 0.  1.
</event>
<event>
 7    1  0.2682317E-010  0.4778727E+02  0.7816164E-02  0.1312668E+00
        -11   -1    0    0    0    0  0.00000000000E+00  0.00000000000E+00  0.45593999997E+02  0.45594000000E+02  0.51100000000E-03 0.  1.
         11   -1    0    0    0    0 -0.00000000000E+00 -0.00000000000E+00 -0.45593999997E+02  0.45594000000E+02  0.51100000000E-03 0. -1.
    9900012    2    1    2    0    0 -0.16231479468E+02  0.27758176555E+02  0.29148688937E+02  0.47787270074E+02  0.19999995577E+02 0.  0.
         12    1    1    2    0    0  0.16231479468E+02 -0.27758176555E+02 -0.29148688937E+02  0.43400729926E+02  0.00000000000E+00 0. -1.
         11    1    3    3    0    0  0.51726557699E+00 -0.24631585653E+00  0.21543365568E+01  0.22292154313E+01  0.51100000000E-03 0. -1.
        -11    1    3    3    0    0 -0.10662638722E+02  0.15567220845E+02  0.49188183876E+01  0.19499359065E+02  0.51100000000E-03 0.  1.
        -12    1    3    3    0    0 -0.60861063226E+01  0.12437271567E+02  0.22075533992E+02  0.26058695578E+02  0.00000000000E+00 0.  1.
</event>
<event>
 7    1  0.2682317E-010  0.4778727E+02  0.7816164E-02  0.1312668E+00
        -11   -1    0    0    0    0  0.00000000000E+00  0.00000000000E+00  0.45593999997E+02  0.45594000000E+02  0.51100000000E-03 0.  1.
         11   -1    0    0    0    0 -0.00000000000E+00 -0.00000000000E+00 -0.45593999997E+02  0.45594000000E+02  0.51100000000E-03 0. -1.
    9900012    2    1    2    0    0  0.61207371607E+01 -0.40004007318E+02  0.15679264611E+02  0.47787270010E+02  0.19999995283E+02 0.  0.
         12    1    1    2    0    0 -0.61207371607E+01  0.40004007318E+02 -0.15679264611E+02  0.43400729990E+02  0.00000000000E+00 0. -1.
         11    1    3    3    0    0  0.22713428659E+01 -0.31925346319E+01  0.39092815201E+01  0.55347771459E+01  0.51100000000E-03 0. -1.
        -11    1    3    3    0    0 -0.41197421379E+00 -0.30602203521E+02  0.14969901109E+02  0.34069965109E+02  0.51100000000E-03 0.  1.
         12    1    3    3    0    0  0.42613685086E+01 -0.62092691659E+01 -0.31999180174E+01  0.81825277548E+01  0.00000000000E+00 0. -1.
</event>
<event>
 7    1  0.2682317E-010  0.4778727E+02  0.7816164E-02  0.1312668E+00
        -11   -1    0    0    0    0  0.00000000000E+00  0.00000000000E+00  0.45593999997E+02  0.45594000000E+02  0.51100000000E-03 0.  1.
         11   -1    0    0    0    0 -0.00000000000E+00 -0.00000000000E+00 -0.45593999997E+02  0.45594000000E+02  0.51100000000E-03 0. -1.
    9900012    2    1    2    0    0  0.42544019806E+02 -0.80816053416E+01 -0.28839861662E+01  0.47787270256E+02  0.19999996405E+02 0.  0.
         12    1    1    2    0    0 -0.42544019806E+02  0.80816053416E+01  0.28839861662E+01  0.43400729744E+02  0.00000000000E+00 0. -1.
         11    1    3    3    0    0  0.65520293192E+00 -0.21127652657E+01  0.36522930205E+01  0.42699312077E+01  0.51100000000E-03 0. -1.
        -11    1    3    3    0    0  0.88217407525E+01  0.19069395574E+01 -0.16708759303E+01  0.91788536874E+01  0.51100000000E-03 0.  1.
         12    1    3    3    0    0  0.33067076121E+02 -0.78757796333E+01 -0.48654032563E+01  0.34338485361E+02  0.00000000000E+00 0. -1.
</event>
<event>
 7    1  0.2682317E-010  0.4778727E+02  0.7816164E-02  0.1312668E+00
        -11   -1    0    0    0    0  0.00000000000E+00  0.00000000000E+00  0.45593999997E+02  0.45594000000E+02  0.51100000000E-03 0.  1.
         11   -1    0    0    0    0 -0.00000000000E+00 -0.00000000000E+00 -0.45593999997E+02  0.45594000000E+02  0.51100000000E-03 0. -1.
    9900012    2    1    2    0    0  0.47018924352E+01 -0.39909097606E+02  0.16394490283E+02  0.47787272174E+02  0.20000005151E+02 0.  0.
         12    1    1    2    0    0 -0.47018924352E+01  0.39909097606E+02 -0.16394490283E+02  0.43400727826E+02  0.00000000000E+00 0. -1.
         11    1    3    3    0    0  0.52997264274E+01 -0.31300784922E+02  0.45937080243E+01  0.32076913671E+02  0.51100000000E-03 0. -1.
        -11    1    3    3    0    0 -0.11098561056E+01 -0.70663508329E+01  0.50227559136E+01  0.87403187527E+01  0.51100000000E-03 0.  1.
         12    1    3    3    0    0  0.51202211348E+00 -0.15419618505E+01  0.67780263451E+01  0.69700397509E+01  0.00000000000E+00 0. -1.
</event>
<event>
 7    1  0.2682317E-010  0.4778727E+02  0.7816164E-02  0.1312668E+00
        -11   -1    0    0    0    0  0.00000000000E+00  0.00000000000E+00  0.45593999997E+02  0.45594000000E+02  0.51100000000E-03 0.  1.
         11   -1    0    0    0    0 -0.00000000000E+00 -0.00000000000E+00 -0.45593999997E+02  0.45594000000E+02  0.51100000000E-03 0. -1.
    9900012    2    1    2    0    0  0.35379503971E+02 -0.18448583891E+02  0.17075248844E+02  0.47787266459E+02  0.19999979091E+02 0.  0.
         12    1    1    2    0    0 -0.35379503971E+02  0.18448583891E+02 -0.17075248844E+02  0.43400733541E+02  0.00000000000E+00 0. -1.
         11    1    3    3    0    0  0.57889403264E+01 -0.65911812539E+01  0.35444841960E+01  0.94614411641E+01  0.51100000000E-03 0.  1.
        -11    1    3    3    0    0  0.47967634776E+01  0.69806113796E+00  0.89233357441E+01  0.10154907694E+02  0.51100000000E-03 0. -1.
         12    1    3    3    0    0  0.24793800167E+02 -0.12555463775E+02  0.46074289042E+01  0.28170917600E+02  0.00000000000E+00 0. -1.
</event>
<event>
 7    1  0.2682317E-010  0.4778726E+02  0.7816164E-02  0.1312668E+00
        -11   -1    0    0    0    0  0.00000000000E+00  0.00000000000E+00  0.45593999997E+02  0.45594000000E+02  0.51100000000E-03 0. -1.
         11   -1    0    0    0    0 -0.00000000000E+00 -0.00000000000E+00 -0.45593999997E+02  0.45594000000E+02  0.51100000000E-03 0.  1.
    9900012    2    1    2    0    0  0.41792701041E+02  0.10204768334E+02  0.57321056701E+01  0.47787260461E+02  0.19999951748E+02 0.  0.
         12    1    1    2    0    0 -0.41792701041E+02 -0.10204768334E+02 -0.57321056701E+01  0.43400739539E+02  0.00000000000E+00 0. -1.
         11    1    3    3    0    0  0.26391910666E+02  0.66975844587E+01  0.36303801670E+01  0.27469442051E+02  0.51100000000E-03 0. -1.
        -11    1    3    3    0    0  0.66114251335E+01  0.71438196090E+01  0.41604594293E+01  0.10585580939E+02  0.51100000000E-03 0.  1.
         12    1    3    3    0    0  0.87893652415E+01 -0.36366357332E+01 -0.20587339261E+01  0.97322374706E+01  0.00000000000E+00 0. -1.
</event>
<event>
 7    1  0.2682317E-010  0.4778728E+02  0.7816164E-02  0.1312668E+00
        -11   -1    0    0    0    0  0.00000000000E+00  0.00000000000E+00  0.45593999997E+02  0.45594000000E+02  0.51100000000E-03 0.  1.
         11   -1    0    0    0    0 -0.00000000000E+00 -0.00000000000E+00 -0.45593999997E+02  0.45594000000E+02  0.51100000000E-03 0. -1.
    9900012    2    1    2    0    0 -0.16621425672E+02 -0.39611925913E+02 -0.61843600495E+01  0.47787276790E+02  0.20000026198E+02 0.  0.
         12    1    1    2    0    0  0.16621425672E+02  0.39611925913E+02  0.61843600495E+01  0.43400723210E+02  0.00000000000E+00 0. -1.
         11    1    3    3    0    0  0.32384612751E+01 -0.16290977258E+01 -0.23443927197E-01  0.36252090574E+01  0.51100000000E-03 0. -1.
        -11    1    3    3    0    0 -0.34805468355E+01 -0.66451930813E+01 -0.45326899395E+01  0.87645921588E+01  0.51100000000E-03 0.  1.
        -12    1    3    3    0    0 -0.16379340112E+02 -0.31337635106E+02 -0.16282261828E+01  0.35397475574E+02  0.00000000000E+00 0.  1.
</event>
<event>
 7    1  0.2682317E-010  0.4778727E+02  0.7816164E-02  0.1312668E+00
        -11   -1    0    0    0    0  0.00000000000E+00  0.00000000000E+00  0.45593999997E+02  0.45594000000E+02  0.51100000000E-03 0. -1.
         11   -1    0    0    0    0 -0.00000000000E+00 -0.00000000000E+00 -0.45593999997E+02  0.45594000000E+02  0.51100000000E-03 0.  1.
    9900012    2    1    2    0    0  0.11003259624E+02  0.37441697775E+02  0.18991334300E+02  0.47787271514E+02  0.20000002141E+02 0.  0.
         12    1    1    2    0    0 -0.11003259624E+02 -0.37441697775E+02 -0.18991334300E+02  0.43400728486E+02  0.00000000000E+00 0. -1.
         11    1    3    3    0    0  0.17503234423E+01  0.12178922866E+02  0.92062654596E+01  0.15367013968E+02  0.51100000000E-03 0.  1.
        -11    1    3    3    0    0  0.12086637339E+02  0.15979943820E+02  0.10623725919E+02  0.22678380880E+02  0.51100000000E-03 0. -1.
        -12    1    3    3    0    0 -0.28337011581E+01  0.92828310889E+01 -0.83865707860E+00  0.97418766659E+01  0.00000000000E+00 0.  1.
</event>
<event>
 7    1  0.2682317E-010  0.4778727E+02  0.7816164E-02  0.1312668E+00
        -11   -1    0    0    0    0  0.00000000000E+00  0.00000000000E+00  0.45593999997E+02  0.45594000000E+02  0.51100000000E-03 0. -1.
         11   -1    0    0    0    0 -0.00000000000E+00 -0.00000000000E+00 -0.45593999997E+02  0.45594000000E+02  0.51100000000E-03 0.  1.
    9900012    2    1    2    0    0  0.74895426367E+01 -0.36374486834E+02 -0.22459445485E+02  0.47787271517E+02  0.20000002155E+02 0.  0.
         12    1    1    2    0    0 -0.74895426367E+01  0.36374486834E+02  0.22459445485E+02  0.43400728483E+02  0.00000000000E+00 0. -1.
         11    1    3    3    0    0  0.44024104871E+00 -0.69571915142E-01 -0.10694225222E+01  0.11585841465E+01  0.51100000000E-03 0. -1.
        -11    1    3    3    0    0  0.74436579569E+01 -0.22948550352E+02 -0.22797068948E+02  0.33192625084E+02  0.51100000000E-03 0.  1.
         12    1    3    3    0    0 -0.39435636896E+00 -0.13356364566E+02  0.14070459850E+01  0.13436062287E+02  0.00000000000E+00 0. -1.
</event>
<event>
 7    1  0.2682317E-010  0.4778727E+02  0.7816164E-02  0.1312668E+00
        -11   -1    0    0    0    0  0.00000000000E+00  0.00000000000E+00  0.45593999997E+02  0.45594000000E+02  0.51100000000E-03 0.  1.
         11   -1    0    0    0    0 -0.00000000000E+00 -0.00000000000E+00 -0.45593999997E+02  0.45594000000E+02  0.51100000000E-03 0. -1.
    9900012    2    1    2    0    0  0.10970109539E+02  0.30098460933E+02  0.29280754711E+02  0.47787271316E+02  0.20000001240E+02 0.  0.
         12    1    1    2    0    0 -0.10970109539E+02 -0.30098460933E+02 -0.29280754711E+02  0.43400728684E+02  0.00000000000E+00 0. -1.
         11    1    3    3    0    0  0.32614279861E+00 -0.17645409061E+00 -0.11072227021E+01  0.11676675658E+01  0.51100000000E-03 0. -1.
        -11    1    3    3    0    0  0.46159858583E+01  0.55781056517E+00  0.19282130990E+01  0.50335359427E+01  0.51100000000E-03 0.  1.
        -12    1    3    3    0    0  0.60279808818E+01  0.29717104459E+02  0.28459764314E+02  0.41586067808E+02  0.00000000000E+00 0.  1.
</event>
<event>
 7    1  0.2682317E-010  0.4778727E+02  0.7816164E-02  0.1312668E+00
        -11   -1    0    0    0    0  0.00000000000E+00  0.00000000000E+00  0.45593999997E+02  0.45594000000E+02  0.51100000000E-03 0.  1.
         11   -1    0    0    0    0 -0.00000000000E+00 -0.00000000000E+00 -0.45593999997E+02  0.45594000000E+02  0.51100000000E-03 0. -1.
    9900012    2    1    2    0    0  0.42605267347E+02  0.61952306701E+01 -0.54802819981E+01  0.47787272131E+02  0.20000004953E+02 0.  0.
         12    1    1    2    0    0 -0.42605267347E+02 -0.61952306701E+01  0.54802819981E+01  0.43400727869E+02  0.00000000000E+00 0. -1.
         11    1    3    3    0    0  0.54369376196E+01  0.45349530784E+01  0.41804294513E+01  0.82220484529E+01  0.51100000000E-03 0. -1.
        -11    1    3    3    0    0  0.49011437300E+01  0.34264913857E+01 -0.24022207211E+01  0.64445882516E+01  0.51100000000E-03 0.  1.
        -12    1    3    3    0    0  0.32267185998E+02 -0.17662137940E+01 -0.72584907283E+01  0.33120635426E+02  0.00000000000E+00 0.  1.
</event>
<event>
 7    1  0.2682317E-010  0.4778727E+02  0.7816164E-02  0.1312668E+00
        -11   -1    0    0    0    0  0.00000000000E+00  0.00000000000E+00  0.45593999997E+02  0.45594000000E+02  0.51100000000E-03 0.  1.
         11   -1    0    0    0    0 -0.00000000000E+00 -0.00000000000E+00 -0.45593999997E+02  0.45594000000E+02  0.51100000000E-03 0. -1.
    9900012    2    1    2    0    0  0.36790178910E+01  0.40411244585E+02  0.15395428643E+02  0.47787273224E+02  0.20000009937E+02 0.  0.
         12    1    1    2    0    0 -0.36790178910E+01 -0.40411244585E+02 -0.15395428643E+02  0.43400726776E+02  0.00000000000E+00 0. -1.
         11    1    3    3    0    0  0.32177045041E+01  0.44953818925E+01  0.31720262019E+01  0.63736826970E+01  0.51100000000E-03 0. -1.
        -11    1    3    3    0    0 -0.86474894670E+00  0.36295647967E+02  0.14216154901E+02  0.38990010420E+02  0.51100000000E-03 0.  1.
        -12    1    3    3    0    0  0.13260623337E+01 -0.37978527452E+00 -0.19927524602E+01  0.24235801070E+01  0.00000000000E+00 0.  1.
</event>
<event>
 7    1  0.2682317E-010  0.4778727E+02  0.7816164E-02  0.1312668E+00
        -11   -1    0    0    0    0  0.00000000000E+00  0.00000000000E+00  0.45593999997E+02  0.45594000000E+02  0.51100000000E-03 0.  1.
         11   -1    0    0    0    0 -0.00000000000E+00 -0.00000000000E+00 -0.45593999997E+02  0.45594000000E+02  0.51100000000E-03 0. -1.
    9900012    2    1    2    0    0 -0.25535930966E+02  0.29959098310E+02  0.18275437177E+02  0.47787274823E+02  0.20000017229E+02 0.  0.
         12    1    1    2    0    0  0.25535930966E+02 -0.29959098310E+02 -0.18275437177E+02  0.43400725177E+02  0.00000000000E+00 0. -1.
         11    1    3    3    0    0  0.38613158225E+00 -0.18585759653E+01 -0.79020937583E-01  0.18999070470E+01  0.51100000000E-03 0. -1.
        -11    1    3    3    0    0 -0.69235677968E+00 -0.50876719131E+00 -0.19413107124E+00  0.88084567278E+00  0.51100000000E-03 0.  1.
        -12    1    3    3    0    0 -0.25229705769E+02  0.32326441467E+02  0.18548589186E+02  0.45006522104E+02  0.00000000000E+00 0.  1.
</event>
<event>
 7    1  0.2682317E-010  0.4778727E+02  0.7816164E-02  0.1312668E+00
        -11   -1    0    0    0    0  0.00000000000E+00  0.00000000000E+00  0.45593999997E+02  0.45594000000E+02  0.51100000000E-03 0. -1.
         11   -1    0    0    0    0 -0.00000000000E+00 -0.00000000000E+00 -0.45593999997E+02  0.45594000000E+02  0.51100000000E-03 0.  1.
    9900012    2    1    2    0    0  0.22172443901E+02 -0.25616421555E+02 -0.27125725309E+02  0.47787270797E+02  0.19999998873E+02 0.  0.
         12    1    1    2    0    0 -0.22172443901E+02  0.25616421555E+02  0.27125725309E+02  0.43400729203E+02  0.00000000000E+00 0. -1.
         11    1    3    3    0    0  0.72445309701E+01 -0.18648327539E+02 -0.13441227524E+02  0.24102073492E+02  0.51100000000E-03 0. -1.
        -11    1    3    3    0    0 -0.73975338512E+00 -0.27568304586E+01 -0.79093166174E+00  0.29619119506E+01  0.51100000000E-03 0.  1.
        -12    1    3    3    0    0  0.15667666316E+02 -0.42112635571E+01 -0.12893566123E+02  0.20723285355E+02  0.00000000000E+00 0.  1.
</event>
<event>
 7    1  0.2682317E-010  0.4778727E+02  0.7816164E-02  0.1312668E+00
        -11   -1    0    0    0    0  0.00000000000E+00  0.00000000000E+00  0.45593999997E+02  0.45594000000E+02  0.51100000000E-03 0. -1.
         11   -1    0    0    0    0 -0.00000000000E+00 -0.00000000000E+00 -0.45593999997E+02  0.45594000000E+02  0.51100000000E-03 0.  1.
    9900012    2    1    2    0    0  0.75441224688E+01 -0.34087436333E+02 -0.25782863590E+02  0.47787272419E+02  0.20000006268E+02 0.  0.
         12    1    1    2    0    0 -0.75441224688E+01  0.34087436333E+02  0.25782863590E+02  0.43400727581E+02  0.00000000000E+00 0. -1.
         11    1    3    3    0    0  0.82543785810E+01 -0.15139196514E+02 -0.17076624488E+02  0.24268109548E+02  0.51100000000E-03 0. -1.
        -11    1    3    3    0    0  0.15585595198E+01 -0.12940354156E+02 -0.10625866844E+02  0.16816388432E+02  0.51100000000E-03 0.  1.
         12    1    3    3    0    0 -0.22688156320E+01 -0.60078856633E+01  0.19196277417E+01  0.67027744392E+01  0.00000000000E+00 0. -1.
</event>
<event>
 7    1  0.2682317E-010  0.4778727E+02  0.7816164E-02  0.1312668E+00
        -11   -1    0    0    0    0  0.00000000000E+00  0.00000000000E+00  0.45593999997E+02  0.45594000000E+02  0.51100000000E-03 0.  1.
         11   -1    0    0    0    0 -0.00000000000E+00 -0.00000000000E+00 -0.45593999997E+02  0.45594000000E+02  0.51100000000E-03 0. -1.
    9900012    2    1    2    0    0  0.41838394005E+02  0.10865008285E+02 -0.38889383719E+01  0.47787268904E+02  0.19999990243E+02 0.  0.
         12    1    1    2    0    0 -0.41838394005E+02 -0.10865008285E+02  0.38889383719E+01  0.43400731096E+02  0.00000000000E+00 0. -1.
         11    1    3    3    0    0  0.16194394965E+01 -0.13494176806E+01 -0.18111680766E+01  0.27791801709E+01  0.51100000000E-03 0. -1.
        -11    1    3    3    0    0  0.33664691211E+02  0.15119527657E+02  0.16235283788E+01  0.36939780665E+02  0.51100000000E-03 0.  1.
        -12    1    3    3    0    0  0.65542632980E+01 -0.29051016918E+01 -0.37012986741E+01  0.80683080688E+01  0.00000000000E+00 0.  1.
</event>
<event>
 7    1  0.2682317E-010  0.4778727E+02  0.7816164E-02  0.1312668E+00
        -11   -1    0    0    0    0  0.00000000000E+00  0.00000000000E+00  0.45593999997E+02  0.45594000000E+02  0.51100000000E-03 0.  1.
         11   -1    0    0    0    0 -0.00000000000E+00 -0.00000000000E+00 -0.45593999997E+02  0.45594000000E+02  0.51100000000E-03 0. -1.
    9900012    2    1    2    0    0  0.10465843722E+02  0.39571990758E+02  0.14427295178E+02  0.47787272086E+02  0.20000004747E+02 0.  0.
         12    1    1    2    0    0 -0.10465843722E+02 -0.39571990758E+02 -0.14427295178E+02  0.43400727914E+02  0.00000000000E+00 0. -1.
         11    1    3    3    0    0  0.27560901416E+01  0.10334456559E+02  0.81699696253E+01  0.13459027795E+02  0.51100000000E-03 0. -1.
        -11    1    3    3    0    0  0.99962054746E+01  0.22635119992E+02  0.96521596812E+01  0.26560063398E+02  0.51100000000E-03 0.  1.
         12    1    3    3    0    0 -0.22864518946E+01  0.66024142070E+01 -0.33948341282E+01  0.77681808929E+01  0.00000000000E+00 0. -1.
</event>
<event>
 7    1  0.2682317E-010  0.4778727E+02  0.7816164E-02  0.1312668E+00
        -11   -1    0    0    0    0  0.00000000000E+00  0.00000000000E+00  0.45593999997E+02  0.45594000000E+02  0.51100000000E-03 0.  1.
         11   -1    0    0    0    0 -0.00000000000E+00 -0.00000000000E+00 -0.45593999997E+02  0.45594000000E+02  0.51100000000E-03 0. -1.
    9900012    2    1    2    0    0 -0.26059770728E+02  0.91991669594E+01  0.33464716567E+02  0.47787267540E+02  0.19999984021E+02 0.  0.
         12    1    1    2    0    0  0.26059770728E+02 -0.91991669594E+01 -0.33464716567E+02  0.43400732460E+02  0.00000000000E+00 0. -1.
         11    1    3    3    0    0 -0.20137149897E+01  0.36281614821E+01  0.43771152912E+01  0.60313963834E+01  0.51100000000E-03 0. -1.
        -11    1    3    3    0    0 -0.25634794291E+02  0.39385714845E+01  0.21053749063E+02  0.33405319539E+02  0.51100000000E-03 0.  1.
         12    1    3    3    0    0  0.15887385519E+01  0.16324339928E+01  0.80338522134E+01  0.83505516173E+01  0.00000000000E+00 0. -1.
</event>
<event>
 7    1  0.2682317E-010  0.4778727E+02  0.7816164E-02  0.1312668E+00
        -11   -1    0    0    0    0  0.00000000000E+00  0.00000000000E+00  0.45593999997E+02  0.45594000000E+02  0.51100000000E-03 0.  1.
         11   -1    0    0    0    0 -0.00000000000E+00 -0.00000000000E+00 -0.45593999997E+02  0.45594000000E+02  0.51100000000E-03 0. -1.
    9900012    2    1    2    0    0  0.24131973467E+02  0.30457525951E+02  0.19328997842E+02  0.47787272033E+02  0.20000004507E+02 0.  0.
         12    1    1    2    0    0 -0.24131973467E+02 -0.30457525951E+02 -0.19328997842E+02  0.43400727967E+02  0.00000000000E+00 0. -1.
         11    1    3    3    0    0  0.22487709562E+01  0.34071661077E+01  0.17760582206E+01  0.44519809931E+01  0.51100000000E-03 0. -1.
        -11    1    3    3    0    0  0.19660106361E+02  0.29202536760E+02  0.12398271664E+02  0.37323251143E+02  0.51100000000E-03 0.  1.
         12    1    3    3    0    0  0.22230961499E+01 -0.21521769166E+01  0.51546679573E+01  0.60120398969E+01  0.00000000000E+00 0. -1.
</event>
<event>
 7    1  0.2682317E-010  0.4778727E+02  0.7816164E-02  0.1312668E+00
        -11   -1    0    0    0    0  0.00000000000E+00  0.00000000000E+00  0.45593999997E+02  0.45594000000E+02  0.51100000000E-03 0. -1.
         11   -1    0    0    0    0 -0.00000000000E+00 -0.00000000000E+00 -0.45593999997E+02  0.45594000000E+02  0.51100000000E-03 0.  1.
    9900012    2    1    2    0    0  0.24653098595E+02 -0.85582857859E+01 -0.34678576376E+02  0.47787272064E+02  0.20000004649E+02 0.  0.
         12    1    1    2    0    0 -0.24653098595E+02  0.85582857859E+01  0.34678576376E+02  0.43400727936E+02  0.00000000000E+00 0. -1.
         11    1    3    3    0    0  0.76437630714E+00 -0.31667156953E+01  0.67143925961E+00  0.33261374557E+01  0.51100000000E-03 0. -1.
        -11    1    3    3    0    0  0.12760112600E+02 -0.70579476315E+01 -0.13442702602E+02  0.19832835195E+02  0.51100000000E-03 0.  1.
         12    1    3    3    0    0  0.11128609688E+02  0.16663775408E+01 -0.21907313033E+02  0.24628299414E+02  0.00000000000E+00 0. -1.
</event>
<event>
 7    1  0.2682317E-010  0.4778727E+02  0.7816164E-02  0.1312668E+00
        -11   -1    0    0    0    0  0.00000000000E+00  0.00000000000E+00  0.45593999997E+02  0.45594000000E+02  0.51100000000E-03 0.  1.
         11   -1    0    0    0    0 -0.00000000000E+00 -0.00000000000E+00 -0.45593999997E+02  0.45594000000E+02  0.51100000000E-03 0. -1.
    9900012    2    1    2    0    0 -0.71900081049E+01 -0.41888558417E+02  0.87906463493E+01  0.47787274130E+02  0.20000014069E+02 0.  0.
         12    1    1    2    0    0  0.71900081049E+01  0.41888558417E+02 -0.87906463493E+01  0.43400725870E+02  0.00000000000E+00 0. -1.
         11    1    3    3    0    0 -0.41172175796E+01 -0.86095437047E+01 -0.31367349398E+01  0.10045637349E+02  0.51100000000E-03 0. -1.
        -11    1    3    3    0    0  0.32798694005E+00 -0.26657280572E+02  0.41578124330E+01  0.26981578668E+02  0.51100000000E-03 0.  1.
        -12    1    3    3    0    0 -0.34007774654E+01 -0.66217341399E+01  0.77695688562E+01  0.10760058113E+02  0.00000000000E+00 0.  1.
</event>
<event>
 7    1  0.2682317E-010  0.4778728E+02  0.7816164E-02  0.1312668E+00
        -11   -1    0    0    0    0  0.00000000000E+00  0.00000000000E+00  0.45593999997E+02  0.45594000000E+02  0.51100000000E-03 0. -1.
         11   -1    0    0    0    0 -0.00000000000E+00 -0.00000000000E+00 -0.45593999997E+02  0.45594000000E+02  0.51100000000E-03 0.  1.
    9900012    2    1    2    0    0 -0.38723796474E+02  0.11255355997E+02 -0.16043918638E+02  0.47787276766E+02  0.20000026086E+02 0.  0.
         12    1    1    2    0    0  0.38723796474E+02 -0.11255355997E+02  0.16043918638E+02  0.43400723234E+02  0.00000000000E+00 0. -1.
         11    1    3    3    0    0 -0.53742683436E+00 -0.13021677642E+01 -0.97189381871E+00  0.17114456884E+01  0.51100000000E-03 0. -1.
        -11    1    3    3    0    0 -0.21815893057E+02  0.12040433225E+02 -0.16097069101E+02  0.29665145474E+02  0.51100000000E-03 0.  1.
        -12    1    3    3    0    0 -0.16370476583E+02  0.51709053656E+00  0.10250442818E+01  0.16410685603E+02  0.00000000000E+00 0.  1.
</event>
<event>
 7    1  0.2682317E-010  0.4778727E+02  0.7816164E-02  0.1312668E+00
        -11   -1    0    0    0    0  0.00000000000E+00  0.00000000000E+00  0.45593999997E+02  0.45594000000E+02  0.51100000000E-03 0.  1.
         11   -1    0    0    0    0 -0.00000000000E+00 -0.00000000000E+00 -0.45593999997E+02  0.45594000000E+02  0.51100000000E-03 0. -1.
    9900012    2    1    2    0    0  0.12823131838E+02 -0.41050801193E+02  0.58328662526E+01  0.47787270543E+02  0.19999997713E+02 0.  0.
         12    1    1    2    0    0 -0.12823131838E+02  0.41050801193E+02 -0.58328662526E+01  0.43400729457E+02  0.00000000000E+00 0. -1.
         11    1    3    3    0    0 -0.16480897407E+01 -0.12711842271E+02  0.69937311069E+01  0.14602034405E+02  0.51100000000E-03 0. -1.
        -11    1    3    3    0    0  0.48284385385E+01 -0.47904407854E+01  0.29413236621E+01  0.74103661708E+01  0.51100000000E-03 0.  1.
         12    1    3    3    0    0  0.96427830399E+01 -0.23548518137E+02 -0.41021885164E+01  0.25774869967E+02  0.00000000000E+00 0. -1.
</event>
<event>
 7    1  0.2682317E-010  0.4778728E+02  0.7816164E-02  0.1312668E+00
        -11   -1    0    0    0    0  0.00000000000E+00  0.00000000000E+00  0.45593999997E+02  0.45594000000E+02  0.51100000000E-03 0.  1.
         11   -1    0    0    0    0 -0.00000000000E+00 -0.00000000000E+00 -0.45593999997E+02  0.45594000000E+02  0.51100000000E-03 0. -1.
    9900012    2    1    2    0    0  0.31281554607E+02 -0.48275089120E+01  0.29694813926E+02  0.47787280247E+02  0.20000041959E+02 0.  0.
         12    1    1    2    0    0 -0.31281554607E+02  0.48275089120E+01 -0.29694813926E+02  0.43400719753E+02  0.00000000000E+00 0. -1.
         11    1    3    3    0    0  0.16032089904E+02 -0.44334816525E+01  0.48013396985E+01  0.17312900665E+02  0.51100000000E-03 0. -1.
        -11    1    3    3    0    0  0.83248935187E+01 -0.37244726335E+01  0.89606054087E+01  0.12785460416E+02  0.51100000000E-03 0.  1.
        -12    1    3    3    0    0  0.69245711842E+01  0.33304453740E+01  0.15932868819E+02  0.17688919167E+02  0.00000000000E+00 0.  1.
</event>
<event>
 7    1  0.2682317E-010  0.4778727E+02  0.7816164E-02  0.1312668E+00
        -11   -1    0    0    0    0  0.00000000000E+00  0.00000000000E+00  0.45593999997E+02  0.45594000000E+02  0.51100000000E-03 0.  1.
         11   -1    0    0    0    0 -0.00000000000E+00 -0.00000000000E+00 -0.45593999997E+02  0.45594000000E+02  0.51100000000E-03 0. -1.
    9900012    2    1    2    0    0  0.27201394642E+02 -0.67210180385E+01  0.33144160191E+02  0.47787270643E+02  0.19999998169E+02 0.  0.
         12    1    1    2    0    0 -0.27201394642E+02  0.67210180385E+01 -0.33144160191E+02  0.43400729357E+02  0.00000000000E+00 0. -1.
         11    1    3    3    0    0  0.45046030601E+00 -0.17650486350E+01 -0.79898340896E+00  0.19891420060E+01  0.51100000000E-03 0. -1.
        -11    1    3    3    0    0  0.18917643263E+02 -0.37622206076E+01  0.12618765296E+02  0.23049181512E+02  0.51100000000E-03 0.  1.
        -12    1    3    3    0    0  0.78332910734E+01 -0.11937487959E+01  0.21324378304E+02  0.22748947125E+02  0.00000000000E+00 0.  1.
</event>
<event>
 7    1  0.2682317E-010  0.4778726E+02  0.7816164E-02  0.1312668E+00
        -11   -1    0    0    0    0  0.00000000000E+00  0.00000000000E+00  0.45593999997E+02  0.45594000000E+02  0.51100000000E-03 0.  1.
         11   -1    0    0    0    0 -0.00000000000E+00 -0.00000000000E+00 -0.45593999997E+02  0.45594000000E+02  0.51100000000E-03 0. -1.
    9900012    2    1    2    0    0 -0.16277858984E+02  0.34272035342E+02  0.21073270203E+02  0.47787264792E+02  0.19999971492E+02 0.  0.
         12    1    1    2    0    0  0.16277858984E+02 -0.34272035342E+02 -0.21073270203E+02  0.43400735208E+02  0.00000000000E+00 0. -1.
         11    1    3    3    0    0 -0.25609156765E+01  0.25218821196E+02  0.14278826682E+02  0.29093506549E+02  0.51100000000E-03 0. -1.
        -11    1    3    3    0    0 -0.28034568328E+01  0.29327478407E+01  0.43431456789E+01  0.59433403705E+01  0.51100000000E-03 0.  1.
         12    1    3    3    0    0 -0.10913486474E+02  0.61204663051E+01  0.24512978419E+01  0.12750417873E+02  0.00000000000E+00 0. -1.
</event>
<event>
 7    1  0.2682317E-010  0.4778726E+02  0.7816164E-02  0.1312668E+00
        -11   -1    0    0    0    0  0.00000000000E+00  0.00000000000E+00  0.45593999997E+02  0.45594000000E+02  0.51100000000E-03 0. -1.
         11   -1    0    0    0    0 -0.00000000000E+00 -0.00000000000E+00 -0.45593999997E+02  0.45594000000E+02  0.51100000000E-03 0.  1.
    9900012    2    1    2    0    0 -0.36013214740E+02 -0.22256646718E+02  0.95558541763E+01  0.47787259130E+02  0.19999945676E+02 0.  0.
         12    1    1    2    0    0  0.36013214740E+02  0.22256646718E+02 -0.95558541763E+01  0.43400740870E+02  0.00000000000E+00 0. -1.
         11    1    3    3    0    0 -0.68556330118E+00 -0.44612409966E+01 -0.15989648576E+01  0.47884608328E+01  0.51100000000E-03 0. -1.
        -11    1    3    3    0    0 -0.92142304974E+01  0.11091335295E+01  0.28439698802E+01  0.97067185900E+01  0.51100000000E-03 0.  1.
        -12    1    3    3    0    0 -0.26113420942E+02 -0.18904539251E+02  0.83108491537E+01  0.33292079707E+02  0.00000000000E+00 0.  1.
</event>
<event>
 7    1  0.2682317E-010  0.4778727E+02  0.7816164E-02  0.1312668E+00
        -11   -1    0    0    0    0  0.00000000000E+00  0.00000000000E+00  0.45593999997E+02  0.45594000000E+02  0.51100000000E-03 0.  1.
         11   -1    0    0    0    0 -0.00000000000E+00 -0.00000000000E+00 -0.45593999997E+02  0.45594000000E+02  0.51100000000E-03 0. -1.
    9900012    2    1    2    0    0 -0.25444815180E+02 -0.17690315336E+02  0.30384819491E+02  0.47787272682E+02  0.20000007466E+02 0.  0.
         12    1    1    2    0    0  0.25444815180E+02  0.17690315336E+02 -0.30384819491E+02  0.43400727318E+02  0.00000000000E+00 0. -1.
         11    1    3    3    0    0 -0.50300148410E+01 -0.50347767544E+01 -0.11840065585E-01  0.71168930521E+01  0.51100000000E-03 0. -1.
        -11    1    3    3    0    0  0.67544131201E+00 -0.40758340540E+01  0.61527994477E+01  0.74111797648E+01  0.51100000000E-03 0.  1.
        -12    1    3    3    0    0 -0.21090241651E+02 -0.85797045276E+01  0.24243860109E+02  0.33259199865E+02  0.00000000000E+00 0.  1.
</event>
<event>
 7    1  0.2682317E-010  0.4778728E+02  0.7816164E-02  0.1312668E+00
        -11   -1    0    0    0    0  0.00000000000E+00  0.00000000000E+00  0.45593999997E+02  0.45594000000E+02  0.51100000000E-03 0.  1.
         11   -1    0    0    0    0 -0.00000000000E+00 -0.00000000000E+00 -0.45593999997E+02  0.45594000000E+02  0.51100000000E-03 0. -1.
    9900012    2    1    2    0    0  0.20365318092E+02 -0.12067955938E+02  0.36376376522E+02  0.47787279840E+02  0.20000040104E+02 0.  0.
         12    1    1    2    0    0 -0.20365318092E+02  0.12067955938E+02 -0.36376376522E+02  0.43400720160E+02  0.00000000000E+00 0. -1.
         11    1    3    3    0    0  0.20768304424E+01  0.30105967308E+01  0.85383260518E+01  0.92886990149E+01  0.51100000000E-03 0. -1.
        -11    1    3    3    0    0  0.39428000135E+01 -0.80765768418E+01  0.16919455921E+02  0.19158412104E+02  0.51100000000E-03 0.  1.
        -12    1    3    3    0    0  0.14345687636E+02 -0.70019758273E+01  0.10918594549E+02  0.19340168721E+02  0.00000000000E+00 0.  1.
</event>
<event>
 7    1  0.2682317E-010  0.4778729E+02  0.7816164E-02  0.1312668E+00
        -11   -1    0    0    0    0  0.00000000000E+00  0.00000000000E+00  0.45593999997E+02  0.45594000000E+02  0.51100000000E-03 0.  1.
         11   -1    0    0    0    0 -0.00000000000E+00 -0.00000000000E+00 -0.45593999997E+02  0.45594000000E+02  0.51100000000E-03 0. -1.
    9900012    2    1    2    0    0  0.36055427881E+01 -0.13271727763E+02  0.41164096206E+02  0.47787291330E+02  0.20000092489E+02 0.  0.
         12    1    1    2    0    0 -0.36055427881E+01  0.13271727763E+02 -0.41164096206E+02  0.43400708670E+02  0.00000000000E+00 0. -1.
         11    1    3    3    0    0 -0.27093602130E+01 -0.24369415606E+01  0.65337062295E+00  0.37021899419E+01  0.51100000000E-03 0. -1.
        -11    1    3    3    0    0  0.21225014343E+01 -0.45614886061E+01  0.30746850185E+01  0.58962597353E+01  0.51100000000E-03 0.  1.
        -12    1    3    3    0    0  0.41924015668E+01 -0.62732975961E+01  0.37436040565E+02  0.38188841653E+02  0.00000000000E+00 0.  1.
</event>
<event>
 7    1  0.2682317E-010  0.4778727E+02  0.7816164E-02  0.1312668E+00
        -11   -1    0    0    0    0  0.00000000000E+00  0.00000000000E+00  0.45593999997E+02  0.45594000000E+02  0.51100000000E-03 0.  1.
         11   -1    0    0    0    0 -0.00000000000E+00 -0.00000000000E+00 -0.45593999997E+02  0.45594000000E+02  0.51100000000E-03 0. -1.
    9900012    2    1    2    0    0 -0.36568102875E+02  0.17679008897E+02  0.15292148751E+02  0.47787270549E+02  0.19999997740E+02 0.  0.
         12    1    1    2    0    0  0.36568102875E+02 -0.17679008897E+02 -0.15292148751E+02  0.43400729451E+02  0.00000000000E+00 0. -1.
         11    1    3    3    0    0 -0.46119498262E+01 -0.24070981280E+01 -0.74700807704E+00  0.52556849149E+01  0.51100000000E-03 0. -1.
        -11    1    3    3    0    0 -0.10061504982E+01  0.32919546016E+01 -0.74690347949E+00  0.35223811538E+01  0.51100000000E-03 0.  1.
        -12    1    3    3    0    0 -0.30950002551E+02  0.16794152423E+02  0.16786060307E+02  0.39009204480E+02  0.00000000000E+00 0.  1.
</event>
<event>
 7    1  0.2682317E-010  0.4778727E+02  0.7816164E-02  0.1312668E+00
        -11   -1    0    0    0    0  0.00000000000E+00  0.00000000000E+00  0.45593999997E+02  0.45594000000E+02  0.51100000000E-03 0.  1.
         11   -1    0    0    0    0 -0.00000000000E+00 -0.00000000000E+00 -0.45593999997E+02  0.45594000000E+02  0.51100000000E-03 0. -1.
    9900012    2    1    2    0    0  0.35579969174E+02 -0.24417587190E+02  0.46336405068E+01  0.47787269650E+02  0.19999993642E+02 0.  0.
         12    1    1    2    0    0 -0.35579969174E+02  0.24417587190E+02 -0.46336405068E+01  0.43400730350E+02  0.00000000000E+00 0. -1.
         11    1    3    3    0    0  0.19452583005E+02 -0.39851029110E+01 -0.29830936033E+01  0.20079414297E+02  0.51100000000E-03 0. -1.
        -11    1    3    3    0    0  0.82188523954E+00 -0.80628921407E+00  0.18191103061E+01  0.21528493237E+01  0.51100000000E-03 0.  1.
        -12    1    3    3    0    0  0.15305500929E+02 -0.19626195065E+02  0.57976238040E+01  0.25555006030E+02  0.00000000000E+00 0.  1.
</event>
<event>
 7    1  0.2682317E-010  0.4778727E+02  0.7816164E-02  0.1312668E+00
        -11   -1    0    0    0    0  0.00000000000E+00  0.00000000000E+00  0.45593999997E+02  0.45594000000E+02  0.51100000000E-03 0.  1.
         11   -1    0    0    0    0 -0.00000000000E+00 -0.00000000000E+00 -0.45593999997E+02  0.45594000000E+02  0.51100000000E-03 0. -1.
    9900012    2    1    2    0    0  0.25637261971E+02 -0.46293536369E+01  0.34712002036E+02  0.47787271875E+02  0.20000003786E+02 0.  0.
         12    1    1    2    0    0 -0.25637261971E+02  0.46293536369E+01 -0.34712002036E+02  0.43400728125E+02  0.00000000000E+00 0. -1.
         11    1    3    3    0    0  0.20715580819E+01  0.79584370818E+00 -0.76888394191E+00  0.23485959363E+01  0.51100000000E-03 0. -1.
        -11    1    3    3    0    0  0.37318885320E+01  0.10822504244E+01  0.17381491190E+02  0.17810516395E+02  0.51100000000E-03 0.  1.
         12    1    3    3    0    0  0.19833815357E+02 -0.65074477694E+01  0.18099394787E+02  0.27628159544E+02  0.00000000000E+00 0. -1.
</event>
<event>
 7    1  0.2682317E-010  0.4778727E+02  0.7816164E-02  0.1312668E+00
        -11   -1    0    0    0    0  0.00000000000E+00  0.00000000000E+00  0.45593999997E+02  0.45594000000E+02  0.51100000000E-03 0.  1.
         11   -1    0    0    0    0 -0.00000000000E+00 -0.00000000000E+00 -0.45593999997E+02  0.45594000000E+02  0.51100000000E-03 0. -1.
    9900012    2    1    2    0    0 -0.42972403365E+01  0.34320119793E+02  0.26216144746E+02  0.47787272558E+02  0.20000006902E+02 0.  0.
         12    1    1    2    0    0  0.42972403365E+01 -0.34320119793E+02 -0.26216144746E+02  0.43400727442E+02  0.00000000000E+00 0. -1.
         11    1    3    3    0    0 -0.50023357187E+00 -0.19994503863E+01  0.61843383969E+00  0.21518587660E+01  0.51100000000E-03 0. -1.
        -11    1    3    3    0    0  0.23452748777E+01  0.80605739638E+01  0.89333279852E+01  0.12258773023E+02  0.51100000000E-03 0.  1.
         12    1    3    3    0    0 -0.61422816424E+01  0.28258996215E+02  0.16664382922E+02  0.33376640769E+02  0.00000000000E+00 0. -1.
</event>
<event>
 7    1  0.2682317E-010  0.4778727E+02  0.7816164E-02  0.1312668E+00
        -11   -1    0    0    0    0  0.00000000000E+00  0.00000000000E+00  0.45593999997E+02  0.45594000000E+02  0.51100000000E-03 0.  1.
         11   -1    0    0    0    0 -0.00000000000E+00 -0.00000000000E+00 -0.45593999997E+02  0.45594000000E+02  0.51100000000E-03 0. -1.
    9900012    2    1    2    0    0  0.23802381030E+02  0.25621121607E+02  0.25702695117E+02  0.47787265543E+02  0.19999974918E+02 0.  0.
         12    1    1    2    0    0 -0.23802381030E+02 -0.25621121607E+02 -0.25702695117E+02  0.43400734457E+02  0.00000000000E+00 0. -1.
         11    1    3    3    0    0 -0.22801512267E+01 -0.13971381591E+01  0.14146474567E+01  0.30252788863E+01  0.51100000000E-03 0. -1.
        -11    1    3    3    0    0  0.54054657501E+01  0.58104575335E+01  0.42637984976E+01  0.90089097350E+01  0.51100000000E-03 0.  1.
         12    1    3    3    0    0  0.20677066506E+02  0.21207802233E+02  0.20024249163E+02  0.35753076922E+02  0.00000000000E+00 0. -1.
</event>
<event>
 7    1  0.2682317E-010  0.4778727E+02  0.7816164E-02  0.1312668E+00
        -11   -1    0    0    0    0  0.00000000000E+00  0.00000000000E+00  0.45593999997E+02  0.45594000000E+02  0.51100000000E-03 0. -1.
         11   -1    0    0    0    0 -0.00000000000E+00 -0.00000000000E+00 -0.45593999997E+02  0.45594000000E+02  0.51100000000E-03 0.  1.
    9900012    2    1    2    0    0  0.34438520407E+02 -0.20993165618E+02  0.16028057566E+02  0.47787270515E+02  0.19999997587E+02 0.  0.
         12    1    1    2    0    0 -0.34438520407E+02  0.20993165618E+02 -0.16028057566E+02  0.43400729485E+02  0.00000000000E+00 0. -1.
         11    1    3    3    0    0  0.10446629097E+02 -0.78531430200E+01  0.13903229604E+01  0.13142941565E+02  0.51100000000E-03 0. -1.
        -11    1    3    3    0    0  0.15016084121E+02 -0.14710700974E+02  0.54760060706E+01  0.21722664390E+02  0.51100000000E-03 0.  1.
         12    1    3    3    0    0  0.89758071892E+01  0.15706783759E+01  0.91617285348E+01  0.12921664560E+02  0.00000000000E+00 0. -1.
</event>
<event>
 7    1  0.2682317E-010  0.4778727E+02  0.7816164E-02  0.1312668E+00
        -11   -1    0    0    0    0  0.00000000000E+00  0.00000000000E+00  0.45593999997E+02  0.45594000000E+02  0.51100000000E-03 0.  1.
         11   -1    0    0    0    0 -0.00000000000E+00 -0.00000000000E+00 -0.45593999997E+02  0.45594000000E+02  0.51100000000E-03 0. -1.
    9900012    2    1    2    0    0  0.36261808635E+02  0.29696290620E+01  0.23661912074E+02  0.47787267918E+02  0.19999985746E+02 0.  0.
         12    1    1    2    0    0 -0.36261808635E+02 -0.29696290620E+01 -0.23661912074E+02  0.43400732082E+02  0.00000000000E+00 0. -1.
         11    1    3    3    0    0  0.69495713524E+01  0.24325778852E+01 -0.28809978657E+01  0.79065875138E+01  0.51100000000E-03 0. -1.
        -11    1    3    3    0    0  0.86749004397E+01  0.23727711044E+01  0.69653909585E+01  0.11375438973E+02  0.51100000000E-03 0.  1.
        -12    1    3    3    0    0  0.20637336843E+02 -0.18357199277E+01  0.19577518981E+02  0.28505241432E+02  0.00000000000E+00 0.  1.
</event>
<event>
 7    1  0.2682317E-010  0.4778727E+02  0.7816164E-02  0.1312668E+00
        -11   -1    0    0    0    0  0.00000000000E+00  0.00000000000E+00  0.45593999997E+02  0.45594000000E+02  0.51100000000E-03 0. -1.
         11   -1    0    0    0    0 -0.00000000000E+00 -0.00000000000E+00 -0.45593999997E+02  0.45594000000E+02  0.51100000000E-03 0.  1.
    9900012    2    1    2    0    0 -0.11398320141E+02  0.17662809262E+02 -0.37970078215E+02  0.47787269906E+02  0.19999994807E+02 0.  0.
         12    1    1    2    0    0  0.11398320141E+02 -0.17662809262E+02  0.37970078215E+02  0.43400730094E+02  0.00000000000E+00 0. -1.
         11    1    3    3    0    0 -0.23460008587E+01 -0.20602482015E+01 -0.93148945526E+01  0.98242355156E+01  0.51100000000E-03 0. -1.
        -11    1    3    3    0    0 -0.83143965896E+01  0.46414105159E+01 -0.13917802160E+02  0.16863484203E+02  0.51100000000E-03 0.  1.
        -12    1    3    3    0    0 -0.73792269230E+00  0.15081646947E+02 -0.14737381503E+02  0.21099550187E+02  0.00000000000E+00 0.  1.
</event>
<event>
 7    1  0.2682317E-010  0.4778727E+02  0.7816164E-02  0.1312668E+00
        -11   -1    0    0    0    0  0.00000000000E+00  0.00000000000E+00  0.45593999997E+02  0.45594000000E+02  0.51100000000E-03 0.  1.
         11   -1    0    0    0    0 -0.00000000000E+00 -0.00000000000E+00 -0.45593999997E+02  0.45594000000E+02  0.51100000000E-03 0. -1.
    9900012    2    1    2    0    0 -0.43399112707E+02  0.36887812812E+00  0.64442819055E-01  0.47787271807E+02  0.20000003476E+02 0.  0.
         12    1    1    2    0    0  0.43399112707E+02 -0.36887812812E+00 -0.64442819055E-01  0.43400728193E+02  0.00000000000E+00 0. -1.
         11    1    3    3    0    0 -0.31460328902E+01  0.31592284661E+01 -0.11121813120E+01  0.45951273083E+01  0.51100000000E-03 0. -1.
        -11    1    3    3    0    0 -0.39062836069E+02 -0.52851990299E+01 -0.13574819876E+01  0.39442125299E+02  0.51100000000E-03 0.  1.
        -12    1    3    3    0    0 -0.11902437483E+01  0.24948486919E+01  0.25341061186E+01  0.37500191994E+01  0.00000000000E+00 0.  1.
</event>
<event>
 7    1  0.2682317E-010  0.4778727E+02  0.7816164E-02  0.1312668E+00
        -11   -1    0    0    0    0  0.00000000000E+00  0.00000000000E+00  0.45593999997E+02  0.45594000000E+02  0.51100000000E-03 0.  1.
         11   -1    0    0    0    0 -0.00000000000E+00 -0.00000000000E+00 -0.45593999997E+02  0.45594000000E+02  0.51100000000E-03 0. -1.
    9900012    2    1    2    0    0 -0.28820717976E+02 -0.60221766724E+01  0.31886091156E+02  0.47787271829E+02  0.20000003579E+02 0.  0.
         12    1    1    2    0    0  0.28820717976E+02  0.60221766724E+01 -0.31886091156E+02  0.43400728171E+02  0.00000000000E+00 0. -1.
         11    1    3    3    0    0 -0.80284774663E+01 -0.50410712563E+01  0.75297501296E+01  0.12106444033E+02  0.51100000000E-03 0. -1.
        -11    1    3    3    0    0 -0.95908242793E+01  0.80051265843E+00  0.22116189175E+02  0.24119505691E+02  0.51100000000E-03 0.  1.
         12    1    3    3    0    0 -0.11201416230E+02 -0.17816180746E+01  0.22401518518E+01  0.11561322106E+02  0.00000000000E+00 0. -1.
</event>
<event>
 7    1  0.2682317E-010  0.4778727E+02  0.7816164E-02  0.1312668E+00
        -11   -1    0    0    0    0  0.00000000000E+00  0.00000000000E+00  0.45593999997E+02  0.45594000000E+02  0.51100000000E-03 0.  1.
         11   -1    0    0    0    0 -0.00000000000E+00 -0.00000000000E+00 -0.45593999997E+02  0.45594000000E+02  0.51100000000E-03 0. -1.
    9900012    2    1    2    0    0 -0.42530565523E+01  0.43014348338E+02 -0.39115942402E+01  0.47787271637E+02  0.20000002702E+02 0.  0.
         12    1    1    2    0    0  0.42530565523E+01 -0.43014348338E+02  0.39115942402E+01  0.43400728363E+02  0.00000000000E+00 0. -1.
         11    1    3    3    0    0 -0.18992901432E+01  0.12541493929E+02 -0.17330659553E+01  0.12802339274E+02  0.51100000000E-03 0. -1.
        -11    1    3    3    0    0 -0.43063780748E+01  0.32042431493E+02 -0.26377609051E+01  0.32437942151E+02  0.51100000000E-03 0.  1.
         12    1    3    3    0    0  0.19526116657E+01 -0.15695770847E+01  0.45923262013E+00  0.25469902122E+01  0.00000000000E+00 0. -1.
</event>
<event>
 7    1  0.2682317E-010  0.4778727E+02  0.7816164E-02  0.1312668E+00
        -11   -1    0    0    0    0  0.00000000000E+00  0.00000000000E+00  0.45593999997E+02  0.45594000000E+02  0.51100000000E-03 0. -1.
         11   -1    0    0    0    0 -0.00000000000E+00 -0.00000000000E+00 -0.45593999997E+02  0.45594000000E+02  0.51100000000E-03 0.  1.
    9900012    2    1    2    0    0 -0.28369159515E+02 -0.28013069529E+02  0.17148810258E+02  0.47787274553E+02  0.20000015999E+02 0.  0.
         12    1    1    2    0    0  0.28369159515E+02  0.28013069529E+02 -0.17148810258E+02  0.43400725447E+02  0.00000000000E+00 0. -1.
         11    1    3    3    0    0 -0.17540227662E+01 -0.41207113335E+01  0.61655109970E+01  0.76203926325E+01  0.51100000000E-03 0. -1.
        -11    1    3    3    0    0 -0.18818398513E+02 -0.15143897249E+02  0.14193569317E+02  0.28016551477E+02  0.51100000000E-03 0.  1.
        -12    1    3    3    0    0 -0.77967382359E+01 -0.87484609466E+01 -0.32102700558E+01  0.12150330443E+02  0.00000000000E+00 0.  1.
</event>
<event>
 7    1  0.2682317E-010  0.4778727E+02  0.7816164E-02  0.1312668E+00
        -11   -1    0    0    0    0  0.00000000000E+00  0.00000000000E+00  0.45593999997E+02  0.45594000000E+02  0.51100000000E-03 0. -1.
         11   -1    0    0    0    0 -0.00000000000E+00 -0.00000000000E+00 -0.45593999997E+02  0.45594000000E+02  0.51100000000E-03 0.  1.
    9900012    2    1    2    0    0  0.35350568733E+02  0.23616101606E+02 -0.87315604663E+01  0.47787272898E+02  0.20000008451E+02 0.  0.
         12    1    1    2    0    0 -0.35350568733E+02 -0.23616101606E+02  0.87315604663E+01  0.43400727102E+02  0.00000000000E+00 0. -1.
         11    1    3    3    0    0  0.39044865366E+01 -0.30577293918E+01  0.71643435990E+00  0.50107886207E+01  0.51100000000E-03 0. -1.
        -11    1    3    3    0    0  0.97193095367E+01  0.65413123842E+01 -0.53305528849E+01  0.12871229153E+02  0.51100000000E-03 0.  1.
         12    1    3    3    0    0  0.21726772660E+02  0.20132518613E+02 -0.41174419413E+01  0.29905255125E+02  0.00000000000E+00 0. -1.
</event>
<event>
 7    1  0.2682317E-010  0.4778728E+02  0.7816164E-02  0.1312668E+00
        -11   -1    0    0    0    0  0.00000000000E+00  0.00000000000E+00  0.45593999997E+02  0.45594000000E+02  0.51100000000E-03 0.  1.
         11   -1    0    0    0    0 -0.00000000000E+00 -0.00000000000E+00 -0.45593999997E+02  0.45594000000E+02  0.51100000000E-03 0. -1.
    9900012    2    1    2    0    0 -0.26744229503E+02 -0.25216895005E+02  0.23075466780E+02  0.47787276821E+02  0.20000026338E+02 0.  0.
         12    1    1    2    0    0  0.26744229503E+02  0.25216895005E+02 -0.23075466780E+02  0.43400723179E+02  0.00000000000E+00 0. -1.
         11    1    3    3    0    0 -0.44614495331E+01 -0.30688346187E+01  0.30927805052E+00  0.54238299224E+01  0.51100000000E-03 0. -1.
        -11    1    3    3    0    0 -0.20401221275E+02 -0.88963519007E+01  0.15617872792E+02  0.27189572586E+02  0.51100000000E-03 0.  1.
         12    1    3    3    0    0 -0.18815586949E+01 -0.13251708485E+02  0.71483159374E+01  0.15173874312E+02  0.00000000000E+00 0. -1.
</event>
<event>
 7    1  0.2682317E-010  0.4778728E+02  0.7816164E-02  0.1312668E+00
        -11   -1    0    0    0    0  0.00000000000E+00  0.00000000000E+00  0.45593999997E+02  0.45594000000E+02  0.51100000000E-03 0.  1.
         11   -1    0    0    0    0 -0.00000000000E+00 -0.00000000000E+00 -0.45593999997E+02  0.45594000000E+02  0.51100000000E-03 0. -1.
    9900012    2    1    2    0    0  0.21009507640E+02  0.15200002415E+02  0.34802049612E+02  0.47787284085E+02  0.20000059457E+02 0.  0.
         12    1    1    2    0    0 -0.21009507640E+02 -0.15200002415E+02 -0.34802049612E+02  0.43400715915E+02  0.00000000000E+00 0. -1.
         11    1    3    3    0    0  0.22040762527E+01  0.55562446662E+01  0.57401757242E+01  0.82873050218E+01  0.51100000000E-03 0. -1.
        -11    1    3    3    0    0  0.37232911858E+01  0.10435120729E+02  0.83850321803E+01  0.13894725863E+02  0.51100000000E-03 0.  1.
         12    1    3    3    0    0  0.15082140202E+02 -0.79136298009E+00  0.20676841708E+02  0.25605253200E+02  0.00000000000E+00 0. -1.
</event>
<event>
 7    1  0.2682317E-010  0.4778725E+02  0.7816164E-02  0.1312668E+00
        -11   -1    0    0    0    0  0.00000000000E+00  0.00000000000E+00  0.45593999997E+02  0.45594000000E+02  0.51100000000E-03 0. -1.
         11   -1    0    0    0    0 -0.00000000000E+00 -0.00000000000E+00 -0.45593999997E+02  0.45594000000E+02  0.51100000000E-03 0.  1.
    9900012    2    1    2    0    0 -0.89297045700E+01 -0.11084964886E+02 -0.41000106018E+02  0.47787253881E+02  0.19999921743E+02 0.  0.
         12    1    1    2    0    0  0.89297045700E+01  0.11084964886E+02  0.41000106018E+02  0.43400746119E+02  0.00000000000E+00 0. -1.
         11    1    3    3    0    0  0.10271234856E+01 -0.88940389270E+00 -0.16438791237E+01  0.21326886256E+01  0.51100000000E-03 0. -1.
        -11    1    3    3    0    0 -0.24223727491E+01  0.50077006524E+01 -0.57086794185E+01  0.79708203169E+01  0.51100000000E-03 0.  1.
        -12    1    3    3    0    0 -0.75344553065E+01 -0.15203261646E+02 -0.33647547476E+02  0.37683744938E+02  0.00000000000E+00 0.  1.
</event>
<event>
 7    1  0.2682317E-010  0.4778729E+02  0.7816164E-02  0.1312668E+00
        -11   -1    0    0    0    0  0.00000000000E+00  0.00000000000E+00  0.45593999997E+02  0.45594000000E+02  0.51100000000E-03 0. -1.
         11   -1    0    0    0    0 -0.00000000000E+00 -0.00000000000E+00 -0.45593999997E+02  0.45594000000E+02  0.51100000000E-03 0.  1.
    9900012    2    1    2    0    0  0.26855122693E+02 -0.21878223667E+02 -0.26148942987E+02  0.47787291423E+02  0.20000092913E+02 0.  0.
         12    1    1    2    0    0 -0.26855122693E+02  0.21878223667E+02  0.26148942987E+02  0.43400708577E+02  0.00000000000E+00 0. -1.
         11    1    3    3    0    0  0.10734313440E+02 -0.42627270534E+00 -0.17357036772E+01  0.10882088998E+02  0.51100000000E-03 0. -1.
        -11    1    3    3    0    0  0.94163845997E+01 -0.83406323921E+01 -0.82689789838E+01  0.15053586328E+02  0.51100000000E-03 0.  1.
        -12    1    3    3    0    0  0.67044246528E+01 -0.13111318570E+02 -0.16144260326E+02  0.21851616097E+02  0.00000000000E+00 0.  1.
</event>
<event>
 7    1  0.2682317E-010  0.4778727E+02  0.7816164E-02  0.1312668E+00
        -11   -1    0    0    0    0  0.00000000000E+00  0.00000000000E+00  0.45593999997E+02  0.45594000000E+02  0.51100000000E-03 0.  1.
         11   -1    0    0    0    0 -0.00000000000E+00 -0.00000000000E+00 -0.45593999997E+02  0.45594000000E+02  0.51100000000E-03 0. -1.
    9900012    2    1    2    0    0  0.29184348343E+02  0.53304575794E+01  0.31677804305E+02  0.47787271299E+02  0.20000001161E+02 0.  0.
         12    1    1    2    0    0 -0.29184348343E+02 -0.53304575794E+01 -0.31677804305E+02  0.43400728701E+02  0.00000000000E+00 0. -1.
         11    1    3    3    0    0  0.17644663382E+02 -0.23261829805E+01  0.13098070678E+02  0.22097618171E+02  0.51100000000E-03 0. -1.
        -11    1    3    3    0    0  0.81493215835E+01 -0.11482539710E+01  0.74738682229E+01  0.11117042589E+02  0.51100000000E-03 0.  1.
        -12    1    3    3    0    0  0.33903633776E+01  0.88048945308E+01  0.11105865404E+02  0.14572610539E+02  0.00000000000E+00 0.  1.
</event>
<event>
 7    1  0.2682317E-010  0.4778727E+02  0.7816164E-02  0.1312668E+00
        -11   -1    0    0    0    0  0.00000000000E+00  0.00000000000E+00  0.45593999997E+02  0.45594000000E+02  0.51100000000E-03 0. -1.
         11   -1    0    0    0    0 -0.00000000000E+00 -0.00000000000E+00 -0.45593999997E+02  0.45594000000E+02  0.51100000000E-03 0.  1.
    9900012    2    1    2    0    0 -0.19696824665E+02  0.37415642451E+02  0.97840845923E+01  0.47787268287E+02  0.19999987427E+02 0.  0.
         12    1    1    2    0    0  0.19696824665E+02 -0.37415642451E+02 -0.97840845923E+01  0.43400731713E+02  0.00000000000E+00 0. -1.
         11    1    3    3    0    0 -0.83860954259E+01  0.28516720351E+01  0.27433924385E+01  0.92728006676E+01  0.51100000000E-03 0. -1.
        -11    1    3    3    0    0 -0.96042334018E+00  0.12646373370E+02  0.65422346048E+01  0.14270739515E+02  0.51100000000E-03 0.  1.
         12    1    3    3    0    0 -0.10350305899E+02  0.21917597046E+02  0.49845754906E+00  0.24243728105E+02  0.00000000000E+00 0. -1.
</event>
<event>
 7    1  0.2682317E-010  0.4778727E+02  0.7816164E-02  0.1312668E+00
        -11   -1    0    0    0    0  0.00000000000E+00  0.00000000000E+00  0.45593999997E+02  0.45594000000E+02  0.51100000000E-03 0.  1.
         11   -1    0    0    0    0 -0.00000000000E+00 -0.00000000000E+00 -0.45593999997E+02  0.45594000000E+02  0.51100000000E-03 0. -1.
    9900012    2    1    2    0    0 -0.29451496996E+02 -0.26103727868E+02  0.18298311872E+02  0.47787268424E+02  0.19999988054E+02 0.  0.
         12    1    1    2    0    0  0.29451496996E+02  0.26103727868E+02 -0.18298311872E+02  0.43400731576E+02  0.00000000000E+00 0. -1.
         11    1    3    3    0    0 -0.99823958102E+01 -0.19166142636E+01  0.28906800332E+00  0.10168834590E+02  0.51100000000E-03 0. -1.
        -11    1    3    3    0    0 -0.74543120459E+01 -0.18907284386E+01  0.38144814017E+01  0.85843980996E+01  0.51100000000E-03 0.  1.
        -12    1    3    3    0    0 -0.12014789140E+02 -0.22296385166E+02  0.14194762467E+02  0.29034035735E+02  0.00000000000E+00 0.  1.
</event>
<event>
 7    1  0.2682317E-010  0.4778727E+02  0.7816164E-02  0.1312668E+00
        -11   -1    0    0    0    0  0.00000000000E+00  0.00000000000E+00  0.45593999997E+02  0.45594000000E+02  0.51100000000E-03 0.  1.
         11   -1    0    0    0    0 -0.00000000000E+00 -0.00000000000E+00 -0.45593999997E+02  0.45594000000E+02  0.51100000000E-03 0. -1.
    9900012    2    1    2    0    0 -0.14458230785E+02  0.27137086162E+02  0.30629415016E+02  0.47787274810E+02  0.20000017168E+02 0.  0.
         12    1    1    2    0    0  0.14458230785E+02 -0.27137086162E+02 -0.30629415016E+02  0.43400725190E+02  0.00000000000E+00 0. -1.
         11    1    3    3    0    0  0.15855618740E+01 -0.13060568850E+01  0.48667013227E+01  0.52824779288E+01  0.51100000000E-03 0. -1.
        -11    1    3    3    0    0 -0.71708064722E+01  0.58958286838E+01  0.97426482426E+01  0.13457356961E+02  0.51100000000E-03 0.  1.
         12    1    3    3    0    0 -0.88729861873E+01  0.22547314363E+02  0.16020065451E+02  0.29047439920E+02  0.00000000000E+00 0. -1.
</event>
<event>
 7    1  0.2682317E-010  0.4778728E+02  0.7816164E-02  0.1312668E+00
        -11   -1    0    0    0    0  0.00000000000E+00  0.00000000000E+00  0.45593999997E+02  0.45594000000E+02  0.51100000000E-03 0.  1.
         11   -1    0    0    0    0 -0.00000000000E+00 -0.00000000000E+00 -0.45593999997E+02  0.45594000000E+02  0.51100000000E-03 0. -1.
    9900012    2    1    2    0    0 -0.12620972301E+02  0.22221465731E+02  0.35079058959E+02  0.47787275829E+02  0.20000021816E+02 0.  0.
         12    1    1    2    0    0  0.12620972301E+02 -0.22221465731E+02 -0.35079058959E+02  0.43400724171E+02  0.00000000000E+00 0. -1.
         11    1    3    3    0    0 -0.36135001172E+01  0.70735517710E+01  0.16983387200E+02  0.18749078879E+02  0.51100000000E-03 0. -1.
        -11    1    3    3    0    0 -0.73478630722E+01  0.10122280116E+02  0.19850227026E+02  0.23462377537E+02  0.51100000000E-03 0.  1.
         12    1    3    3    0    0 -0.16596091117E+01  0.50256338449E+01 -0.17545552665E+01  0.55758194133E+01  0.00000000000E+00 0. -1.
</event>
<event>
 7    1  0.2682317E-010  0.4778727E+02  0.7816164E-02  0.1312668E+00
        -11   -1    0    0    0    0  0.00000000000E+00  0.00000000000E+00  0.45593999997E+02  0.45594000000E+02  0.51100000000E-03 0.  1.
         11   -1    0    0    0    0 -0.00000000000E+00 -0.00000000000E+00 -0.45593999997E+02  0.45594000000E+02  0.51100000000E-03 0. -1.
    9900012    2    1    2    0    0 -0.31661094295E+02  0.75818939282E+01  0.28700406962E+02  0.47787269969E+02  0.19999995095E+02 0.  0.
         12    1    1    2    0    0  0.31661094295E+02 -0.75818939282E+01 -0.28700406962E+02  0.43400730031E+02  0.00000000000E+00 0. -1.
         11    1    3    3    0    0 -0.27867955233E+01 -0.33937446136E+01  0.92272332261E+01  0.10218882770E+02  0.51100000000E-03 0.  1.
        -11    1    3    3    0    0 -0.94900600002E+01  0.50909383333E+01  0.11616167680E+02  0.15840272843E+02  0.51100000000E-03 0. -1.
         12    1    3    3    0    0 -0.19384238771E+02  0.58847002085E+01  0.78570060561E+01  0.21728114356E+02  0.00000000000E+00 0. -1.
</event>
<event>
 7    1  0.2682317E-010  0.4778727E+02  0.7816164E-02  0.1312668E+00
        -11   -1    0    0    0    0  0.00000000000E+00  0.00000000000E+00  0.45593999997E+02  0.45594000000E+02  0.51100000000E-03 0.  1.
         11   -1    0    0    0    0 -0.00000000000E+00 -0.00000000000E+00 -0.45593999997E+02  0.45594000000E+02  0.51100000000E-03 0. -1.
    9900012    2    1    2    0    0  0.16108002778E+01 -0.41645896817E+02  0.12109839201E+02  0.47787267234E+02  0.19999982625E+02 0.  0.
         12    1    1    2    0    0 -0.16108002778E+01  0.41645896817E+02 -0.12109839201E+02  0.43400732766E+02  0.00000000000E+00 0. -1.
         11    1    3    3    0    0 -0.42778751344E+01 -0.14937311020E+02  0.11403158910E+00  0.15538226400E+02  0.51100000000E-03 0. -1.
        -11    1    3    3    0    0  0.19619205770E+01 -0.14522637331E+02 -0.72444648193E-01  0.14654739025E+02  0.51100000000E-03 0.  1.
        -12    1    3    3    0    0  0.39267548351E+01 -0.12185948465E+02  0.12068252260E+02  0.17594301808E+02  0.00000000000E+00 0.  1.
</event>
<event>
 7    1  0.2682317E-010  0.4778727E+02  0.7816164E-02  0.1312668E+00
        -11   -1    0    0    0    0  0.00000000000E+00  0.00000000000E+00  0.45593999997E+02  0.45594000000E+02  0.51100000000E-03 0. -1.
         11   -1    0    0    0    0 -0.00000000000E+00 -0.00000000000E+00 -0.45593999997E+02  0.45594000000E+02  0.51100000000E-03 0.  1.
    9900012    2    1    2    0    0 -0.41541254023E+02  0.17078857408E+01 -0.12451122901E+02  0.47787272806E+02  0.20000008032E+02 0.  0.
         12    1    1    2    0    0  0.41541254023E+02 -0.17078857408E+01  0.12451122901E+02  0.43400727194E+02  0.00000000000E+00 0. -1.
         11    1    3    3    0    0 -0.55553197120E+01 -0.30257823057E+01  0.22370942126E+01  0.67098082269E+01  0.51100000000E-03 0. -1.
        -11    1    3    3    0    0 -0.25650039747E+02  0.15530928346E+01 -0.42475662665E+01  0.26045699373E+02  0.51100000000E-03 0.  1.
         12    1    3    3    0    0 -0.10335894563E+02  0.31805752118E+01 -0.10440650847E+02  0.15031765206E+02  0.00000000000E+00 0. -1.
</event>
<event>
 7    1  0.2682317E-010  0.4778728E+02  0.7816164E-02  0.1312668E+00
        -11   -1    0    0    0    0  0.00000000000E+00  0.00000000000E+00  0.45593999997E+02  0.45594000000E+02  0.51100000000E-03 0.  1.
         11   -1    0    0    0    0 -0.00000000000E+00 -0.00000000000E+00 -0.45593999997E+02  0.45594000000E+02  0.51100000000E-03 0. -1.
    9900012    2    1    2    0    0 -0.29203963707E+02 -0.11290032164E+01  0.32085458788E+02  0.47787276388E+02  0.20000024361E+02 0.  0.
         12    1    1    2    0    0  0.29203963707E+02  0.11290032164E+01 -0.32085458788E+02  0.43400723612E+02  0.00000000000E+00 0. -1.
         11    1    3    3    0    0 -0.81015825228E+00 -0.21173783057E+01 -0.11312921170E-01  0.22671073037E+01  0.51100000000E-03 0. -1.
        -11    1    3    3    0    0 -0.21065727657E+02 -0.62546298775E+01  0.21896973996E+02  0.31021972005E+02  0.51100000000E-03 0.  1.
         12    1    3    3    0    0 -0.73280777978E+01  0.72430049668E+01  0.10199797712E+02  0.14498197079E+02  0.00000000000E+00 0. -1.
</event>
<event>
 7    1  0.2682317E-010  0.4778727E+02  0.7816164E-02  0.1312668E+00
        -11   -1    0    0    0    0  0.00000000000E+00  0.00000000000E+00  0.45593999997E+02  0.45594000000E+02  0.51100000000E-03 0.  1.
         11   -1    0    0    0    0 -0.00000000000E+00 -0.00000000000E+00 -0.45593999997E+02  0.45594000000E+02  0.51100000000E-03 0. -1.
    9900012    2    1    2    0    0 -0.14838049683E+02  0.39644386629E+02  0.95800741830E+01  0.47787274995E+02  0.20000018011E+02 0.  0.
         12    1    1    2    0    0  0.14838049683E+02 -0.39644386629E+02 -0.95800741830E+01  0.43400725005E+02  0.00000000000E+00 0. -1.
         11    1    3    3    0    0 -0.16213346135E+01  0.10353173979E+02  0.23285558461E+00  0.10481944446E+02  0.51100000000E-03 0. -1.
        -11    1    3    3    0    0 -0.16757477481E+02  0.20533005357E+02  0.84420448986E+01  0.27815202369E+02  0.51100000000E-03 0.  1.
         12    1    3    3    0    0  0.35407624115E+01  0.87582072936E+01  0.90517369984E+00  0.94901281803E+01  0.00000000000E+00 0. -1.
</event>
<event>
 7    1  0.2682317E-010  0.4778727E+02  0.7816164E-02  0.1312668E+00
        -11   -1    0    0    0    0  0.00000000000E+00  0.00000000000E+00  0.45593999997E+02  0.45594000000E+02  0.51100000000E-03 0.  1.
         11   -1    0    0    0    0 -0.00000000000E+00 -0.00000000000E+00 -0.45593999997E+02  0.45594000000E+02  0.51100000000E-03 0. -1.
    9900012    2    1    2    0    0 -0.20217421067E+01 -0.23611802804E+02  0.36359573324E+02  0.47787271376E+02  0.20000001513E+02 0.  0.
         12    1    1    2    0    0  0.20217421067E+01  0.23611802804E+02 -0.36359573324E+02  0.43400728624E+02  0.00000000000E+00 0. -1.
         11    1    3    3    0    0 -0.77929850438E+01 -0.66183361503E+01  0.51397261331E+01  0.11443328811E+02  0.51100000000E-03 0. -1.
        -11    1    3    3    0    0  0.17087588774E-02 -0.73315599292E+01  0.11469039592E+02  0.13612150577E+02  0.51100000000E-03 0.  1.
         12    1    3    3    0    0  0.57695341782E+01 -0.96619067241E+01  0.19750807599E+02  0.22731791988E+02  0.00000000000E+00 0. -1.
</event>
<event>
 7    1  0.2682317E-010  0.4778727E+02  0.7816164E-02  0.1312668E+00
        -11   -1    0    0    0    0  0.00000000000E+00  0.00000000000E+00  0.45593999997E+02  0.45594000000E+02  0.51100000000E-03 0.  1.
         11   -1    0    0    0    0 -0.00000000000E+00 -0.00000000000E+00 -0.45593999997E+02  0.45594000000E+02  0.51100000000E-03 0. -1.
    9900012    2    1    2    0    0  0.23245216692E+02  0.32756418803E+02  0.16440813345E+02  0.47787269415E+02  0.19999992571E+02 0.  0.
         12    1    1    2    0    0 -0.23245216692E+02 -0.32756418803E+02 -0.16440813345E+02  0.43400730585E+02  0.00000000000E+00 0. -1.
         11    1    3    3    0    0  0.19859054540E+00  0.62255129852E+01  0.39444387451E+01  0.73725875653E+01  0.51100000000E-03 0. -1.
        -11    1    3    3    0    0  0.11657676456E+02  0.15388374545E+02  0.14786841432E+02  0.24317774802E+02  0.51100000000E-03 0.  1.
        -12    1    3    3    0    0  0.11388949690E+02  0.11142531273E+02 -0.22904668323E+01  0.16096907048E+02  0.00000000000E+00 0.  1.
</event>
<event>
 7    1  0.2682317E-010  0.4778727E+02  0.7816164E-02  0.1312668E+00
        -11   -1    0    0    0    0  0.00000000000E+00  0.00000000000E+00  0.45593999997E+02  0.45594000000E+02  0.51100000000E-03 0. -1.
         11   -1    0    0    0    0 -0.00000000000E+00 -0.00000000000E+00 -0.45593999997E+02  0.45594000000E+02  0.51100000000E-03 0.  1.
    9900012    2    1    2    0    0 -0.55619457743E+01  0.28017951387E+02 -0.32675412608E+02  0.47787269248E+02  0.19999991808E+02 0.  0.
         12    1    1    2    0    0  0.55619457743E+01 -0.28017951387E+02  0.32675412608E+02  0.43400730752E+02  0.00000000000E+00 0. -1.
         11    1    3    3    0    0 -0.97699075041E+01  0.72754661025E+01 -0.65091924390E+01  0.13811339041E+02  0.51100000000E-03 0. -1.
        -11    1    3    3    0    0  0.16020246730E+01  0.92152365046E+01 -0.80222754384E+01  0.12322498544E+02  0.51100000000E-03 0.  1.
         12    1    3    3    0    0  0.26059370568E+01  0.11527248780E+02 -0.18143944731E+02  0.21653431663E+02  0.00000000000E+00 0. -1.
</event>
<event>
 7    1  0.2682317E-010  0.4778727E+02  0.7816164E-02  0.1312668E+00
        -11   -1    0    0    0    0  0.00000000000E+00  0.00000000000E+00  0.45593999997E+02  0.45594000000E+02  0.51100000000E-03 0.  1.
         11   -1    0    0    0    0 -0.00000000000E+00 -0.00000000000E+00 -0.45593999997E+02  0.45594000000E+02  0.51100000000E-03 0. -1.
    9900012    2    1    2    0    0  0.40877475219E+02  0.14578842178E+02 -0.33587963702E+00  0.47787269192E+02  0.19999991555E+02 0.  0.
         12    1    1    2    0    0 -0.40877475219E+02 -0.14578842178E+02  0.33587963702E+00  0.43400730808E+02  0.00000000000E+00 0. -1.
         11    1    3    3    0    0  0.60928754661E+01  0.73462823492E+01  0.23989675594E+01  0.98410386348E+01  0.51100000000E-03 0. -1.
        -11    1    3    3    0    0  0.89533356054E+01  0.73178515645E+01  0.18518073902E+01  0.11710779686E+02  0.51100000000E-03 0.  1.
        -12    1    3    3    0    0  0.25831264147E+02 -0.85291735566E-01 -0.45866545866E+01  0.26235450871E+02  0.00000000000E+00 0.  1.
</event>
<event>
 7    1  0.2682317E-010  0.4778727E+02  0.7816164E-02  0.1312668E+00
        -11   -1    0    0    0    0  0.00000000000E+00  0.00000000000E+00  0.45593999997E+02  0.45594000000E+02  0.51100000000E-03 0. -1.
         11   -1    0    0    0    0 -0.00000000000E+00 -0.00000000000E+00 -0.45593999997E+02  0.45594000000E+02  0.51100000000E-03 0.  1.
    9900012    2    1    2    0    0  0.10951230509E+02 -0.30750207716E+02 -0.28602772892E+02  0.47787270267E+02  0.19999996456E+02 0.  0.
         12    1    1    2    0    0 -0.10951230509E+02  0.30750207716E+02  0.28602772892E+02  0.43400729733E+02  0.00000000000E+00 0. -1.
         11    1    3    3    0    0 -0.28512562312E+01 -0.96917729382E+01 -0.11800843523E+02  0.15534478842E+02  0.51100000000E-03 0. -1.
        -11    1    3    3    0    0  0.52209071196E+00 -0.44739944699E+01 -0.81506776660E+01  0.93125051358E+01  0.51100000000E-03 0.  1.
        -12    1    3    3    0    0  0.13280396029E+02 -0.16584440308E+02 -0.86512517030E+01  0.22940286289E+02  0.00000000000E+00 0.  1.
</event>
<event>
 7    1  0.2682317E-010  0.4778727E+02  0.7816164E-02  0.1312668E+00
        -11   -1    0    0    0    0  0.00000000000E+00  0.00000000000E+00  0.45593999997E+02  0.45594000000E+02  0.51100000000E-03 0.  1.
         11   -1    0    0    0    0 -0.00000000000E+00 -0.00000000000E+00 -0.45593999997E+02  0.45594000000E+02  0.51100000000E-03 0. -1.
    9900012    2    1    2    0    0  0.20203817259E+02  0.22216906366E+02  0.31334299639E+02  0.47787268507E+02  0.19999988429E+02 0.  0.
         12    1    1    2    0    0 -0.20203817259E+02 -0.22216906366E+02 -0.31334299639E+02  0.43400731493E+02  0.00000000000E+00 0. -1.
         11    1    3    3    0    0  0.70765184000E+01  0.64595338162E+01  0.22397074332E+01  0.98396635835E+01  0.51100000000E-03 0. -1.
        -11    1    3    3    0    0  0.10052413284E+02  0.17212584793E+02  0.19997050853E+02  0.28234838961E+02  0.51100000000E-03 0.  1.
        -12    1    3    3    0    0  0.30748855750E+01 -0.14552122430E+01  0.90975413527E+01  0.97127659621E+01  0.00000000000E+00 0.  1.
</event>
<event>
 7    1  0.2682317E-010  0.4778727E+02  0.7816164E-02  0.1312668E+00
        -11   -1    0    0    0    0  0.00000000000E+00  0.00000000000E+00  0.45593999997E+02  0.45594000000E+02  0.51100000000E-03 0.  1.
         11   -1    0    0    0    0 -0.00000000000E+00 -0.00000000000E+00 -0.45593999997E+02  0.45594000000E+02  0.51100000000E-03 0. -1.
    9900012    2    1    2    0    0 -0.31408695873E+02 -0.77909744538E+01  0.28920889610E+02  0.47787270568E+02  0.19999997829E+02 0.  0.
         12    1    1    2    0    0  0.31408695873E+02  0.77909744538E+01 -0.28920889610E+02  0.43400729432E+02  0.00000000000E+00 0. -1.
         11    1    3    3    0    0 -0.21366232924E+02 -0.40146695278E+01  0.21785777477E+02  0.30777484974E+02  0.51100000000E-03 0. -1.
        -11    1    3    3    0    0 -0.89287553021E+01  0.22280409273E+01  0.53624366890E+01  0.10650941983E+02  0.51100000000E-03 0.  1.
         12    1    3    3    0    0 -0.11137076467E+01 -0.60043458532E+01  0.17726754443E+01  0.63588436117E+01  0.00000000000E+00 0. -1.
</event>
<event>
 7    1  0.2682317E-010  0.4778725E+02  0.7816164E-02  0.1312668E+00
        -11   -1    0    0    0    0  0.00000000000E+00  0.00000000000E+00  0.45593999997E+02  0.45594000000E+02  0.51100000000E-03 0. -1.
         11   -1    0    0    0    0 -0.00000000000E+00 -0.00000000000E+00 -0.45593999997E+02  0.45594000000E+02  0.51100000000E-03 0.  1.
    9900012    2    1    2    0    0  0.35906208418E+02  0.13227792758E+02 -0.20479130293E+02  0.47787250217E+02  0.19999905039E+02 0.  0.
         12    1    1    2    0    0 -0.35906208418E+02 -0.13227792758E+02  0.20479130293E+02  0.43400749783E+02  0.00000000000E+00 0. -1.
         11    1    3    3    0    0  0.17981170883E+02  0.57691129900E+01 -0.19768314217E+01  0.18987180774E+02  0.51100000000E-03 0. -1.
        -11    1    3    3    0    0  0.59056275865E+01  0.73850798553E+01 -0.49071357156E+01  0.10653441831E+02  0.51100000000E-03 0.  1.
         12    1    3    3    0    0  0.12019409948E+02  0.73599912305E-01 -0.13595163156E+02  0.18146627612E+02  0.00000000000E+00 0. -1.
</event>
<event>
 7    1  0.2682317E-010  0.4778727E+02  0.7816164E-02  0.1312668E+00
        -11   -1    0    0    0    0  0.00000000000E+00  0.00000000000E+00  0.45593999997E+02  0.45594000000E+02  0.51100000000E-03 0.  1.
         11   -1    0    0    0    0 -0.00000000000E+00 -0.00000000000E+00 -0.45593999997E+02  0.45594000000E+02  0.51100000000E-03 0. -1.
    9900012    2    1    2    0    0 -0.44333898718E+01  0.18014734436E+02  0.39235667289E+02  0.47787272009E+02  0.20000004399E+02 0.  0.
         12    1    1    2    0    0  0.44333898718E+01 -0.18014734436E+02 -0.39235667289E+02  0.43400727991E+02  0.00000000000E+00 0. -1.
         11    1    3    3    0    0 -0.77741119601E+01  0.11050499540E+02  0.15629874395E+02  0.20660187093E+02  0.51100000000E-03 0. -1.
        -11    1    3    3    0    0  0.19717070070E+01  0.92200352056E+01  0.22239590804E+02  0.24155663458E+02  0.51100000000E-03 0.  1.
         12    1    3    3    0    0  0.13690150813E+01 -0.22558003099E+01  0.13662020895E+01  0.29714214578E+01  0.00000000000E+00 0. -1.
</event>
<event>
 7    1  0.2682317E-010  0.4778722E+02  0.7816164E-02  0.1312668E+00
        -11   -1    0    0    0    0  0.00000000000E+00  0.00000000000E+00  0.45593999997E+02  0.45594000000E+02  0.51100000000E-03 0. -1.
         11   -1    0    0    0    0 -0.00000000000E+00 -0.00000000000E+00 -0.45593999997E+02  0.45594000000E+02  0.51100000000E-03 0.  1.
    9900012    2    1    2    0    0 -0.40429278620E+02  0.59927237068E+01  0.14600960425E+02  0.47787224057E+02  0.19999785763E+02 0.  0.
         12    1    1    2    0    0  0.40429278620E+02 -0.59927237068E+01 -0.14600960425E+02  0.43400775943E+02  0.00000000000E+00 0. -1.
         11    1    3    3    0    0 -0.55515616468E+01  0.32920649583E+01  0.44145178584E+01  0.78195585931E+01  0.51100000000E-03 0. -1.
        -11    1    3    3    0    0 -0.25056233802E+01  0.53543673773E+01 -0.50931360413E-01  0.59118518925E+01  0.51100000000E-03 0.  1.
         12    1    3    3    0    0 -0.32372093593E+02 -0.26537086288E+01  0.10237373927E+02  0.34055813571E+02  0.00000000000E+00 0. -1.
</event>
<event>
 7    1  0.2682317E-010  0.4778727E+02  0.7816164E-02  0.1312668E+00
        -11   -1    0    0    0    0  0.00000000000E+00  0.00000000000E+00  0.45593999997E+02  0.45594000000E+02  0.51100000000E-03 0.  1.
         11   -1    0    0    0    0 -0.00000000000E+00 -0.00000000000E+00 -0.45593999997E+02  0.45594000000E+02  0.51100000000E-03 0. -1.
    9900012    2    1    2    0    0 -0.17272848641E+02  0.70216005549E+01  0.39191441317E+02  0.47787271354E+02  0.20000001410E+02 0.  0.
         12    1    1    2    0    0  0.17272848641E+02 -0.70216005549E+01 -0.39191441317E+02  0.43400728646E+02  0.00000000000E+00 0. -1.
         11    1    3    3    0    0 -0.52190567183E+01  0.39460444045E+00 -0.93225362863E+00  0.53163298226E+01  0.51100000000E-03 0. -1.
        -11    1    3    3    0    0 -0.25988916049E+01  0.21281611912E+01  0.77665402511E+01  0.84618234065E+01  0.51100000000E-03 0.  1.
         12    1    3    3    0    0 -0.94549003177E+01  0.44988349233E+01  0.32357154695E+02  0.34009118125E+02  0.00000000000E+00 0. -1.
</event>
<event>
 7    1  0.2682317E-010  0.4778727E+02  0.7816164E-02  0.1312668E+00
        -11   -1    0    0    0    0  0.00000000000E+00  0.00000000000E+00  0.45593999997E+02  0.45594000000E+02  0.51100000000E-03 0.  1.
         11   -1    0    0    0    0 -0.00000000000E+00 -0.00000000000E+00 -0.45593999997E+02  0.45594000000E+02  0.51100000000E-03 0. -1.
    9900012    2    1    2    0    0  0.32697865602E+01  0.40168971465E+02  0.16105446409E+02  0.47787272163E+02  0.20000005101E+02 0.  0.
         12    1    1    2    0    0 -0.32697865602E+01 -0.40168971465E+02 -0.16105446409E+02  0.43400727837E+02  0.00000000000E+00 0. -1.
         11    1    3    3    0    0 -0.16651169107E+01  0.21583949248E+02  0.43338154258E+01  0.22077622967E+02  0.51100000000E-03 0. -1.
        -11    1    3    3    0    0 -0.35872149511E+01  0.85933500509E+01  0.25242839758E+01  0.96480975355E+01  0.51100000000E-03 0.  1.
         12    1    3    3    0    0  0.85221184220E+01  0.99916721671E+01  0.92473470071E+01  0.16061551661E+02  0.00000000000E+00 0. -1.
</event>
<event>
 7    1  0.2682317E-010  0.4778727E+02  0.7816164E-02  0.1312668E+00
        -11   -1    0    0    0    0  0.00000000000E+00  0.00000000000E+00  0.45593999997E+02  0.45594000000E+02  0.51100000000E-03 0. -1.
         11   -1    0    0    0    0 -0.00000000000E+00 -0.00000000000E+00 -0.45593999997E+02  0.45594000000E+02  0.51100000000E-03 0.  1.
    9900012    2    1    2    0    0 -0.38110080750E+02  0.20693570012E+02 -0.17381448921E+01  0.47787271408E+02  0.20000001659E+02 0.  0.
         12    1    1    2    0    0  0.38110080750E+02 -0.20693570012E+02  0.17381448921E+01  0.43400728592E+02  0.00000000000E+00 0. -1.
         11    1    3    3    0    0 -0.17843650126E+02  0.49295198658E+01  0.19237388701E+01  0.18611737893E+02  0.51100000000E-03 0. -1.
        -11    1    3    3    0    0 -0.14507297520E+02  0.10723564851E+02  0.38554515859E+01  0.18447792054E+02  0.51100000000E-03 0.  1.
         12    1    3    3    0    0 -0.57591331043E+01  0.50404852952E+01 -0.75173353481E+01  0.10727741461E+02  0.00000000000E+00 0. -1.
</event>
<event>
 7    1  0.2682317E-010  0.4778727E+02  0.7816164E-02  0.1312668E+00
        -11   -1    0    0    0    0  0.00000000000E+00  0.00000000000E+00  0.45593999997E+02  0.45594000000E+02  0.51100000000E-03 0.  1.
         11   -1    0    0    0    0 -0.00000000000E+00 -0.00000000000E+00 -0.45593999997E+02  0.45594000000E+02  0.51100000000E-03 0. -1.
    9900012    2    1    2    0    0 -0.12221282103E+02  0.91998087187E+01  0.40615603884E+02  0.47787268491E+02  0.19999988356E+02 0.  0.
         12    1    1    2    0    0  0.12221282103E+02 -0.91998087187E+01 -0.40615603884E+02  0.43400731509E+02  0.00000000000E+00 0. -1.
         11    1    3    3    0    0 -0.29218232342E+01  0.27799203859E+01  0.20971482912E+01  0.45456616218E+01  0.51100000000E-03 0. -1.
        -11    1    3    3    0    0 -0.54472267918E+01 -0.51202880011E+01  0.15299727056E+02  0.17028543014E+02  0.51100000000E-03 0.  1.
        -12    1    3    3    0    0 -0.38522320770E+01  0.11540176334E+02  0.23218728537E+02  0.26213063855E+02  0.00000000000E+00 0.  1.
</event>
<event>
 7    1  0.2682317E-010  0.4778727E+02  0.7816164E-02  0.1312668E+00
        -11   -1    0    0    0    0  0.00000000000E+00  0.00000000000E+00  0.45593999997E+02  0.45594000000E+02  0.51100000000E-03 0.  1.
         11   -1    0    0    0    0 -0.00000000000E+00 -0.00000000000E+00 -0.45593999997E+02  0.45594000000E+02  0.51100000000E-03 0. -1.
    9900012    2    1    2    0    0  0.41077684883E+01 -0.25938608271E+02 -0.34553408499E+02  0.47787271897E+02  0.20000003887E+02 0.  0.
         12    1    1    2    0    0 -0.41077684883E+01  0.25938608271E+02  0.34553408499E+02  0.43400728103E+02  0.00000000000E+00 0. -1.
         11    1    3    3    0    0  0.23804260091E+01  0.14470905980E+01 -0.68324479274E+01  0.73785394303E+01  0.51100000000E-03 0. -1.
        -11    1    3    3    0    0 -0.17886055169E+01 -0.10549648177E+01 -0.88704558566E-01  0.20784439423E+01  0.51100000000E-03 0.  1.
         12    1    3    3    0    0  0.35159479961E+01 -0.26330734052E+02 -0.27632256013E+02  0.38330288524E+02  0.00000000000E+00 0. -1.
</event>
<event>
 7    1  0.2682317E-010  0.4778727E+02  0.7816164E-02  0.1312668E+00
        -11   -1    0    0    0    0  0.00000000000E+00  0.00000000000E+00  0.45593999997E+02  0.45594000000E+02  0.51100000000E-03 0.  1.
         11   -1    0    0    0    0 -0.00000000000E+00 -0.00000000000E+00 -0.45593999997E+02  0.45594000000E+02  0.51100000000E-03 0. -1.
    9900012    2    1    2    0    0  0.37409834075E+02 -0.86070027127E+00  0.21986060730E+02  0.47787270088E+02  0.19999995641E+02 0.  0.
         12    1    1    2    0    0 -0.37409834075E+02  0.86070027127E+00 -0.21986060730E+02  0.43400729912E+02  0.00000000000E+00 0. -1.
         11    1    3    3    0    0  0.94978311245E+01 -0.61709270577E+01  0.74437785382E+01  0.13553559533E+02  0.51100000000E-03 0. -1.
        -11    1    3    3    0    0 -0.11450596496E+01  0.11531076529E+01  0.54333519666E+00  0.17134854121E+01  0.51100000000E-03 0.  1.
        -12    1    3    3    0    0  0.29057062600E+02  0.41571191335E+01  0.13998946995E+02  0.32520225144E+02  0.00000000000E+00 0.  1.
</event>
<event>
 7    1  0.2682317E-010  0.4778727E+02  0.7816164E-02  0.1312668E+00
        -11   -1    0    0    0    0  0.00000000000E+00  0.00000000000E+00  0.45593999997E+02  0.45594000000E+02  0.51100000000E-03 0.  1.
         11   -1    0    0    0    0 -0.00000000000E+00 -0.00000000000E+00 -0.45593999997E+02  0.45594000000E+02  0.51100000000E-03 0. -1.
    9900012    2    1    2    0    0 -0.10543627186E+02  0.69512305212E+01  0.41522714119E+02  0.47787268810E+02  0.19999989812E+02 0.  0.
         12    1    1    2    0    0  0.10543627186E+02 -0.69512305212E+01 -0.41522714119E+02  0.43400731190E+02  0.00000000000E+00 0. -1.
         11    1    3    3    0    0 -0.59349651814E+01  0.78673069013E+01  0.85368792864E+01  0.13038275875E+02  0.51100000000E-03 0. -1.
        -11    1    3    3    0    0 -0.58333093958E+01 -0.68048879573E+00  0.90994596661E+01  0.10830084487E+02  0.51100000000E-03 0.  1.
        -12    1    3    3    0    0  0.12246473912E+01 -0.23558758435E+00  0.23886375167E+02  0.23918908448E+02  0.00000000000E+00 0.  1.
</event>
<event>
 7    1  0.2682317E-010  0.4778727E+02  0.7816164E-02  0.1312668E+00
        -11   -1    0    0    0    0  0.00000000000E+00  0.00000000000E+00  0.45593999997E+02  0.45594000000E+02  0.51100000000E-03 0. -1.
         11   -1    0    0    0    0 -0.00000000000E+00 -0.00000000000E+00 -0.45593999997E+02  0.45594000000E+02  0.51100000000E-03 0.  1.
    9900012    2    1    2    0    0  0.39274688820E+02 -0.83359455959E+01 -0.16481326690E+02  0.47787270740E+02  0.19999998610E+02 0.  0.
         12    1    1    2    0    0 -0.39274688820E+02  0.83359455959E+01  0.16481326690E+02  0.43400729260E+02  0.00000000000E+00 0. -1.
         11    1    3    3    0    0  0.20441875593E+02 -0.70743365416E+01 -0.94879040516E+01  0.23620686671E+02  0.51100000000E-03 0. -1.
        -11    1    3    3    0    0  0.76805615972E+01 -0.61634140985E+01 -0.68282817260E+01  0.11983494123E+02  0.51100000000E-03 0.  1.
         12    1    3    3    0    0  0.11152251630E+02  0.49018050442E+01 -0.16514091185E+00  0.12183089946E+02  0.00000000000E+00 0. -1.
</event>
<event>
 7    1  0.2682317E-010  0.4778727E+02  0.7816164E-02  0.1312668E+00
        -11   -1    0    0    0    0  0.00000000000E+00  0.00000000000E+00  0.45593999997E+02  0.45594000000E+02  0.51100000000E-03 0. -1.
         11   -1    0    0    0    0 -0.00000000000E+00 -0.00000000000E+00 -0.45593999997E+02  0.45594000000E+02  0.51100000000E-03 0.  1.
    9900012    2    1    2    0    0 -0.38784499872E+02  0.16357324631E+02 -0.10574682100E+02  0.47787269581E+02  0.19999993326E+02 0.  0.
         12    1    1    2    0    0  0.38784499872E+02 -0.16357324631E+02  0.10574682100E+02  0.43400730419E+02  0.00000000000E+00 0. -1.
         11    1    3    3    0    0 -0.11729532883E+02  0.27206337556E+00  0.32248205360E+01  0.12167802919E+02  0.51100000000E-03 0. -1.
        -11    1    3    3    0    0 -0.68396746795E+01  0.10453164419E+01 -0.57605072317E-01  0.69193319613E+01  0.51100000000E-03 0.  1.
        -12    1    3    3    0    0 -0.20215292310E+02  0.15039944813E+02 -0.13741897563E+02  0.28700134700E+02  0.00000000000E+00 0.  1.
</event>
<event>
 7    1  0.2682317E-010  0.4778727E+02  0.7816164E-02  0.1312668E+00
        -11   -1    0    0    0    0  0.00000000000E+00  0.00000000000E+00  0.45593999997E+02  0.45594000000E+02  0.51100000000E-03 0.  1.
         11   -1    0    0    0    0 -0.00000000000E+00 -0.00000000000E+00 -0.45593999997E+02  0.45594000000E+02  0.51100000000E-03 0. -1.
    9900012    2    1    2    0    0  0.22249812843E+02  0.23756883341E+02  0.28708535682E+02  0.47787266151E+02  0.19999977687E+02 0.  0.
         12    1    1    2    0    0 -0.22249812843E+02 -0.23756883341E+02 -0.28708535682E+02  0.43400733849E+02  0.00000000000E+00 0. -1.
         11    1    3    3    0    0  0.41233421839E+01 -0.12125065675E+01  0.81621003716E+00  0.43747367953E+01  0.51100000000E-03 0. -1.
        -11    1    3    3    0    0  0.30611138403E+01  0.10838579821E+00 -0.88803130744E-01  0.30643191220E+01  0.51100000000E-03 0.  1.
        -12    1    3    3    0    0  0.15065356819E+02  0.24861004110E+02  0.27981128776E+02  0.40348210233E+02  0.00000000000E+00 0.  1.
</event>
<event>
 7    1  0.2682317E-010  0.4778727E+02  0.7816164E-02  0.1312668E+00
        -11   -1    0    0    0    0  0.00000000000E+00  0.00000000000E+00  0.45593999997E+02  0.45594000000E+02  0.51100000000E-03 0.  1.
         11   -1    0    0    0    0 -0.00000000000E+00 -0.00000000000E+00 -0.45593999997E+02  0.45594000000E+02  0.51100000000E-03 0. -1.
    9900012    2    1    2    0    0  0.21672971213E+02 -0.21680453432E+02  0.30722362611E+02  0.47787270667E+02  0.19999998279E+02 0.  0.
         12    1    1    2    0    0 -0.21672971213E+02  0.21680453432E+02 -0.30722362611E+02  0.43400729333E+02  0.00000000000E+00 0. -1.
         11    1    3    3    0    0 -0.33358753247E-02  0.13784779371E+01 -0.24777168604E+00  0.14005726046E+01  0.51100000000E-03 0. -1.
        -11    1    3    3    0    0  0.20472767609E+01 -0.10586339165E+02  0.63240858959E+01  0.12500239267E+02  0.51100000000E-03 0.  1.
        -12    1    3    3    0    0  0.19629030328E+02 -0.12472592205E+02  0.24646048401E+02  0.33886458796E+02  0.00000000000E+00 0.  1.
</event>
<event>
 7    1  0.2682317E-010  0.4778727E+02  0.7816164E-02  0.1312668E+00
        -11   -1    0    0    0    0  0.00000000000E+00  0.00000000000E+00  0.45593999997E+02  0.45594000000E+02  0.51100000000E-03 0.  1.
         11   -1    0    0    0    0 -0.00000000000E+00 -0.00000000000E+00 -0.45593999997E+02  0.45594000000E+02  0.51100000000E-03 0. -1.
    9900012    2    1    2    0    0  0.28201421979E+02 -0.21514804214E+02  0.25008320590E+02  0.47787273040E+02  0.20000009097E+02 0.  0.
         12    1    1    2    0    0 -0.28201421979E+02  0.21514804214E+02 -0.25008320590E+02  0.43400726960E+02  0.00000000000E+00 0. -1.
         11    1    3    3    0    0  0.13255952355E+02 -0.70275436269E+01  0.59820856191E+01  0.16152151277E+02  0.51100000000E-03 0. -1.
        -11    1    3    3    0    0  0.12788802615E+02 -0.52312670435E+01  0.17018521110E+02  0.21921443571E+02  0.51100000000E-03 0.  1.
        -12    1    3    3    0    0  0.21566670089E+01 -0.92559935432E+01  0.20077138603E+01  0.97136781913E+01  0.00000000000E+00 0.  1.
</event>
<event>
 7    1  0.2682317E-010  0.4778727E+02  0.7816164E-02  0.1312668E+00
        -11   -1    0    0    0    0  0.00000000000E+00  0.00000000000E+00  0.45593999997E+02  0.45594000000E+02  0.51100000000E-03 0.  1.
         11   -1    0    0    0    0 -0.00000000000E+00 -0.00000000000E+00 -0.45593999997E+02  0.45594000000E+02  0.51100000000E-03 0. -1.
    9900012    2    1    2    0    0  0.19225724345E+02 -0.18624703859E+02  0.34163070765E+02  0.47787268734E+02  0.19999989464E+02 0.  0.
         12    1    1    2    0    0 -0.19225724345E+02  0.18624703859E+02 -0.34163070765E+02  0.43400731266E+02  0.00000000000E+00 0. -1.
         11    1    3    3    0    0  0.63236070052E+01 -0.85785705402E+01  0.25674926299E+01  0.10962294319E+02  0.51100000000E-03 0. -1.
        -11    1    3    3    0    0  0.52259046411E+01 -0.96703668935E+01  0.15657551896E+02  0.19130734613E+02  0.51100000000E-03 0.  1.
        -12    1    3    3    0    0  0.76762126982E+01 -0.37576642477E+00  0.15938026238E+02  0.17694239802E+02  0.00000000000E+00 0.  1.
</event>
<event>
 7    1  0.2682317E-010  0.4778727E+02  0.7816164E-02  0.1312668E+00
        -11   -1    0    0    0    0  0.00000000000E+00  0.00000000000E+00  0.45593999997E+02  0.45594000000E+02  0.51100000000E-03 0. -1.
         11   -1    0    0    0    0 -0.00000000000E+00 -0.00000000000E+00 -0.45593999997E+02  0.45594000000E+02  0.51100000000E-03 0.  1.
    9900012    2    1    2    0    0  0.25313364164E+02 -0.29867877095E+02 -0.18728780271E+02  0.47787266160E+02  0.19999977729E+02 0.  0.
         12    1    1    2    0    0 -0.25313364164E+02  0.29867877095E+02  0.18728780271E+02  0.43400733840E+02  0.00000000000E+00 0. -1.
         11    1    3    3    0    0  0.50025368366E+01 -0.27687248061E+00 -0.26855378118E+01  0.56845533485E+01  0.51100000000E-03 0. -1.
        -11    1    3    3    0    0  0.36784361083E+01  0.10538048387E+01 -0.30489691727E+01  0.48926077013E+01  0.51100000000E-03 0.  1.
         12    1    3    3    0    0  0.16632391219E+02 -0.30644809453E+02 -0.12994273286E+02  0.37210105110E+02  0.00000000000E+00 0. -1.
</event>
<event>
 7    1  0.2682317E-010  0.4778726E+02  0.7816164E-02  0.1312668E+00
        -11   -1    0    0    0    0  0.00000000000E+00  0.00000000000E+00  0.45593999997E+02  0.45594000000E+02  0.51100000000E-03 0.  1.
         11   -1    0    0    0    0 -0.00000000000E+00 -0.00000000000E+00 -0.45593999997E+02  0.45594000000E+02  0.51100000000E-03 0. -1.
    9900012    2    1    2    0    0 -0.33931595620E+01  0.16323773371E+02  0.40070496709E+02  0.47787264806E+02  0.19999971555E+02 0.  0.
         12    1    1    2    0    0  0.33931595620E+01 -0.16323773371E+02 -0.40070496709E+02  0.43400735194E+02  0.00000000000E+00 0. -1.
         11    1    3    3    0    0  0.10264271423E+01  0.47164434924E+01  0.49615742069E+01  0.69221102828E+01  0.51100000000E-03 0. -1.
        -11    1    3    3    0    0 -0.40091905038E+00  0.13735562689E+02  0.33203539279E+02  0.35934682960E+02  0.51100000000E-03 0.  1.
         12    1    3    3    0    0 -0.40186676539E+01 -0.21282328105E+01  0.19053832229E+01  0.49304715631E+01  0.00000000000E+00 0. -1.
</event>
<event>
 7    1  0.2682317E-010  0.4778727E+02  0.7816164E-02  0.1312668E+00
        -11   -1    0    0    0    0  0.00000000000E+00  0.00000000000E+00  0.45593999997E+02  0.45594000000E+02  0.51100000000E-03 0.  1.
         11   -1    0    0    0    0 -0.00000000000E+00 -0.00000000000E+00 -0.45593999997E+02  0.45594000000E+02  0.51100000000E-03 0. -1.
    9900012    2    1    2    0    0 -0.28318438229E+02 -0.32795155909E+02  0.24833644701E+01  0.47787270814E+02  0.19999998947E+02 0.  0.
         12    1    1    2    0    0  0.28318438229E+02  0.32795155909E+02 -0.24833644701E+01  0.43400729186E+02  0.00000000000E+00 0. -1.
         11    1    3    3    0    0 -0.59206035744E+00  0.91994641882E-01 -0.30024958806E+01  0.30616956503E+01  0.51100000000E-03 0. -1.
        -11    1    3    3    0    0 -0.40148014574E+01 -0.12406907575E+02  0.21563089534E+01  0.13217399702E+02  0.51100000000E-03 0.  1.
        -12    1    3    3    0    0 -0.23711576414E+02 -0.20480242976E+02  0.33295513973E+01  0.31508175462E+02  0.00000000000E+00 0.  1.
</event>
<event>
 7    1  0.2682317E-010  0.4778724E+02  0.7816164E-02  0.1312668E+00
        -11   -1    0    0    0    0  0.00000000000E+00  0.00000000000E+00  0.45593999997E+02  0.45594000000E+02  0.51100000000E-03 0.  1.
         11   -1    0    0    0    0 -0.00000000000E+00 -0.00000000000E+00 -0.45593999997E+02  0.45594000000E+02  0.51100000000E-03 0. -1.
    9900012    2    1    2    0    0 -0.29609707183E+02  0.10413462903E+02  0.29974165934E+02  0.47787244332E+02  0.19999878208E+02 0.  0.
         12    1    1    2    0    0  0.29609707183E+02 -0.10413462903E+02 -0.29974165934E+02  0.43400755668E+02  0.00000000000E+00 0. -1.
         11    1    3    3    0    0 -0.19312243891E+02  0.13905999898E+02  0.17673956549E+02  0.29643014989E+02  0.51100000000E-03 0. -1.
        -11    1    3    3    0    0 -0.78611556199E+01  0.61608202618E+00  0.10285009470E+02  0.12959889845E+02  0.51100000000E-03 0.  1.
         12    1    3    3    0    0 -0.24363076723E+01 -0.41086190212E+01  0.20151999149E+01  0.51843394982E+01  0.00000000000E+00 0. -1.
</event>
<event>
 7    1  0.2682317E-010  0.4778727E+02  0.7816164E-02  0.1312668E+00
        -11   -1    0    0    0    0  0.00000000000E+00  0.00000000000E+00  0.45593999997E+02  0.45594000000E+02  0.51100000000E-03 0.  1.
         11   -1    0    0    0    0 -0.00000000000E+00 -0.00000000000E+00 -0.45593999997E+02  0.45594000000E+02  0.51100000000E-03 0. -1.
    9900012    2    1    2    0    0  0.31143213827E+01 -0.41309902396E+02 -0.12938934871E+02  0.47787273402E+02  0.20000010747E+02 0.  0.
         12    1    1    2    0    0 -0.31143213827E+01  0.41309902396E+02  0.12938934871E+02  0.43400726598E+02  0.00000000000E+00 0. -1.
         11    1    3    3    0    0 -0.10660689258E+01 -0.15633499068E+02 -0.92581118763E+01  0.18200423946E+02  0.51100000000E-03 0.  1.
        -11    1    3    3    0    0 -0.33594987704E+01 -0.14997848699E+01  0.10450412969E+01  0.38246173950E+01  0.51100000000E-03 0. -1.
         12    1    3    3    0    0  0.75398890789E+01 -0.24176618459E+02 -0.47258642914E+01  0.25762232060E+02  0.00000000000E+00 0. -1.
</event>
<event>
 7    1  0.2682317E-010  0.4778728E+02  0.7816164E-02  0.1312668E+00
        -11   -1    0    0    0    0  0.00000000000E+00  0.00000000000E+00  0.45593999997E+02  0.45594000000E+02  0.51100000000E-03 0. -1.
         11   -1    0    0    0    0 -0.00000000000E+00 -0.00000000000E+00 -0.45593999997E+02  0.45594000000E+02  0.51100000000E-03 0.  1.
    9900012    2    1    2    0    0 -0.17170205809E+02  0.31667207601E+02 -0.24207320168E+02  0.47787281637E+02  0.20000048294E+02 0.  0.
         12    1    1    2    0    0  0.17170205809E+02 -0.31667207601E+02  0.24207320168E+02  0.43400718363E+02  0.00000000000E+00 0. -1.
         11    1    3    3    0    0 -0.99353259208E+01  0.53479033024E+01 -0.82131316155E+01  0.13955869807E+02  0.51100000000E-03 0. -1.
        -11    1    3    3    0    0 -0.61443202653E+01  0.12792478383E+02 -0.19896482521E+01  0.14330348047E+02  0.51100000000E-03 0.  1.
        -12    1    3    3    0    0 -0.10905596227E+01  0.13526825915E+02 -0.14004540300E+02  0.19501063783E+02  0.00000000000E+00 0.  1.
</event>
<event>
 7    1  0.2682317E-010  0.4778726E+02  0.7816164E-02  0.1312668E+00
        -11   -1    0    0    0    0  0.00000000000E+00  0.00000000000E+00  0.45593999997E+02  0.45594000000E+02  0.51100000000E-03 0.  1.
         11   -1    0    0    0    0 -0.00000000000E+00 -0.00000000000E+00 -0.45593999997E+02  0.45594000000E+02  0.51100000000E-03 0. -1.
    9900012    2    1    2    0    0 -0.16466094487E+02 -0.39163896333E+02  0.88702291903E+01  0.47787262569E+02  0.19999961357E+02 0.  0.
         12    1    1    2    0    0  0.16466094487E+02  0.39163896333E+02 -0.88702291903E+01  0.43400737431E+02  0.00000000000E+00 0. -1.
         11    1    3    3    0    0  0.98428023108E+00 -0.80215957483E+01  0.69666868704E+01  0.10670029622E+02  0.51100000000E-03 0. -1.
        -11    1    3    3    0    0 -0.14584216486E+01 -0.12089846869E+02  0.11451153492E+01  0.12231217456E+02  0.51100000000E-03 0.  1.
        -12    1    3    3    0    0 -0.15991953069E+02 -0.19052453716E+02  0.75842697062E+00  0.24886015491E+02  0.00000000000E+00 0.  1.
</event>
<event>
 7    1  0.2682317E-010  0.4778727E+02  0.7816164E-02  0.1312668E+00
        -11   -1    0    0    0    0  0.00000000000E+00  0.00000000000E+00  0.45593999997E+02  0.45594000000E+02  0.51100000000E-03 0. -1.
         11   -1    0    0    0    0 -0.00000000000E+00 -0.00000000000E+00 -0.45593999997E+02  0.45594000000E+02  0.51100000000E-03 0.  1.
    9900012    2    1    2    0    0 -0.42343557383E+02  0.77130185915E+01  0.55817481984E+01  0.47787269354E+02  0.19999992291E+02 0.  0.
         12    1    1    2    0    0  0.42343557383E+02 -0.77130185915E+01 -0.55817481984E+01  0.43400730646E+02  0.00000000000E+00 0. -1.
         11    1    3    3    0    0 -0.88654967095E+01  0.27784526592E+01  0.70119682645E+00  0.93171083678E+01  0.51100000000E-03 0.  1.
        -11    1    3    3    0    0  0.83700605108E+00 -0.25228464377E+01  0.18190480508E+01  0.32209112608E+01  0.51100000000E-03 0. -1.
         12    1    3    3    0    0 -0.34315066725E+02  0.74574123700E+01  0.30615033211E+01  0.35249249725E+02  0.00000000000E+00 0. -1.
</event>
<event>
 7    1  0.2682317E-010  0.4778727E+02  0.7816164E-02  0.1312668E+00
        -11   -1    0    0    0    0  0.00000000000E+00  0.00000000000E+00  0.45593999997E+02  0.45594000000E+02  0.51100000000E-03 0.  1.
         11   -1    0    0    0    0 -0.00000000000E+00 -0.00000000000E+00 -0.45593999997E+02  0.45594000000E+02  0.51100000000E-03 0. -1.
    9900012    2    1    2    0    0 -0.11687301975E+02  0.36109792097E+02  0.21050264326E+02  0.47787265663E+02  0.19999975466E+02 0.  0.
         12    1    1    2    0    0  0.11687301975E+02 -0.36109792097E+02 -0.21050264326E+02  0.43400734337E+02  0.00000000000E+00 0. -1.
         11    1    3    3    0    0 -0.99703042275E+01  0.20964746996E+02  0.14484974272E+02  0.27363151553E+02  0.51100000000E-03 0. -1.
        -11    1    3    3    0    0  0.12623306552E+01  0.15047739414E+02  0.80298825056E+01  0.17102834662E+02  0.51100000000E-03 0.  1.
         12    1    3    3    0    0 -0.29793284030E+01  0.97305687299E-01 -0.14645924513E+01  0.33212794489E+01  0.00000000000E+00 0. -1.
</event>
<event>
 7    1  0.2682317E-010  0.4778727E+02  0.7816164E-02  0.1312668E+00
        -11   -1    0    0    0    0  0.00000000000E+00  0.00000000000E+00  0.45593999997E+02  0.45594000000E+02  0.51100000000E-03 0. -1.
         11   -1    0    0    0    0 -0.00000000000E+00 -0.00000000000E+00 -0.45593999997E+02  0.45594000000E+02  0.51100000000E-03 0.  1.
    9900012    2    1    2    0    0  0.14814456263E+02  0.25328551715E+02 -0.31978420881E+02  0.47787273642E+02  0.20000011843E+02 0.  0.
         12    1    1    2    0    0 -0.14814456263E+02 -0.25328551715E+02  0.31978420881E+02  0.43400726358E+02  0.00000000000E+00 0. -1.
         11    1    3    3    0    0  0.11402974698E+02  0.12791472697E+02 -0.20100611209E+02  0.26413711912E+02  0.51100000000E-03 0.  1.
        -11    1    3    3    0    0  0.72773730524E+01  0.11749564477E+02 -0.90689182178E+01  0.16530508215E+02  0.51100000000E-03 0. -1.
         12    1    3    3    0    0 -0.38658914879E+01  0.78751454162E+00 -0.28088914549E+01  0.48430535156E+01  0.00000000000E+00 0. -1.
</event>
<event>
 7    1  0.2682317E-010  0.4778727E+02  0.7816164E-02  0.1312668E+00
        -11   -1    0    0    0    0  0.00000000000E+00  0.00000000000E+00  0.45593999997E+02  0.45594000000E+02  0.51100000000E-03 0. -1.
         11   -1    0    0    0    0 -0.00000000000E+00 -0.00000000000E+00 -0.45593999997E+02  0.45594000000E+02  0.51100000000E-03 0.  1.
    9900012    2    1    2    0    0  0.24104029384E+02 -0.36026022778E+02 -0.21782851868E+01  0.47787268714E+02  0.19999989377E+02 0.  0.
         12    1    1    2    0    0 -0.24104029384E+02  0.36026022778E+02  0.21782851868E+01  0.43400731286E+02  0.00000000000E+00 0. -1.
         11    1    3    3    0    0  0.84613686791E+01 -0.38485527922E+01  0.10091744103E+01  0.93501097196E+01  0.51100000000E-03 0. -1.
        -11    1    3    3    0    0  0.13680387078E+02 -0.12989782800E+02 -0.32866540297E+01  0.19149139478E+02  0.51100000000E-03 0.  1.
        -12    1    3    3    0    0  0.19622736273E+01 -0.19187687186E+02  0.99194432651E-01  0.19288019517E+02  0.00000000000E+00 0.  1.
</event>
<event>
 7    1  0.2682317E-010  0.4778727E+02  0.7816164E-02  0.1312668E+00
        -11   -1    0    0    0    0  0.00000000000E+00  0.00000000000E+00  0.45593999997E+02  0.45594000000E+02  0.51100000000E-03 0.  1.
         11   -1    0    0    0    0 -0.00000000000E+00 -0.00000000000E+00 -0.45593999997E+02  0.45594000000E+02  0.51100000000E-03 0. -1.
    9900012    2    1    2    0    0  0.29931871161E+02  0.28941391533E+02  0.12251618040E+02  0.47787271899E+02  0.20000003897E+02 0.  0.
         12    1    1    2    0    0 -0.29931871161E+02 -0.28941391533E+02 -0.12251618040E+02  0.43400728101E+02  0.00000000000E+00 0. -1.
         11    1    3    3    0    0  0.59814373240E+01  0.26320758435E+00 -0.12271994873E+01  0.61117010346E+01  0.51100000000E-03 0. -1.
        -11    1    3    3    0    0  0.73011743105E+01  0.50211356284E+01 -0.16755669817E+01  0.90181192209E+01  0.51100000000E-03 0.  1.
        -12    1    3    3    0    0  0.16649259527E+02  0.23657048320E+02  0.15154384509E+02  0.32657451644E+02  0.00000000000E+00 0.  1.
</event>
<event>
 7    1  0.2682317E-010  0.4778727E+02  0.7816164E-02  0.1312668E+00
        -11   -1    0    0    0    0  0.00000000000E+00  0.00000000000E+00  0.45593999997E+02  0.45594000000E+02  0.51100000000E-03 0.  1.
         11   -1    0    0    0    0 -0.00000000000E+00 -0.00000000000E+00 -0.45593999997E+02  0.45594000000E+02  0.51100000000E-03 0. -1.
    9900012    2    1    2    0    0 -0.80086129093E+01 -0.37965301274E+02  0.19445336293E+02  0.47787273219E+02  0.20000009917E+02 0.  0.
         12    1    1    2    0    0  0.80086129093E+01  0.37965301274E+02 -0.19445336293E+02  0.43400726781E+02  0.00000000000E+00 0. -1.
         11    1    3    3    0    0  0.25647133557E+01 -0.81296327121E+01  0.62351235943E+01  0.10561507900E+02  0.51100000000E-03 0. -1.
        -11    1    3    3    0    0 -0.85837333674E+01 -0.24995788947E+02  0.16394079453E+02  0.31100414547E+02  0.51100000000E-03 0.  1.
         12    1    3    3    0    0 -0.19895928975E+01 -0.48398796139E+01 -0.31838667538E+01  0.61253507721E+01  0.00000000000E+00 0. -1.
</event>
<event>
 7    1  0.2682317E-010  0.4778727E+02  0.7816164E-02  0.1312668E+00
        -11   -1    0    0    0    0  0.00000000000E+00  0.00000000000E+00  0.45593999997E+02  0.45594000000E+02  0.51100000000E-03 0.  1.
         11   -1    0    0    0    0 -0.00000000000E+00 -0.00000000000E+00 -0.45593999997E+02  0.45594000000E+02  0.51100000000E-03 0. -1.
    9900012    2    1    2    0    0  0.70210526116E+01 -0.88346902948E+01  0.41907952768E+02  0.47787269159E+02  0.19999991402E+02 0.  0.
         12    1    1    2    0    0 -0.70210526116E+01  0.88346902948E+01 -0.41907952768E+02  0.43400730841E+02  0.00000000000E+00 0. -1.
         11    1    3    3    0    0 -0.43967105602E+00  0.16418689001E+01  0.33417185877E+01  0.37491502375E+01  0.51100000000E-03 0. -1.
        -11    1    3    3    0    0  0.50111508922E+01 -0.15133779126E+02  0.27558940176E+02  0.31837683456E+02  0.51100000000E-03 0.  1.
        -12    1    3    3    0    0  0.24495727754E+01  0.46572199314E+01  0.11007294004E+02  0.12200435466E+02  0.00000000000E+00 0.  1.
</event>
<event>
 7    1  0.2682317E-010  0.4778727E+02  0.7816164E-02  0.1312668E+00
        -11   -1    0    0    0    0  0.00000000000E+00  0.00000000000E+00  0.45593999997E+02  0.45594000000E+02  0.51100000000E-03 0.  1.
         11   -1    0    0    0    0 -0.00000000000E+00 -0.00000000000E+00 -0.45593999997E+02  0.45594000000E+02  0.51100000000E-03 0. -1.
    9900012    2    1    2    0    0 -0.30256542805E+02  0.26693731203E+02  0.15987797553E+02  0.47787270298E+02  0.19999996596E+02 0.  0.
         12    1    1    2    0    0  0.30256542805E+02 -0.26693731203E+02 -0.15987797553E+02  0.43400729702E+02  0.00000000000E+00 0. -1.
         11    1    3    3    0    0 -0.52206519739E+01  0.44965816038E+01 -0.18546284297E+01  0.71354116928E+01  0.51100000000E-03 0. -1.
        -11    1    3    3    0    0 -0.14947923017E+02  0.16697664439E+02  0.41749125054E+01  0.22796541293E+02  0.51100000000E-03 0.  1.
        -12    1    3    3    0    0 -0.10087967815E+02  0.54994851604E+01  0.13667513477E+02  0.17855317312E+02  0.00000000000E+00 0.  1.
</event>
<event>
 7    1  0.2682317E-010  0.4778727E+02  0.7816164E-02  0.1312668E+00
        -11   -1    0    0    0    0  0.00000000000E+00  0.00000000000E+00  0.45593999997E+02  0.45594000000E+02  0.51100000000E-03 0.  1.
         11   -1    0    0    0    0 -0.00000000000E+00 -0.00000000000E+00 -0.45593999997E+02  0.45594000000E+02  0.51100000000E-03 0. -1.
    9900012    2    1    2    0    0  0.19328378033E+02 -0.19655227991E+02  0.33521771606E+02  0.47787270094E+02  0.19999995668E+02 0.  0.
         12    1    1    2    0    0 -0.19328378033E+02  0.19655227991E+02 -0.33521771606E+02  0.43400729906E+02  0.00000000000E+00 0. -1.
         11    1    3    3    0    0 -0.70645955348E-01 -0.10760755932E+02  0.11495625655E+02  0.15746373186E+02  0.51100000000E-03 0. -1.
        -11    1    3    3    0    0  0.44072045225E+00 -0.26971339240E+01  0.54878291241E+01  0.61306634778E+01  0.51100000000E-03 0.  1.
        -12    1    3    3    0    0  0.18958303536E+02 -0.61973381350E+01  0.16538316827E+02  0.25910233430E+02  0.00000000000E+00 0.  1.
</event>
<event>
 7    1  0.2682317E-010  0.4778726E+02  0.7816164E-02  0.1312668E+00
        -11   -1    0    0    0    0  0.00000000000E+00  0.00000000000E+00  0.45593999997E+02  0.45594000000E+02  0.51100000000E-03 0.  1.
         11   -1    0    0    0    0 -0.00000000000E+00 -0.00000000000E+00 -0.45593999997E+02  0.45594000000E+02  0.51100000000E-03 0. -1.
    9900012    2    1    2    0    0  0.24713175548E+02  0.13566021502E+02  0.32997672249E+02  0.47787258545E+02  0.19999943008E+02 0.  0.
         12    1    1    2    0    0 -0.24713175548E+02 -0.13566021502E+02 -0.32997672249E+02  0.43400741455E+02  0.00000000000E+00 0. -1.
         11    1    3    3    0    0  0.39600287219E+01 -0.21570901316E+01  0.28227312165E+01  0.53200260428E+01  0.51100000000E-03 0. -1.
        -11    1    3    3    0    0  0.13228108811E+02  0.17031700441E+02  0.17978117444E+02  0.28076224635E+02  0.51100000000E-03 0.  1.
        -12    1    3    3    0    0  0.75250380147E+01 -0.13085888078E+01  0.12196823588E+02  0.14391007867E+02  0.00000000000E+00 0.  1.
</event>
<event>
 7    1  0.2682317E-010  0.4778726E+02  0.7816164E-02  0.1312668E+00
        -11   -1    0    0    0    0  0.00000000000E+00  0.00000000000E+00  0.45593999997E+02  0.45594000000E+02  0.51100000000E-03 0.  1.
         11   -1    0    0    0    0 -0.00000000000E+00 -0.00000000000E+00 -0.45593999997E+02  0.45594000000E+02  0.51100000000E-03 0. -1.
    9900012    2    1    2    0    0 -0.37891055638E+02 -0.20015745249E+02 -0.68747115578E+01  0.47787264819E+02  0.19999971617E+02 0.  0.
         12    1    1    2    0    0  0.37891055638E+02  0.20015745249E+02  0.68747115578E+01  0.43400735181E+02  0.00000000000E+00 0. -1.
         11    1    3    3    0    0 -0.44625464725E+01 -0.45311551662E+01 -0.40561901252E+01  0.75431006060E+01  0.51100000000E-03 0. -1.
        -11    1    3    3    0    0  0.35202565814E+00  0.12707028327E+01 -0.21601720990E+01  0.25308005673E+01  0.51100000000E-03 0.  1.
        -12    1    3    3    0    0 -0.33780534823E+02 -0.16755292916E+02 -0.65834933355E+00  0.37713363646E+02  0.00000000000E+00 0.  1.
</event>
<event>
 7    1  0.2682317E-010  0.4778727E+02  0.7816164E-02  0.1312668E+00
        -11   -1    0    0    0    0  0.00000000000E+00  0.00000000000E+00  0.45593999997E+02  0.45594000000E+02  0.51100000000E-03 0.  1.
         11   -1    0    0    0    0 -0.00000000000E+00 -0.00000000000E+00 -0.45593999997E+02  0.45594000000E+02  0.51100000000E-03 0. -1.
    9900012    2    1    2    0    0 -0.13556882101E+02 -0.23317735064E+02  0.34001726423E+02  0.47787271659E+02  0.20000002800E+02 0.  0.
         12    1    1    2    0    0  0.13556882101E+02  0.23317735064E+02 -0.34001726423E+02  0.43400728341E+02  0.00000000000E+00 0. -1.
         11    1    3    3    0    0 -0.15247971225E+01 -0.11141034915E+02  0.11880414620E+02  0.16358236979E+02  0.51100000000E-03 0. -1.
        -11    1    3    3    0    0 -0.11909466732E+02 -0.13508115481E+02  0.13000527743E+02  0.22210769991E+02  0.51100000000E-03 0.  1.
         12    1    3    3    0    0 -0.12261824609E+00  0.13314153324E+01  0.91207840596E+01  0.92182646894E+01  0.00000000000E+00 0. -1.
</event>
<event>
 7    1  0.2682317E-010  0.4778725E+02  0.7816164E-02  0.1312668E+00
        -11   -1    0    0    0    0  0.00000000000E+00  0.00000000000E+00  0.45593999997E+02  0.45594000000E+02  0.51100000000E-03 0.  1.
         11   -1    0    0    0    0 -0.00000000000E+00 -0.00000000000E+00 -0.45593999997E+02  0.45594000000E+02  0.51100000000E-03 0. -1.
    9900012    2    1    2    0    0  0.12997764937E+02  0.31560569594E+02  0.26806976737E+02  0.47787245995E+02  0.19999885790E+02 0.  0.
         12    1    1    2    0    0 -0.12997764937E+02 -0.31560569594E+02 -0.26806976737E+02  0.43400754005E+02  0.00000000000E+00 0. -1.
         11    1    3    3    0    0 -0.90920060904E+00  0.57584366333E+01  0.34645551370E-01  0.58298746798E+01  0.51100000000E-03 0. -1.
        -11    1    3    3    0    0  0.24337864243E+01  0.17436193076E+02  0.11115176255E+02  0.20820453616E+02  0.51100000000E-03 0.  1.
         12    1    3    3    0    0  0.11473179121E+02  0.83659398844E+01  0.15657154931E+02  0.21136917699E+02  0.00000000000E+00 0. -1.
</event>
<event>
 7    1  0.2682317E-010  0.4778728E+02  0.7816164E-02  0.1312668E+00
        -11   -1    0    0    0    0  0.00000000000E+00  0.00000000000E+00  0.45593999997E+02  0.45594000000E+02  0.51100000000E-03 0. -1.
         11   -1    0    0    0    0 -0.00000000000E+00 -0.00000000000E+00 -0.45593999997E+02  0.45594000000E+02  0.51100000000E-03 0.  1.
    9900012    2    1    2    0    0 -0.16905933902E+02  0.36853905736E+02 -0.15479058684E+02  0.47787283107E+02  0.20000054998E+02 0.  0.
         12    1    1    2    0    0  0.16905933902E+02 -0.36853905736E+02  0.15479058684E+02  0.43400716893E+02  0.00000000000E+00 0. -1.
         11    1    3    3    0    0 -0.86700077194E+01  0.24628612835E+02 -0.17626079162E+02  0.31502639110E+02  0.51100000000E-03 0. -1.
        -11    1    3    3    0    0 -0.83689825794E+00  0.60961930046E+00 -0.16954485562E+01  0.19866002249E+01  0.51100000000E-03 0.  1.
         12    1    3    3    0    0 -0.73990279247E+01  0.11615673601E+02  0.38424690339E+01  0.14298043772E+02  0.00000000000E+00 0. -1.
</event>
<event>
 7    1  0.2682317E-010  0.4778728E+02  0.7816164E-02  0.1312668E+00
        -11   -1    0    0    0    0  0.00000000000E+00  0.00000000000E+00  0.45593999997E+02  0.45594000000E+02  0.51100000000E-03 0.  1.
         11   -1    0    0    0    0 -0.00000000000E+00 -0.00000000000E+00 -0.45593999997E+02  0.45594000000E+02  0.51100000000E-03 0. -1.
    9900012    2    1    2    0    0  0.10465018246E+02  0.33867753636E+02  0.25041596148E+02  0.47787275573E+02  0.20000020646E+02 0.  0.
         12    1    1    2    0    0 -0.10465018246E+02 -0.33867753636E+02 -0.25041596148E+02  0.43400724427E+02  0.00000000000E+00 0. -1.
         11    1    3    3    0    0  0.10874044579E+02  0.19184710810E+02  0.72702684248E+01  0.23219706665E+02  0.51100000000E-03 0. -1.
        -11    1    3    3    0    0  0.36460409606E+01  0.89833328817E+01  0.81103002537E+01  0.12640049637E+02  0.51100000000E-03 0.  1.
        -12    1    3    3    0    0 -0.40550672942E+01  0.56997099443E+01  0.96610274692E+01  0.11927519271E+02  0.00000000000E+00 0.  1.
</event>
<event>
 7    1  0.2682317E-010  0.4778726E+02  0.7816164E-02  0.1312668E+00
        -11   -1    0    0    0    0  0.00000000000E+00  0.00000000000E+00  0.45593999997E+02  0.45594000000E+02  0.51100000000E-03 0.  1.
         11   -1    0    0    0    0 -0.00000000000E+00 -0.00000000000E+00 -0.45593999997E+02  0.45594000000E+02  0.51100000000E-03 0. -1.
    9900012    2    1    2    0    0 -0.41934299641E+02  0.11186413546E+02  0.54724608977E-01  0.47787258887E+02  0.19999944569E+02 0.  0.
         12    1    1    2    0    0  0.41934299641E+02 -0.11186413546E+02 -0.54724608977E-01  0.43400741113E+02  0.00000000000E+00 0. -1.
         11    1    3    3    0    0 -0.79789187426E-01  0.38147055866E+01 -0.29074957172E+01  0.47970695882E+01  0.51100000000E-03 0. -1.
        -11    1    3    3    0    0 -0.11114989249E+02 -0.52159206897E+00  0.14006480562E+01  0.11215028289E+02  0.51100000000E-03 0.  1.
        -12    1    3    3    0    0 -0.30739521204E+02  0.78933000282E+01  0.15615722699E+01  0.31775161009E+02  0.00000000000E+00 0.  1.
</event>
<event>
 7    1  0.2682317E-010  0.4778727E+02  0.7816164E-02  0.1312668E+00
        -11   -1    0    0    0    0  0.00000000000E+00  0.00000000000E+00  0.45593999997E+02  0.45594000000E+02  0.51100000000E-03 0.  1.
         11   -1    0    0    0    0 -0.00000000000E+00 -0.00000000000E+00 -0.45593999997E+02  0.45594000000E+02  0.51100000000E-03 0. -1.
    9900012    2    1    2    0    0  0.37032879919E+02 -0.18984580507E+01  0.22551829942E+02  0.47787269917E+02  0.19999994858E+02 0.  0.
         12    1    1    2    0    0 -0.37032879919E+02  0.18984580507E+01 -0.22551829942E+02  0.43400730083E+02  0.00000000000E+00 0. -1.
         11    1    3    3    0    0  0.16573271461E+02  0.14797412076E+01  0.79879870754E+01  0.18457272245E+02  0.51100000000E-03 0.  1.
        -11    1    3    3    0    0  0.17937699017E+02  0.33258814874E+01  0.11292277570E+02  0.21455490362E+02  0.51100000000E-03 0. -1.
         12    1    3    3    0    0  0.25219094402E+01 -0.67040807457E+01  0.32715652968E+01  0.78745073091E+01  0.00000000000E+00 0. -1.
</event>
<event>
 7    1  0.2682317E-010  0.4778727E+02  0.7816164E-02  0.1312668E+00
        -11   -1    0    0    0    0  0.00000000000E+00  0.00000000000E+00  0.45593999997E+02  0.45594000000E+02  0.51100000000E-03 0.  1.
         11   -1    0    0    0    0 -0.00000000000E+00 -0.00000000000E+00 -0.45593999997E+02  0.45594000000E+02  0.51100000000E-03 0. -1.
    9900012    2    1    2    0    0 -0.22610551545E+02 -0.33800546474E+02  0.15162753328E+02  0.47787273375E+02  0.20000010624E+02 0.  0.
         12    1    1    2    0    0  0.22610551545E+02  0.33800546474E+02 -0.15162753328E+02  0.43400726625E+02  0.00000000000E+00 0. -1.
         11    1    3    3    0    0  0.55178250679E+00 -0.10321948995E+01  0.44076515949E+01  0.45604038295E+01  0.51100000000E-03 0. -1.
        -11    1    3    3    0    0 -0.10872755846E+02 -0.79469540458E+01  0.72896134023E+01  0.15313698512E+02  0.51100000000E-03 0.  1.
        -12    1    3    3    0    0 -0.12289578206E+02 -0.24821397529E+02  0.34654883305E+01  0.27913171033E+02  0.00000000000E+00 0.  1.
</event>
<event>
 7    1  0.2682317E-010  0.4778727E+02  0.7816164E-02  0.1312668E+00
        -11   -1    0    0    0    0  0.00000000000E+00  0.00000000000E+00  0.45593999997E+02  0.45594000000E+02  0.51100000000E-03 0.  1.
         11   -1    0    0    0    0 -0.00000000000E+00 -0.00000000000E+00 -0.45593999997E+02  0.45594000000E+02  0.51100000000E-03 0. -1.
    9900012    2    1    2    0    0 -0.53937993384E+01 -0.32718372630E+02  0.28000683471E+02  0.47787271277E+02  0.20000001059E+02 0.  0.
         12    1    1    2    0    0  0.53937993384E+01  0.32718372630E+02 -0.28000683471E+02  0.43400728723E+02  0.00000000000E+00 0. -1.
         11    1    3    3    0    0 -0.18333801389E+01  0.99843169976E+00  0.40529587110E+01  0.45590155919E+01  0.51100000000E-03 0. -1.
        -11    1    3    3    0    0 -0.21163315977E+01 -0.11601276967E+01  0.49485102415E+01  0.55056797559E+01  0.51100000000E-03 0.  1.
         12    1    3    3    0    0 -0.14440876019E+01 -0.32556676633E+02  0.18999214519E+02  0.37722575929E+02  0.00000000000E+00 0. -1.
</event>
<event>
 7    1  0.2682317E-010  0.4778729E+02  0.7816164E-02  0.1312668E+00
        -11   -1    0    0    0    0  0.00000000000E+00  0.00000000000E+00  0.45593999997E+02  0.45594000000E+02  0.51100000000E-03 0. -1.
         11   -1    0    0    0    0 -0.00000000000E+00 -0.00000000000E+00 -0.45593999997E+02  0.45594000000E+02  0.51100000000E-03 0.  1.
    9900012    2    1    2    0    0 -0.33136259105E+02 -0.24211366685E+02  0.14121614766E+02  0.47787286321E+02  0.20000069651E+02 0.  0.
         12    1    1    2    0    0  0.33136259105E+02  0.24211366685E+02 -0.14121614766E+02  0.43400713679E+02  0.00000000000E+00 0. -1.
         11    1    3    3    0    0 -0.82409501636E+01 -0.16666708423E+01  0.57734901097E+01  0.10199227402E+02  0.51100000000E-03 0. -1.
        -11    1    3    3    0    0 -0.24123611605E+02 -0.14400236648E+02  0.41718958752E+01  0.28402819716E+02  0.51100000000E-03 0.  1.
        -12    1    3    3    0    0 -0.77169733628E+00 -0.81444591955E+01  0.41762287814E+01  0.91852392021E+01  0.00000000000E+00 0.  1.
</event>
<event>
 7    1  0.2682317E-010  0.4778728E+02  0.7816164E-02  0.1312668E+00
        -11   -1    0    0    0    0  0.00000000000E+00  0.00000000000E+00  0.45593999997E+02  0.45594000000E+02  0.51100000000E-03 0.  1.
         11   -1    0    0    0    0 -0.00000000000E+00 -0.00000000000E+00 -0.45593999997E+02  0.45594000000E+02  0.51100000000E-03 0. -1.
    9900012    2    1    2    0    0 -0.41221703259E+02 -0.50001455946E+01  0.12625062680E+02  0.47787280153E+02  0.20000041531E+02 0.  0.
         12    1    1    2    0    0  0.41221703259E+02  0.50001455946E+01 -0.12625062680E+02  0.43400719847E+02  0.00000000000E+00 0. -1.
         11    1    3    3    0    0 -0.16314509188E+02 -0.88974634344E+01  0.87530470455E+00  0.18603607827E+02  0.51100000000E-03 0. -1.
        -11    1    3    3    0    0 -0.15238567660E+02 -0.19707171655E+01  0.75383049658E+01  0.17115014242E+02  0.51100000000E-03 0.  1.
         12    1    3    3    0    0 -0.96686264111E+01  0.58680350053E+01  0.42114530101E+01  0.12068658084E+02  0.00000000000E+00 0. -1.
</event>
<event>
 7    1  0.2682317E-010  0.4778727E+02  0.7816164E-02  0.1312668E+00
        -11   -1    0    0    0    0  0.00000000000E+00  0.00000000000E+00  0.45593999997E+02  0.45594000000E+02  0.51100000000E-03 0. -1.
         11   -1    0    0    0    0 -0.00000000000E+00 -0.00000000000E+00 -0.45593999997E+02  0.45594000000E+02  0.51100000000E-03 0.  1.
    9900012    2    1    2    0    0 -0.22336528696E+02  0.35479674572E+02 -0.11220313539E+02  0.47787271229E+02  0.20000000843E+02 0.  0.
         12    1    1    2    0    0  0.22336528696E+02 -0.35479674572E+02  0.11220313539E+02  0.43400728771E+02  0.00000000000E+00 0. -1.
         11    1    3    3    0    0  0.24475541062E+00  0.13016412072E+01 -0.20347105252E+01  0.24278019330E+01  0.51100000000E-03 0. -1.
        -11    1    3    3    0    0 -0.19224717375E+02  0.15662630249E+02 -0.94049133786E+00  0.24815162073E+02  0.51100000000E-03 0.  1.
         12    1    3    3    0    0 -0.33565667316E+01  0.18515403115E+02 -0.82451116756E+01  0.20544307223E+02  0.00000000000E+00 0. -1.
</event>
<event>
 7    1  0.2682317E-010  0.4778727E+02  0.7816164E-02  0.1312668E+00
        -11   -1    0    0    0    0  0.00000000000E+00  0.00000000000E+00  0.45593999997E+02  0.45594000000E+02  0.51100000000E-03 0. -1.
         11   -1    0    0    0    0 -0.00000000000E+00 -0.00000000000E+00 -0.45593999997E+02  0.45594000000E+02  0.51100000000E-03 0.  1.
    9900012    2    1    2    0    0  0.15015151940E+02 -0.38894627083E+02 -0.12057228868E+02  0.47787267613E+02  0.19999984355E+02 0.  0.
         12    1    1    2    0    0 -0.15015151940E+02  0.38894627083E+02  0.12057228868E+02  0.43400732387E+02  0.00000000000E+00 0. -1.
         11    1    3    3    0    0  0.36742018070E-01 -0.32961816194E+01  0.18800099578E+01  0.37948123730E+01  0.51100000000E-03 0. -1.
        -11    1    3    3    0    0  0.13457253803E+02 -0.11989725303E+02 -0.50160914754E+01  0.18708617446E+02  0.51100000000E-03 0.  1.
        -12    1    3    3    0    0  0.15211561183E+01 -0.23608720161E+02 -0.89211473507E+01  0.25283837795E+02  0.00000000000E+00 0.  1.
</event>
<event>
 7    1  0.2682317E-010  0.4778727E+02  0.7816164E-02  0.1312668E+00
        -11   -1    0    0    0    0  0.00000000000E+00  0.00000000000E+00  0.45593999997E+02  0.45594000000E+02  0.51100000000E-03 0.  1.
         11   -1    0    0    0    0 -0.00000000000E+00 -0.00000000000E+00 -0.45593999997E+02  0.45594000000E+02  0.51100000000E-03 0. -1.
    9900012    2    1    2    0    0  0.42735729838E+02  0.72521652067E+01  0.21649175005E+01  0.47787269905E+02  0.19999994807E+02 0.  0.
         12    1    1    2    0    0 -0.42735729838E+02 -0.72521652067E+01 -0.21649175005E+01  0.43400730095E+02  0.00000000000E+00 0. -1.
         11    1    3    3    0    0  0.15814223692E+02  0.73395167344E+01 -0.25457137091E+01  0.17619274543E+02  0.51100000000E-03 0. -1.
        -11    1    3    3    0    0  0.13271466252E+02 -0.74548602809E+00 -0.40973307414E+01  0.13909553744E+02  0.51100000000E-03 0.  1.
        -12    1    3    3    0    0  0.13650039894E+02  0.65813450039E+00  0.88079619510E+01  0.16258441618E+02  0.00000000000E+00 0.  1.
</event>
<event>
 7    1  0.2682317E-010  0.4778727E+02  0.7816164E-02  0.1312668E+00
        -11   -1    0    0    0    0  0.00000000000E+00  0.00000000000E+00  0.45593999997E+02  0.45594000000E+02  0.51100000000E-03 0.  1.
         11   -1    0    0    0    0 -0.00000000000E+00 -0.00000000000E+00 -0.45593999997E+02  0.45594000000E+02  0.51100000000E-03 0. -1.
    9900012    2    1    2    0    0 -0.28461732120E+02  0.22742897662E+02  0.23586301034E+02  0.47787272059E+02  0.20000004625E+02 0.  0.
         12    1    1    2    0    0  0.28461732120E+02 -0.22742897662E+02 -0.23586301034E+02  0.43400727941E+02  0.00000000000E+00 0. -1.
         11    1    3    3    0    0 -0.11753882147E+02  0.16091888975E+02  0.10439525929E+02  0.22496362777E+02  0.51100000000E-03 0. -1.
        -11    1    3    3    0    0 -0.13351640167E+02  0.98358950861E+01  0.81396423208E+01  0.18473356616E+02  0.51100000000E-03 0.  1.
        -12    1    3    3    0    0 -0.33562098070E+01 -0.31848863987E+01  0.50071327843E+01  0.68175526665E+01  0.00000000000E+00 0.  1.
</event>
<event>
 7    1  0.2682317E-010  0.4778729E+02  0.7816164E-02  0.1312668E+00
        -11   -1    0    0    0    0  0.00000000000E+00  0.00000000000E+00  0.45593999997E+02  0.45594000000E+02  0.51100000000E-03 0. -1.
         11   -1    0    0    0    0 -0.00000000000E+00 -0.00000000000E+00 -0.45593999997E+02  0.45594000000E+02  0.51100000000E-03 0.  1.
    9900012    2    1    2    0    0  0.19008808523E+02 -0.15647044890E+02 -0.35741531838E+02  0.47787286718E+02  0.20000071463E+02 0.  0.
         12    1    1    2    0    0 -0.19008808523E+02  0.15647044890E+02  0.35741531838E+02  0.43400713282E+02  0.00000000000E+00 0. -1.
         11    1    3    3    0    0 -0.11451833001E+01 -0.53439298785E-02 -0.11578088375E+01  0.16284946772E+01  0.51100000000E-03 0. -1.
        -11    1    3    3    0    0  0.14949579816E+02 -0.49989083814E+01 -0.29119360739E+02  0.33112175884E+02  0.51100000000E-03 0.  1.
        -12    1    3    3    0    0  0.52044120078E+01 -0.10642792579E+02 -0.54643622608E+01  0.13046616157E+02  0.00000000000E+00 0.  1.
</event>
<event>
 7    1  0.2682317E-010  0.4778727E+02  0.7816164E-02  0.1312668E+00
        -11   -1    0    0    0    0  0.00000000000E+00  0.00000000000E+00  0.45593999997E+02  0.45594000000E+02  0.51100000000E-03 0.  1.
         11   -1    0    0    0    0 -0.00000000000E+00 -0.00000000000E+00 -0.45593999997E+02  0.45594000000E+02  0.51100000000E-03 0. -1.
    9900012    2    1    2    0    0 -0.32612356207E+02  0.27162700048E+02  0.90689082152E+01  0.47787272501E+02  0.20000006639E+02 0.  0.
         12    1    1    2    0    0  0.32612356207E+02 -0.27162700048E+02 -0.90689082152E+01  0.43400727499E+02  0.00000000000E+00 0. -1.
         11    1    3    3    0    0 -0.56952806516E+01  0.45237349756E+01  0.62042518703E+01  0.95599760126E+01  0.51100000000E-03 0. -1.
        -11    1    3    3    0    0 -0.30797812443E+01 -0.78438055197E+00  0.35967489455E+01  0.47996779684E+01  0.51100000000E-03 0.  1.
        -12    1    3    3    0    0 -0.23837294311E+02  0.23423345624E+02 -0.73209260062E+00  0.33427618520E+02  0.00000000000E+00 0.  1.
</event>
<event>
 7    1  0.2682317E-010  0.4778723E+02  0.7816164E-02  0.1312668E+00
        -11   -1    0    0    0    0  0.00000000000E+00  0.00000000000E+00  0.45593999997E+02  0.45594000000E+02  0.51100000000E-03 0.  1.
         11   -1    0    0    0    0 -0.00000000000E+00 -0.00000000000E+00 -0.45593999997E+02  0.45594000000E+02  0.51100000000E-03 0. -1.
    9900012    2    1    2    0    0 -0.34733768936E+02  0.15071504272E+02  0.21214183954E+02  0.47787233343E+02  0.19999828105E+02 0.  0.
         12    1    1    2    0    0  0.34733768936E+02 -0.15071504272E+02 -0.21214183954E+02  0.43400766657E+02  0.00000000000E+00 0. -1.
         11    1    3    3    0    0 -0.98527571820E+01  0.11769506953E+02  0.73435174647E+01  0.17015444955E+02  0.51100000000E-03 0. -1.
        -11    1    3    3    0    0 -0.65867194773E+01  0.38686702618E+01 -0.26843258650E+00  0.76435292490E+01  0.51100000000E-03 0.  1.
         12    1    3    3    0    0 -0.18294292277E+02 -0.56667294274E+00  0.14139099075E+02  0.23128259139E+02  0.00000000000E+00 0. -1.
</event>
<event>
 7    1  0.2682317E-010  0.4778727E+02  0.7816164E-02  0.1312668E+00
        -11   -1    0    0    0    0  0.00000000000E+00  0.00000000000E+00  0.45593999997E+02  0.45594000000E+02  0.51100000000E-03 0. -1.
         11   -1    0    0    0    0 -0.00000000000E+00 -0.00000000000E+00 -0.45593999997E+02  0.45594000000E+02  0.51100000000E-03 0.  1.
    9900012    2    1    2    0    0 -0.13240591931E+02 -0.39193835425E+02 -0.13120723049E+02  0.47787269783E+02  0.19999994251E+02 0.  0.
         12    1    1    2    0    0  0.13240591931E+02  0.39193835425E+02  0.13120723049E+02  0.43400730217E+02  0.00000000000E+00 0. -1.
         11    1    3    3    0    0 -0.55870876757E+01 -0.13939965341E+02  0.11657599996E+01  0.15063106554E+02  0.51100000000E-03 0. -1.
        -11    1    3    3    0    0 -0.51422192680E+01 -0.13016262265E+02 -0.33816297889E+00  0.13999280582E+02  0.51100000000E-03 0.  1.
        -12    1    3    3    0    0 -0.25112849877E+01 -0.12237607819E+02 -0.13948320069E+02  0.18724882648E+02  0.00000000000E+00 0.  1.
</event>
<event>
 7    1  0.2682317E-010  0.4778727E+02  0.7816164E-02  0.1312668E+00
        -11   -1    0    0    0    0  0.00000000000E+00  0.00000000000E+00  0.45593999997E+02  0.45594000000E+02  0.51100000000E-03 0. -1.
         11   -1    0    0    0    0 -0.00000000000E+00 -0.00000000000E+00 -0.45593999997E+02  0.45594000000E+02  0.51100000000E-03 0.  1.
    9900012    2    1    2    0    0  0.42054919460E+02  0.35725860091E+01  0.10111560056E+02  0.47787271108E+02  0.20000000290E+02 0.  0.
         12    1    1    2    0    0 -0.42054919460E+02 -0.35725860091E+01 -0.10111560056E+02  0.43400728892E+02  0.00000000000E+00 0. -1.
         11    1    3    3    0    0  0.25594623278E+00  0.58150389721E+00  0.32397890301E+01  0.33014979141E+01  0.51100000000E-03 0. -1.
        -11    1    3    3    0    0  0.16839179169E+01  0.10310799277E+01 -0.25573094469E+01  0.32308725194E+01  0.51100000000E-03 0.  1.
        -12    1    3    3    0    0  0.40115055310E+02  0.19600021843E+01  0.94290804724E+01  0.41254900675E+02  0.00000000000E+00 0.  1.
</event>
<event>
 7    1  0.2682317E-010  0.4778726E+02  0.7816164E-02  0.1312668E+00
        -11   -1    0    0    0    0  0.00000000000E+00  0.00000000000E+00  0.45593999997E+02  0.45594000000E+02  0.51100000000E-03 0.  1.
         11   -1    0    0    0    0 -0.00000000000E+00 -0.00000000000E+00 -0.45593999997E+02  0.45594000000E+02  0.51100000000E-03 0. -1.
    9900012    2    1    2    0    0 -0.11399808484E+02  0.29491087175E+02  0.29731196233E+02  0.47787263995E+02  0.19999967861E+02 0.  0.
         12    1    1    2    0    0  0.11399808484E+02 -0.29491087175E+02 -0.29731196233E+02  0.43400736005E+02  0.00000000000E+00 0. -1.
         11    1    3    3    0    0 -0.19580113932E-01 -0.14486736725E+01  0.87176751726E+00  0.16908629914E+01  0.51100000000E-03 0. -1.
        -11    1    3    3    0    0 -0.12560958509E+02  0.14263181966E+02  0.17886477469E+02  0.26098699488E+02  0.51100000000E-03 0.  1.
         12    1    3    3    0    0  0.11807301384E+01  0.16676578881E+02  0.10972951247E+02  0.19997701516E+02  0.00000000000E+00 0. -1.
</event>
<event>
 7    1  0.2682317E-010  0.4778727E+02  0.7816164E-02  0.1312668E+00
        -11   -1    0    0    0    0  0.00000000000E+00  0.00000000000E+00  0.45593999997E+02  0.45594000000E+02  0.51100000000E-03 0.  1.
         11   -1    0    0    0    0 -0.00000000000E+00 -0.00000000000E+00 -0.45593999997E+02  0.45594000000E+02  0.51100000000E-03 0. -1.
    9900012    2    1    2    0    0  0.32503127661E+02  0.26287184616E+02 -0.11668488502E+02  0.47787274123E+02  0.20000014036E+02 0.  0.
         12    1    1    2    0    0 -0.32503127661E+02 -0.26287184616E+02  0.11668488502E+02  0.43400725877E+02  0.00000000000E+00 0. -1.
         11    1    3    3    0    0  0.13690098530E+02  0.11495620139E+02  0.39475931123E+01  0.18307145375E+02  0.51100000000E-03 0.  1.
        -11    1    3    3    0    0 -0.65304277733E+00  0.72206455096E+00 -0.43503732108E+00  0.10663488250E+01  0.51100000000E-03 0. -1.
         12    1    3    3    0    0  0.19466071908E+02  0.14069499926E+02 -0.15181044293E+02  0.28413779923E+02  0.00000000000E+00 0. -1.
</event>
<event>
 7    1  0.2682317E-010  0.4778727E+02  0.7816164E-02  0.1312668E+00
        -11   -1    0    0    0    0  0.00000000000E+00  0.00000000000E+00  0.45593999997E+02  0.45594000000E+02  0.51100000000E-03 0.  1.
         11   -1    0    0    0    0 -0.00000000000E+00 -0.00000000000E+00 -0.45593999997E+02  0.45594000000E+02  0.51100000000E-03 0. -1.
    9900012    2    1    2    0    0 -0.19738253400E+02  0.32842816092E+02  0.20380722888E+02  0.47787273260E+02  0.20000010103E+02 0.  0.
         12    1    1    2    0    0  0.19738253400E+02 -0.32842816092E+02 -0.20380722888E+02  0.43400726740E+02  0.00000000000E+00 0. -1.
         11    1    3    3    0    0 -0.74418059325E+01  0.59499917520E+01  0.42861927119E+01  0.10447694751E+02  0.51100000000E-03 0. -1.
        -11    1    3    3    0    0  0.14841646877E+01  0.11902729182E-01 -0.17188629558E+01  0.22709858249E+01  0.51100000000E-03 0.  1.
        -12    1    3    3    0    0 -0.13780612155E+02  0.26880921610E+02  0.17813393132E+02  0.35068592684E+02  0.00000000000E+00 0.  1.
</event>
<event>
 7    1  0.2682317E-010  0.4778727E+02  0.7816164E-02  0.1312668E+00
        -11   -1    0    0    0    0  0.00000000000E+00  0.00000000000E+00  0.45593999997E+02  0.45594000000E+02  0.51100000000E-03 0.  1.
         11   -1    0    0    0    0 -0.00000000000E+00 -0.00000000000E+00 -0.45593999997E+02  0.45594000000E+02  0.51100000000E-03 0. -1.
    9900012    2    1    2    0    0  0.32863573648E+02  0.28187636089E+02 -0.30109615653E+01  0.47787272002E+02  0.20000004366E+02 0.  0.
         12    1    1    2    0    0 -0.32863573648E+02 -0.28187636089E+02  0.30109615653E+01  0.43400727998E+02  0.00000000000E+00 0. -1.
         11    1    3    3    0    0  0.17110120311E+02  0.98768617171E+01 -0.91423289004E+01  0.21769032878E+02  0.51100000000E-03 0. -1.
        -11    1    3    3    0    0  0.34160784039E+01  0.36566671144E+00  0.15277320129E+01  0.37599560064E+01  0.51100000000E-03 0.  1.
        -12    1    3    3    0    0  0.12337374932E+02  0.17945107661E+02  0.46036353222E+01  0.22258283118E+02  0.00000000000E+00 0.  1.
</event>
<event>
 7    1  0.2682317E-010  0.4778727E+02  0.7816164E-02  0.1312668E+00
        -11   -1    0    0    0    0  0.00000000000E+00  0.00000000000E+00  0.45593999997E+02  0.45594000000E+02  0.51100000000E-03 0. -1.
         11   -1    0    0    0    0 -0.00000000000E+00 -0.00000000000E+00 -0.45593999997E+02  0.45594000000E+02  0.51100000000E-03 0.  1.
    9900012    2    1    2    0    0  0.40104170825E+02 -0.11547452581E+02 -0.11913644210E+02  0.47787273081E+02  0.20000009287E+02 0.  0.
         12    1    1    2    0    0 -0.40104170825E+02  0.11547452581E+02  0.11913644210E+02  0.43400726919E+02  0.00000000000E+00 0. -1.
         11    1    3    3    0    0  0.20866116478E+02 -0.57988998993E+01  0.13809814078E+01  0.21700902443E+02  0.51100000000E-03 0. -1.
        -11    1    3    3    0    0  0.80579594305E+01 -0.67792974921E+01 -0.32474940535E+01  0.11019791403E+02  0.51100000000E-03 0.  1.
         12    1    3    3    0    0  0.11180094917E+02  0.10307448100E+01 -0.10047131564E+02  0.15066579236E+02  0.00000000000E+00 0. -1.
</event>
<event>
 7    1  0.2682317E-010  0.4778727E+02  0.7816164E-02  0.1312668E+00
        -11   -1    0    0    0    0  0.00000000000E+00  0.00000000000E+00  0.45593999997E+02  0.45594000000E+02  0.51100000000E-03 0.  1.
         11   -1    0    0    0    0 -0.00000000000E+00 -0.00000000000E+00 -0.45593999997E+02  0.45594000000E+02  0.51100000000E-03 0. -1.
    9900012    2    1    2    0    0 -0.23190499090E+02  0.25902404563E+01  0.36593918877E+02  0.47787268527E+02  0.19999988522E+02 0.  0.
         12    1    1    2    0    0  0.23190499090E+02 -0.25902404563E+01 -0.36593918877E+02  0.43400731473E+02  0.00000000000E+00 0. -1.
         11    1    3    3    0    0 -0.60607326299E+01 -0.16858597203E-01  0.64265953533E+01  0.88336794327E+01  0.51100000000E-03 0. -1.
        -11    1    3    3    0    0 -0.16053637662E+02  0.39530465185E+01  0.32255681242E+02  0.36246031943E+02  0.51100000000E-03 0.  1.
         12    1    3    3    0    0 -0.10761287978E+01 -0.13459474650E+01 -0.20883577185E+01  0.27075571514E+01  0.00000000000E+00 0. -1.
</event>
<event>
 7    1  0.2682317E-010  0.4778727E+02  0.7816164E-02  0.1312668E+00
        -11   -1    0    0    0    0  0.00000000000E+00  0.00000000000E+00  0.45593999997E+02  0.45594000000E+02  0.51100000000E-03 0.  1.
         11   -1    0    0    0    0 -0.00000000000E+00 -0.00000000000E+00 -0.45593999997E+02  0.45594000000E+02  0.51100000000E-03 0. -1.
    9900012    2    1    2    0    0  0.35442091597E+02 -0.86894691981E+01  0.23494144885E+02  0.47787267569E+02  0.19999984154E+02 0.  0.
         12    1    1    2    0    0 -0.35442091597E+02  0.86894691981E+01 -0.23494144885E+02  0.43400732431E+02  0.00000000000E+00 0. -1.
         11    1    3    3    0    0  0.13421858766E+02  0.19508762537E+00  0.12471909397E+02  0.18323014931E+02  0.51100000000E-03 0. -1.
        -11    1    3    3    0    0  0.20986217881E+02 -0.90996169338E+01  0.13646436567E+02  0.26635495124E+02  0.51100000000E-03 0.  1.
        -12    1    3    3    0    0  0.10340149503E+01  0.21506011031E+00 -0.26242010788E+01  0.28287575135E+01  0.00000000000E+00 0.  1.
</event>
<event>
 7    1  0.2682317E-010  0.4778727E+02  0.7816164E-02  0.1312668E+00
        -11   -1    0    0    0    0  0.00000000000E+00  0.00000000000E+00  0.45593999997E+02  0.45594000000E+02  0.51100000000E-03 0.  1.
         11   -1    0    0    0    0 -0.00000000000E+00 -0.00000000000E+00 -0.45593999997E+02  0.45594000000E+02  0.51100000000E-03 0. -1.
    9900012    2    1    2    0    0  0.33765388469E+02 -0.73836698423E+01  0.26248872960E+02  0.47787269932E+02  0.19999994929E+02 0.  0.
         12    1    1    2    0    0 -0.33765388469E+02  0.73836698423E+01 -0.26248872960E+02  0.43400730068E+02  0.00000000000E+00 0. -1.
         11    1    3    3    0    0  0.86921347533E+01 -0.39773852614E+01  0.12984962994E+02  0.16123959324E+02  0.51100000000E-03 0. -1.
        -11    1    3    3    0    0  0.42113541547E+01 -0.61006784040E+01  0.55416107967E+01  0.92554433329E+01  0.51100000000E-03 0.  1.
         12    1    3    3    0    0  0.20861899560E+02  0.26943938231E+01  0.77222991693E+01  0.22407867275E+02  0.00000000000E+00 0. -1.
</event>
<event>
 7    1  0.2682317E-010  0.4778727E+02  0.7816164E-02  0.1312668E+00
        -11   -1    0    0    0    0  0.00000000000E+00  0.00000000000E+00  0.45593999997E+02  0.45594000000E+02  0.51100000000E-03 0. -1.
         11   -1    0    0    0    0 -0.00000000000E+00 -0.00000000000E+00 -0.45593999997E+02  0.45594000000E+02  0.51100000000E-03 0.  1.
    9900012    2    1    2    0    0 -0.14594930339E+01 -0.26769582733E+02  0.34130375853E+02  0.47787271487E+02  0.20000002017E+02 0.  0.
         12    1    1    2    0    0  0.14594930339E+01  0.26769582733E+02 -0.34130375853E+02  0.43400728513E+02  0.00000000000E+00 0. -1.
         11    1    3    3    0    0  0.59370348074E+00 -0.36598313441E+01  0.18600478590E+01  0.41480872206E+01  0.51100000000E-03 0. -1.
        -11    1    3    3    0    0  0.22646179221E+01 -0.23301799340E+02  0.20564350444E+02  0.31160790366E+02  0.51100000000E-03 0.  1.
         12    1    3    3    0    0 -0.43178144367E+01  0.19204795086E+00  0.11705977550E+02  0.12478393900E+02  0.00000000000E+00 0. -1.
</event>
<event>
 7    1  0.2682317E-010  0.4778727E+02  0.7816164E-02  0.1312668E+00
        -11   -1    0    0    0    0  0.00000000000E+00  0.00000000000E+00  0.45593999997E+02  0.45594000000E+02  0.51100000000E-03 0.  1.
         11   -1    0    0    0    0 -0.00000000000E+00 -0.00000000000E+00 -0.45593999997E+02  0.45594000000E+02  0.51100000000E-03 0. -1.
    9900012    2    1    2    0    0 -0.94341831585E+01  0.26119648151E+01  0.42282352181E+02  0.47787268693E+02  0.19999989278E+02 0.  0.
         12    1    1    2    0    0  0.94341831585E+01 -0.26119648151E+01 -0.42282352181E+02  0.43400731307E+02  0.00000000000E+00 0. -1.
         11    1    3    3    0    0 -0.13938065946E+01  0.11259775775E+01  0.20671024168E+02  0.20748536400E+02  0.51100000000E-03 0. -1.
        -11    1    3    3    0    0 -0.92963321049E+01 -0.33617083707E+01  0.18936208430E+02  0.21361246774E+02  0.51100000000E-03 0.  1.
         12    1    3    3    0    0  0.12559555410E+01  0.48476956084E+01  0.26751195827E+01  0.56774855186E+01  0.00000000000E+00 0. -1.
</event>
<event>
 7    1  0.2682317E-010  0.4778727E+02  0.7816164E-02  0.1312668E+00
        -11   -1    0    0    0    0  0.00000000000E+00  0.00000000000E+00  0.45593999997E+02  0.45594000000E+02  0.51100000000E-03 0.  1.
         11   -1    0    0    0    0 -0.00000000000E+00 -0.00000000000E+00 -0.45593999997E+02  0.45594000000E+02  0.51100000000E-03 0. -1.
    9900012    2    1    2    0    0  0.43217089179E+01 -0.15353441289E+02 -0.40363574173E+02  0.47787269046E+02  0.19999990886E+02 0.  0.
         12    1    1    2    0    0 -0.43217089179E+01  0.15353441289E+02  0.40363574173E+02  0.43400730954E+02  0.00000000000E+00 0. -1.
         11    1    3    3    0    0 -0.46686675014E+01 -0.46911895112E+01 -0.72071003695E+01  0.97849890785E+01  0.51100000000E-03 0.  1.
        -11    1    3    3    0    0  0.35653679139E+00 -0.85096037554E+01 -0.22852125489E+02  0.24387704160E+02  0.51100000000E-03 0. -1.
        -12    1    3    3    0    0  0.86338396280E+01 -0.21526480226E+01 -0.10304348314E+02  0.13614575807E+02  0.00000000000E+00 0.  1.
</event>
<event>
 7    1  0.2682317E-010  0.4778727E+02  0.7816164E-02  0.1312668E+00
        -11   -1    0    0    0    0  0.00000000000E+00  0.00000000000E+00  0.45593999997E+02  0.45594000000E+02  0.51100000000E-03 0.  1.
         11   -1    0    0    0    0 -0.00000000000E+00 -0.00000000000E+00 -0.45593999997E+02  0.45594000000E+02  0.51100000000E-03 0. -1.
    9900012    2    1    2    0    0  0.20104000799E+02  0.36315153708E+02 -0.12675270176E+02  0.47787266009E+02  0.19999977039E+02 0.  0.
         12    1    1    2    0    0 -0.20104000799E+02 -0.36315153708E+02  0.12675270176E+02  0.43400733991E+02  0.00000000000E+00 0. -1.
         11    1    3    3    0    0  0.97438600779E+01  0.22287726540E+02 -0.10366144043E+02  0.26441303034E+02  0.51100000000E-03 0. -1.
        -11    1    3    3    0    0  0.69893742664E+00  0.93853919722E+01 -0.44584779062E+01  0.10414034833E+02  0.51100000000E-03 0.  1.
        -12    1    3    3    0    0  0.96612032944E+01  0.46420351959E+01  0.21493517735E+01  0.10931928142E+02  0.00000000000E+00 0.  1.
</event>
<event>
 7    1  0.2682317E-010  0.4778727E+02  0.7816164E-02  0.1312668E+00
        -11   -1    0    0    0    0  0.00000000000E+00  0.00000000000E+00  0.45593999997E+02  0.45594000000E+02  0.51100000000E-03 0.  1.
         11   -1    0    0    0    0 -0.00000000000E+00 -0.00000000000E+00 -0.45593999997E+02  0.45594000000E+02  0.51100000000E-03 0. -1.
    9900012    2    1    2    0    0 -0.25753417856E+01  0.71971144572E+01  0.42722270279E+02  0.47787271669E+02  0.20000002848E+02 0.  0.
         12    1    1    2    0    0  0.25753417856E+01 -0.71971144572E+01 -0.42722270279E+02  0.43400728331E+02  0.00000000000E+00 0. -1.
         11    1    3    3    0    0 -0.14492609065E+01  0.40432473174E+01  0.17132014937E+02  0.17662223589E+02  0.51100000000E-03 0. -1.
        -11    1    3    3    0    0  0.55040618906E+01 -0.42347211102E+00  0.19989038597E+02  0.20737301903E+02  0.51100000000E-03 0.  1.
         12    1    3    3    0    0 -0.66301427696E+01  0.35773392508E+01  0.56012167461E+01  0.93877461777E+01  0.00000000000E+00 0. -1.
</event>
<event>
 7    1  0.2682317E-010  0.4778727E+02  0.7816164E-02  0.1312668E+00
        -11   -1    0    0    0    0  0.00000000000E+00  0.00000000000E+00  0.45593999997E+02  0.45594000000E+02  0.51100000000E-03 0. -1.
         11   -1    0    0    0    0 -0.00000000000E+00 -0.00000000000E+00 -0.45593999997E+02  0.45594000000E+02  0.51100000000E-03 0.  1.
    9900012    2    1    2    0    0  0.38686376889E+02 -0.18507379423E+02 -0.66681662380E+01  0.47787270849E+02  0.19999999109E+02 0.  0.
         12    1    1    2    0    0 -0.38686376889E+02  0.18507379423E+02  0.66681662380E+01  0.43400729151E+02  0.00000000000E+00 0. -1.
         11    1    3    3    0    0  0.15362960377E+02 -0.86193171725E+01 -0.11759625746E+01  0.17654916265E+02  0.51100000000E-03 0.  1.
        -11    1    3    3    0    0  0.19853613664E+02 -0.84416964986E+01  0.20845890528E+01  0.21674264164E+02  0.51100000000E-03 0. -1.
         12    1    3    3    0    0  0.34698028477E+01 -0.14463657518E+01 -0.75767927162E+01  0.84580904200E+01  0.00000000000E+00 0. -1.
</event>
<event>
 7    1  0.2682317E-010  0.4778727E+02  0.7816164E-02  0.1312668E+00
        -11   -1    0    0    0    0  0.00000000000E+00  0.00000000000E+00  0.45593999997E+02  0.45594000000E+02  0.51100000000E-03 0.  1.
         11   -1    0    0    0    0 -0.00000000000E+00 -0.00000000000E+00 -0.45593999997E+02  0.45594000000E+02  0.51100000000E-03 0. -1.
    9900012    2    1    2    0    0 -0.15925822248E+02  0.31963198841E+02  0.24664661643E+02  0.47787269264E+02  0.19999991883E+02 0.  0.
         12    1    1    2    0    0  0.15925822248E+02 -0.31963198841E+02 -0.24664661643E+02  0.43400730736E+02  0.00000000000E+00 0. -1.
         11    1    3    3    0    0 -0.43863196223E+01  0.49502411794E+01  0.87297733848E+01  0.10952334508E+02  0.51100000000E-03 0.  1.
        -11    1    3    3    0    0 -0.15351678884E+02  0.19896547586E+02  0.11757162831E+02  0.27744864903E+02  0.51100000000E-03 0. -1.
         12    1    3    3    0    0  0.38121762582E+01  0.71164100755E+01  0.41777254272E+01  0.90900698529E+01  0.00000000000E+00 0. -1.
</event>
<event>
 7    1  0.2682317E-010  0.4778729E+02  0.7816164E-02  0.1312668E+00
        -11   -1    0    0    0    0  0.00000000000E+00  0.00000000000E+00  0.45593999997E+02  0.45594000000E+02  0.51100000000E-03 0.  1.
         11   -1    0    0    0    0 -0.00000000000E+00 -0.00000000000E+00 -0.45593999997E+02  0.45594000000E+02  0.51100000000E-03 0. -1.
    9900012    2    1    2    0    0  0.30246100208E+02 -0.31070912808E+02  0.18422154701E+01  0.47787286200E+02  0.20000069099E+02 0.  0.
         12    1    1    2    0    0 -0.30246100208E+02  0.31070912808E+02 -0.18422154701E+01  0.43400713800E+02  0.00000000000E+00 0. -1.
         11    1    3    3    0    0  0.14555997843E+02 -0.22902134171E+02 -0.12906000411E+01  0.27167084340E+02  0.51100000000E-03 0. -1.
        -11    1    3    3    0    0  0.27779209979E+00 -0.15893819174E+01 -0.24701598198E+01  0.29504225335E+01  0.51100000000E-03 0.  1.
        -12    1    3    3    0    0  0.15412310265E+02 -0.65793967204E+01  0.56029753309E+01  0.17669779327E+02  0.00000000000E+00 0.  1.
</event>
<event>
 7    1  0.2682317E-010  0.4778727E+02  0.7816164E-02  0.1312668E+00
        -11   -1    0    0    0    0  0.00000000000E+00  0.00000000000E+00  0.45593999997E+02  0.45594000000E+02  0.51100000000E-03 0. -1.
         11   -1    0    0    0    0 -0.00000000000E+00 -0.00000000000E+00 -0.45593999997E+02  0.45594000000E+02  0.51100000000E-03 0.  1.
    9900012    2    1    2    0    0 -0.37545104202E+02  0.78475469475E+00 -0.21757121385E+02  0.47787273964E+02  0.20000013312E+02 0.  0.
         12    1    1    2    0    0  0.37545104202E+02 -0.78475469475E+00  0.21757121385E+02  0.43400726036E+02  0.00000000000E+00 0. -1.
         11    1    3    3    0    0  0.34759053482E+00  0.29300086604E+01 -0.22330590718E+01  0.37003139069E+01  0.51100000000E-03 0. -1.
        -11    1    3    3    0    0 -0.76307109462E+01  0.17802406604E+01 -0.87004765802E+01  0.11708770189E+02  0.51100000000E-03 0.  1.
         12    1    3    3    0    0 -0.30261983791E+02 -0.39254946261E+01 -0.10823585733E+02  0.32378189868E+02  0.00000000000E+00 0. -1.
</event>
<event>
 7    1  0.2682317E-010  0.4778728E+02  0.7816164E-02  0.1312668E+00
        -11   -1    0    0    0    0  0.00000000000E+00  0.00000000000E+00  0.45593999997E+02  0.45594000000E+02  0.51100000000E-03 0.  1.
         11   -1    0    0    0    0 -0.00000000000E+00 -0.00000000000E+00 -0.45593999997E+02  0.45594000000E+02  0.51100000000E-03 0. -1.
    9900012    2    1    2    0    0  0.13723954343E+02  0.33934229591E+02  0.23318320391E+02  0.47787275046E+02  0.20000018244E+02 0.  0.
         12    1    1    2    0    0 -0.13723954343E+02 -0.33934229591E+02 -0.23318320391E+02  0.43400724954E+02  0.00000000000E+00 0. -1.
         11    1    3    3    0    0  0.71012719829E+01  0.61076678139E+01  0.12545676313E+02  0.15656489527E+02  0.51100000000E-03 0. -1.
        -11    1    3    3    0    0  0.68468421274E+01  0.18159060771E+02  0.11280641651E+02  0.22447351994E+02  0.51100000000E-03 0.  1.
         12    1    3    3    0    0 -0.22415976773E+00  0.96675010054E+01 -0.50799757355E+00  0.96834335246E+01  0.00000000000E+00 0. -1.
</event>
<event>
 7    1  0.2682317E-010  0.4778727E+02  0.7816164E-02  0.1312668E+00
        -11   -1    0    0    0    0  0.00000000000E+00  0.00000000000E+00  0.45593999997E+02  0.45594000000E+02  0.51100000000E-03 0.  1.
         11   -1    0    0    0    0 -0.00000000000E+00 -0.00000000000E+00 -0.45593999997E+02  0.45594000000E+02  0.51100000000E-03 0. -1.
    9900012    2    1    2    0    0  0.19076617395E+02 -0.25550528928E+02  0.29442768727E+02  0.47787268554E+02  0.19999988645E+02 0.  0.
         12    1    1    2    0    0 -0.19076617395E+02  0.25550528928E+02 -0.29442768727E+02  0.43400731446E+02  0.00000000000E+00 0. -1.
         11    1    3    3    0    0  0.10282538025E+00  0.73189605849E+00  0.10209628392E+01  0.12604008407E+01  0.51100000000E-03 0. -1.
        -11    1    3    3    0    0  0.47000478388E+01 -0.15504737598E+02  0.22419581813E+02  0.27660892729E+02  0.51100000000E-03 0.  1.
        -12    1    3    3    0    0  0.14273744175E+02 -0.10777687389E+02  0.60022240755E+01  0.18865974984E+02  0.00000000000E+00 0.  1.
</event>
<event>
 7    1  0.2682317E-010  0.4778727E+02  0.7816164E-02  0.1312668E+00
        -11   -1    0    0    0    0  0.00000000000E+00  0.00000000000E+00  0.45593999997E+02  0.45594000000E+02  0.51100000000E-03 0. -1.
         11   -1    0    0    0    0 -0.00000000000E+00 -0.00000000000E+00 -0.45593999997E+02  0.45594000000E+02  0.51100000000E-03 0.  1.
    9900012    2    1    2    0    0 -0.54700308790E+01  0.16929173725E+02 -0.39586678238E+02  0.47787271265E+02  0.20000001004E+02 0.  0.
         12    1    1    2    0    0  0.54700308790E+01 -0.16929173725E+02  0.39586678238E+02  0.43400728735E+02  0.00000000000E+00 0. -1.
         11    1    3    3    0    0 -0.68695433694E+00  0.12806934818E+01  0.41557444099E+00  0.15115503407E+01  0.51100000000E-03 0. -1.
        -11    1    3    3    0    0  0.21813592533E+01  0.27033270435E+01 -0.25115366535E+02  0.25354446193E+02  0.51100000000E-03 0.  1.
         12    1    3    3    0    0 -0.69644357954E+01  0.12945153200E+02 -0.14886886144E+02  0.20921274731E+02  0.00000000000E+00 0. -1.
</event>
<event>
 7    1  0.2682317E-010  0.4778726E+02  0.7816164E-02  0.1312668E+00
        -11   -1    0    0    0    0  0.00000000000E+00  0.00000000000E+00  0.45593999997E+02  0.45594000000E+02  0.51100000000E-03 0.  1.
         11   -1    0    0    0    0 -0.00000000000E+00 -0.00000000000E+00 -0.45593999997E+02  0.45594000000E+02  0.51100000000E-03 0. -1.
    9900012    2    1    2    0    0 -0.10469182991E+01  0.37057955162E+02 -0.22566252647E+02  0.47787264554E+02  0.19999970409E+02 0.  0.
         12    1    1    2    0    0  0.10469182991E+01 -0.37057955162E+02  0.22566252647E+02  0.43400735446E+02  0.00000000000E+00 0. -1.
         11    1    3    3    0    0  0.48911275536E+01  0.20678528199E+02 -0.14268655530E+02  0.25595296211E+02  0.51100000000E-03 0.  1.
        -11    1    3    3    0    0  0.18399841393E+01  0.55940712583E+01 -0.65043751949E+01  0.87741707194E+01  0.51100000000E-03 0. -1.
        -12    1    3    3    0    0 -0.77780299921E+01  0.10785355704E+02 -0.17932219229E+01  0.13417797624E+02  0.00000000000E+00 0.  1.
</event>
<event>
 7    1  0.2682317E-010  0.4778727E+02  0.7816164E-02  0.1312668E+00
        -11   -1    0    0    0    0  0.00000000000E+00  0.00000000000E+00  0.45593999997E+02  0.45594000000E+02  0.51100000000E-03 0.  1.
         11   -1    0    0    0    0 -0.00000000000E+00 -0.00000000000E+00 -0.45593999997E+02  0.45594000000E+02  0.51100000000E-03 0. -1.
    9900012    2    1    2    0    0  0.14383803740E+01 -0.27072005130E+02  0.33891900429E+02  0.47787270576E+02  0.19999997864E+02 0.  0.
         12    1    1    2    0    0 -0.14383803740E+01  0.27072005130E+02 -0.33891900429E+02  0.43400729424E+02  0.00000000000E+00 0. -1.
         11    1    3    3    0    0  0.13844611544E+01  0.54023643907E-01 -0.65811794519E+00  0.15338744189E+01  0.51100000000E-03 0. -1.
        -11    1    3    3    0    0 -0.59729039798E+01 -0.10265737727E+02  0.83450922298E+01  0.14515561223E+02  0.51100000000E-03 0.  1.
        -12    1    3    3    0    0  0.60268231994E+01 -0.16860291046E+02  0.26204926144E+02  0.31737834934E+02  0.00000000000E+00 0.  1.
</event>
<event>
 7    1  0.2682317E-010  0.4778727E+02  0.7816164E-02  0.1312668E+00
        -11   -1    0    0    0    0  0.00000000000E+00  0.00000000000E+00  0.45593999997E+02  0.45594000000E+02  0.51100000000E-03 0.  1.
         11   -1    0    0    0    0 -0.00000000000E+00 -0.00000000000E+00 -0.45593999997E+02  0.45594000000E+02  0.51100000000E-03 0. -1.
    9900012    2    1    2    0    0  0.37080974369E+02 -0.63950486693E+01  0.21627022110E+02  0.47787269672E+02  0.19999993744E+02 0.  0.
         12    1    1    2    0    0 -0.37080974369E+02  0.63950486693E+01 -0.21627022110E+02  0.43400730328E+02  0.00000000000E+00 0. -1.
         11    1    3    3    0    0  0.41819381242E+00 -0.15632698305E+01 -0.43502714429E-01  0.16188240717E+01  0.51100000000E-03 0. -1.
        -11    1    3    3    0    0  0.74056559261E+01 -0.84248430810E+01  0.47593041813E+01  0.12184937307E+02  0.51100000000E-03 0.  1.
        -12    1    3    3    0    0  0.29257124630E+02  0.35930642422E+01  0.16911220643E+02  0.33983508293E+02  0.00000000000E+00 0.  1.
</event>
<event>
 7    1  0.2682317E-010  0.4778728E+02  0.7816164E-02  0.1312668E+00
        -11   -1    0    0    0    0  0.00000000000E+00  0.00000000000E+00  0.45593999997E+02  0.45594000000E+02  0.51100000000E-03 0.  1.
         11   -1    0    0    0    0 -0.00000000000E+00 -0.00000000000E+00 -0.45593999997E+02  0.45594000000E+02  0.51100000000E-03 0. -1.
    9900012    2    1    2    0    0  0.59471862552E+01 -0.13273863077E+02  0.40890811024E+02  0.47787275450E+02  0.20000020085E+02 0.  0.
         12    1    1    2    0    0 -0.59471862552E+01  0.13273863077E+02 -0.40890811024E+02  0.43400724550E+02  0.00000000000E+00 0. -1.
         11    1    3    3    0    0  0.21679337954E+00 -0.31272155219E+01  0.30432237940E+01  0.43689458238E+01  0.51100000000E-03 0.  1.
        -11    1    3    3    0    0  0.93072221739E+01 -0.11737077897E+02  0.19135861415E+02  0.24301534407E+02  0.51100000000E-03 0. -1.
         12    1    3    3    0    0 -0.35768292982E+01  0.15904303423E+01  0.18711725814E+02  0.19116795219E+02  0.00000000000E+00 0. -1.
</event>
<event>
 7    1  0.2682317E-010  0.4778727E+02  0.7816164E-02  0.1312668E+00
        -11   -1    0    0    0    0  0.00000000000E+00  0.00000000000E+00  0.45593999997E+02  0.45594000000E+02  0.51100000000E-03 0. -1.
         11   -1    0    0    0    0 -0.00000000000E+00 -0.00000000000E+00 -0.45593999997E+02  0.45594000000E+02  0.51100000000E-03 0.  1.
    9900012    2    1    2    0    0 -0.33760062848E+02  0.13294415236E+02 -0.23814700185E+02  0.47787271148E+02  0.20000000474E+02 0.  0.
         12    1    1    2    0    0  0.33760062848E+02 -0.13294415236E+02  0.23814700185E+02  0.43400728852E+02  0.00000000000E+00 0. -1.
         11    1    3    3    0    0 -0.16514300259E+02  0.36729868940E+00 -0.31383858200E+01  0.16813877815E+02  0.51100000000E-03 0. -1.
        -11    1    3    3    0    0 -0.11289973542E+02  0.33584385046E+01 -0.11064625893E+02  0.16160710324E+02  0.51100000000E-03 0.  1.
         12    1    3    3    0    0 -0.59557890464E+01  0.95686780424E+01 -0.96116884720E+01  0.14812683009E+02  0.00000000000E+00 0. -1.
</event>
<event>
 7    1  0.2682317E-010  0.4778727E+02  0.7816164E-02  0.1312668E+00
        -11   -1    0    0    0    0  0.00000000000E+00  0.00000000000E+00  0.45593999997E+02  0.45594000000E+02  0.51100000000E-03 0.  1.
         11   -1    0    0    0    0 -0.00000000000E+00 -0.00000000000E+00 -0.45593999997E+02  0.45594000000E+02  0.51100000000E-03 0. -1.
    9900012    2    1    2    0    0  0.33902328437E+02 -0.26625746398E+02 -0.50324060503E+01  0.47787270106E+02  0.19999995720E+02 0.  0.
         12    1    1    2    0    0 -0.33902328437E+02  0.26625746398E+02  0.50324060503E+01  0.43400729894E+02  0.00000000000E+00 0. -1.
         11    1    3    3    0    0  0.27183837875E+01  0.14099377168E+01 -0.39744952084E+01  0.50173844983E+01  0.51100000000E-03 0. -1.
        -11    1    3    3    0    0  0.37205651926E+01 -0.53210975938E+01 -0.28374920299E+01  0.70857636311E+01  0.51100000000E-03 0.  1.
        -12    1    3    3    0    0  0.27463379457E+02 -0.22714586521E+02  0.17795811879E+01  0.35684121976E+02  0.00000000000E+00 0.  1.
</event>
<event>
 7    1  0.2682317E-010  0.4778728E+02  0.7816164E-02  0.1312668E+00
        -11   -1    0    0    0    0  0.00000000000E+00  0.00000000000E+00  0.45593999997E+02  0.45594000000E+02  0.51100000000E-03 0.  1.
         11   -1    0    0    0    0 -0.00000000000E+00 -0.00000000000E+00 -0.45593999997E+02  0.45594000000E+02  0.51100000000E-03 0. -1.
    9900012    2    1    2    0    0 -0.26493942248E+01 -0.39023180312E+02  0.18809437210E+02  0.47787276278E+02  0.20000023861E+02 0.  0.
         12    1    1    2    0    0  0.26493942248E+01  0.39023180312E+02 -0.18809437210E+02  0.43400723722E+02  0.00000000000E+00 0. -1.
         11    1    3    3    0    0 -0.28853140244E+01 -0.16164291710E+01 -0.38457678719E+00  0.33295314762E+01  0.51100000000E-03 0. -1.
        -11    1    3    3    0    0 -0.15652427970E+01 -0.14143844043E+02  0.15136085036E+02  0.20774970032E+02  0.51100000000E-03 0.  1.
        -12    1    3    3    0    0  0.18011625966E+01 -0.23262907098E+02  0.40579289612E+01  0.23682774770E+02  0.00000000000E+00 0.  1.
</event>
<event>
 7    1  0.2682317E-010  0.4778727E+02  0.7816164E-02  0.1312668E+00
        -11   -1    0    0    0    0  0.00000000000E+00  0.00000000000E+00  0.45593999997E+02  0.45594000000E+02  0.51100000000E-03 0.  1.
         11   -1    0    0    0    0 -0.00000000000E+00 -0.00000000000E+00 -0.45593999997E+02  0.45594000000E+02  0.51100000000E-03 0. -1.
    9900012    2    1    2    0    0  0.19840713042E+02 -0.16841834592E+02  0.34732145104E+02  0.47787272011E+02  0.20000004407E+02 0.  0.
         12    1    1    2    0    0 -0.19840713042E+02  0.16841834592E+02 -0.34732145104E+02  0.43400727989E+02  0.00000000000E+00 0. -1.
         11    1    3    3    0    0 -0.36658646681E+00  0.15876606976E+01  0.11957068690E+01  0.20210807272E+01  0.51100000000E-03 0. -1.
        -11    1    3    3    0    0  0.63530527876E+01 -0.41178347884E+01  0.20771105718E+02  0.22107841958E+02  0.51100000000E-03 0.  1.
         12    1    3    3    0    0  0.13854246721E+02 -0.14311660502E+02  0.12765332518E+02  0.23658349325E+02  0.00000000000E+00 0. -1.
</event>
<event>
 7    1  0.2682317E-010  0.4778728E+02  0.7816164E-02  0.1312668E+00
        -11   -1    0    0    0    0  0.00000000000E+00  0.00000000000E+00  0.45593999997E+02  0.45594000000E+02  0.51100000000E-03 0.  1.
         11   -1    0    0    0    0 -0.00000000000E+00 -0.00000000000E+00 -0.45593999997E+02  0.45594000000E+02  0.51100000000E-03 0. -1.
    9900012    2    1    2    0    0  0.36668409949E+02  0.22969682397E+02  0.33828959112E+01  0.47787279012E+02  0.20000036326E+02 0.  0.
         12    1    1    2    0    0 -0.36668409949E+02 -0.22969682397E+02 -0.33828959112E+01  0.43400720988E+02  0.00000000000E+00 0. -1.
         11    1    3    3    0    0  0.64166029199E-01  0.10430443129E+00  0.88872188737E+00  0.89711958395E+00  0.51100000000E-03 0. -1.
        -11    1    3    3    0    0  0.94551630796E+01  0.15794921360E+02  0.38332933927E+01  0.18803557858E+02  0.51100000000E-03 0.  1.
         12    1    3    3    0    0  0.27149080840E+02  0.70704566056E+01 -0.13391193689E+01  0.28086601570E+02  0.00000000000E+00 0. -1.
</event>
<event>
 7    1  0.2682317E-010  0.4778727E+02  0.7816164E-02  0.1312668E+00
        -11   -1    0    0    0    0  0.00000000000E+00  0.00000000000E+00  0.45593999997E+02  0.45594000000E+02  0.51100000000E-03 0.  1.
         11   -1    0    0    0    0 -0.00000000000E+00 -0.00000000000E+00 -0.45593999997E+02  0.45594000000E+02  0.51100000000E-03 0. -1.
    9900012    2    1    2    0    0 -0.13728401928E+02 -0.30949502845E+02  0.27152951760E+02  0.47787268035E+02  0.19999986277E+02 0.  0.
         12    1    1    2    0    0  0.13728401928E+02  0.30949502845E+02 -0.27152951760E+02  0.43400731965E+02  0.00000000000E+00 0. -1.
         11    1    3    3    0    0 -0.65192648783E+01 -0.28655529661E+01  0.57453333433E+01  0.91499215211E+01  0.51100000000E-03 0. -1.
        -11    1    3    3    0    0 -0.47588205960E+01 -0.87285373432E+01  0.37405030408E+00  0.99485502214E+01  0.51100000000E-03 0.  1.
         12    1    3    3    0    0 -0.24503164536E+01 -0.19355412536E+02  0.21033568113E+02  0.28688796292E+02  0.00000000000E+00 0. -1.
</event>
<event>
 7    1  0.2682317E-010  0.4778727E+02  0.7816164E-02  0.1312668E+00
        -11   -1    0    0    0    0  0.00000000000E+00  0.00000000000E+00  0.45593999997E+02  0.45594000000E+02  0.51100000000E-03 0. -1.
         11   -1    0    0    0    0 -0.00000000000E+00 -0.00000000000E+00 -0.45593999997E+02  0.45594000000E+02  0.51100000000E-03 0.  1.
    9900012    2    1    2    0    0  0.36209252362E+02 -0.20407995986E+02 -0.12491090909E+02  0.47787267185E+02  0.19999982404E+02 0.  0.
         12    1    1    2    0    0 -0.36209252362E+02  0.20407995986E+02  0.12491090909E+02  0.43400732815E+02  0.00000000000E+00 0. -1.
         11    1    3    3    0    0  0.50519317091E+01 -0.44396313250E+01  0.14073553555E+01  0.68711709085E+01  0.51100000000E-03 0. -1.
        -11    1    3    3    0    0  0.20449466726E+02 -0.18313146552E+02 -0.11041855789E+02  0.29588420126E+02  0.51100000000E-03 0.  1.
         12    1    3    3    0    0  0.10707853926E+02  0.23447818912E+01 -0.28565904757E+01  0.11327676150E+02  0.00000000000E+00 0. -1.
</event>
<event>
 7    1  0.2682317E-010  0.4778727E+02  0.7816164E-02  0.1312668E+00
        -11   -1    0    0    0    0  0.00000000000E+00  0.00000000000E+00  0.45593999997E+02  0.45594000000E+02  0.51100000000E-03 0.  1.
         11   -1    0    0    0    0 -0.00000000000E+00 -0.00000000000E+00 -0.45593999997E+02  0.45594000000E+02  0.51100000000E-03 0. -1.
    9900012    2    1    2    0    0 -0.18342220056E+02  0.39198453317E+01  0.39138487718E+02  0.47787269075E+02  0.19999991020E+02 0.  0.
         12    1    1    2    0    0  0.18342220056E+02 -0.39198453317E+01 -0.39138487718E+02  0.43400730925E+02  0.00000000000E+00 0. -1.
         11    1    3    3    0    0  0.24105959876E+00  0.51676029603E+01  0.33907758824E+01  0.61854338111E+01  0.51100000000E-03 0. -1.
        -11    1    3    3    0    0 -0.16853852854E+01 -0.14381150291E+01  0.13411331364E+02  0.13593105150E+02  0.51100000000E-03 0.  1.
         12    1    3    3    0    0 -0.16897894369E+02  0.19035740052E+00  0.22336380472E+02  0.28008730114E+02  0.00000000000E+00 0. -1.
</event>
<event>
 7    1  0.2682317E-010  0.4778727E+02  0.7816164E-02  0.1312668E+00
        -11   -1    0    0    0    0  0.00000000000E+00  0.00000000000E+00  0.45593999997E+02  0.45594000000E+02  0.51100000000E-03 0.  1.
         11   -1    0    0    0    0 -0.00000000000E+00 -0.00000000000E+00 -0.45593999997E+02  0.45594000000E+02  0.51100000000E-03 0. -1.
    9900012    2    1    2    0    0 -0.10644001912E+02  0.57601922092E+01  0.41679112305E+02  0.47787274274E+02  0.20000014724E+02 0.  0.
         12    1    1    2    0    0  0.10644001912E+02 -0.57601922092E+01 -0.41679112305E+02  0.43400725726E+02  0.00000000000E+00 0. -1.
         11    1    3    3    0    0 -0.81168092234E+01  0.65011643939E+00  0.13175448232E+02  0.15488630660E+02  0.51100000000E-03 0. -1.
        -11    1    3    3    0    0 -0.39269154552E+01  0.13706446582E+00  0.26448248450E+02  0.26738535824E+02  0.51100000000E-03 0.  1.
         12    1    3    3    0    0  0.13997227670E+01  0.49730113039E+01  0.20554156241E+01  0.55601077904E+01  0.00000000000E+00 0. -1.
</event>
<event>
 7    1  0.2682317E-010  0.4778728E+02  0.7816164E-02  0.1312668E+00
        -11   -1    0    0    0    0  0.00000000000E+00  0.00000000000E+00  0.45593999997E+02  0.45594000000E+02  0.51100000000E-03 0.  1.
         11   -1    0    0    0    0 -0.00000000000E+00 -0.00000000000E+00 -0.45593999997E+02  0.45594000000E+02  0.51100000000E-03 0. -1.
    9900012    2    1    2    0    0  0.16965598193E+02  0.30375237999E+02  0.25944862434E+02  0.47787280050E+02  0.20000041058E+02 0.  0.
         12    1    1    2    0    0 -0.16965598193E+02 -0.30375237999E+02 -0.25944862434E+02  0.43400719950E+02  0.00000000000E+00 0. -1.
         11    1    3    3    0    0  0.51757429789E+01  0.18569244415E+02  0.67987695304E+01  0.20440851766E+02  0.51100000000E-03 0. -1.
        -11    1    3    3    0    0  0.16024535763E+01 -0.18668334749E+01  0.20727645397E+01  0.32170293417E+01  0.51100000000E-03 0.  1.
        -12    1    3    3    0    0  0.10187401638E+02  0.13672827058E+02  0.17073328364E+02  0.24129398942E+02  0.00000000000E+00 0.  1.
</event>
<event>
 7    1  0.2682317E-010  0.4778726E+02  0.7816164E-02  0.1312668E+00
        -11   -1    0    0    0    0  0.00000000000E+00  0.00000000000E+00  0.45593999997E+02  0.45594000000E+02  0.51100000000E-03 0.  1.
         11   -1    0    0    0    0 -0.00000000000E+00 -0.00000000000E+00 -0.45593999997E+02  0.45594000000E+02  0.51100000000E-03 0. -1.
    9900012    2    1    2    0    0 -0.57648948225E+01  0.34784646559E+02  0.25306494066E+02  0.47787259333E+02  0.19999946601E+02 0.  0.
         12    1    1    2    0    0  0.57648948225E+01 -0.34784646559E+02 -0.25306494066E+02  0.43400740667E+02  0.00000000000E+00 0. -1.
         11    1    3    3    0    0 -0.56777245432E+01  0.82220832245E+01  0.27630340411E+01  0.10366945833E+02  0.51100000000E-03 0. -1.
        -11    1    3    3    0    0 -0.43735893913E+01  0.62538907410E+01  0.11789074607E+02  0.14043564858E+02  0.51100000000E-03 0.  1.
         12    1    3    3    0    0  0.42864191120E+01  0.20308672594E+02  0.10754385418E+02  0.23376748641E+02  0.00000000000E+00 0. -1.
</event>
<event>
 7    1  0.2682317E-010  0.4778727E+02  0.7816164E-02  0.1312668E+00
        -11   -1    0    0    0    0  0.00000000000E+00  0.00000000000E+00  0.45593999997E+02  0.45594000000E+02  0.51100000000E-03 0.  1.
         11   -1    0    0    0    0 -0.00000000000E+00 -0.00000000000E+00 -0.45593999997E+02  0.45594000000E+02  0.51100000000E-03 0. -1.
    9900012    2    1    2    0    0  0.22707008109E+01  0.37922119817E+01  0.43175068784E+02  0.47787268227E+02  0.19999987156E+02 0.  0.
         12    1    1    2    0    0 -0.22707008109E+01 -0.37922119817E+01 -0.43175068784E+02  0.43400731773E+02  0.00000000000E+00 0. -1.
         11    1    3    3    0    0 -0.14688192374E+00 -0.16521388601E+01  0.10767279149E+02  0.10894284632E+02  0.51100000000E-03 0. -1.
        -11    1    3    3    0    0 -0.20111822448E+01 -0.44143396264E+01  0.19319268438E+02  0.19918970395E+02  0.51100000000E-03 0.  1.
         12    1    3    3    0    0  0.44287649795E+01  0.98586904682E+01  0.13088521197E+02  0.16974013200E+02  0.00000000000E+00 0. -1.
</event>
<event>
 7    1  0.2682317E-010  0.4778727E+02  0.7816164E-02  0.1312668E+00
        -11   -1    0    0    0    0  0.00000000000E+00  0.00000000000E+00  0.45593999997E+02  0.45594000000E+02  0.51100000000E-03 0. -1.
         11   -1    0    0    0    0 -0.00000000000E+00 -0.00000000000E+00 -0.45593999997E+02  0.45594000000E+02  0.51100000000E-03 0.  1.
    9900012    2    1    2    0    0  0.42105545427E+02 -0.99304395376E+01 -0.34831733881E+01  0.47787273256E+02  0.20000010081E+02 0.  0.
         12    1    1    2    0    0 -0.42105545427E+02  0.99304395376E+01  0.34831733881E+01  0.43400726744E+02  0.00000000000E+00 0. -1.
         11    1    3    3    0    0  0.90661345939E+01 -0.96150587132E+00 -0.35747289463E+01  0.97927512638E+01  0.51100000000E-03 0.  1.
        -11    1    3    3    0    0  0.25336557480E+02 -0.12752840011E+02 -0.37128382366E+01  0.28607013848E+02  0.51100000000E-03 0. -1.
         12    1    3    3    0    0  0.77028533528E+01  0.37839063445E+01  0.38043937947E+01  0.93875081435E+01  0.00000000000E+00 0. -1.
</event>
<event>
 7    1  0.2682317E-010  0.4778727E+02  0.7816164E-02  0.1312668E+00
        -11   -1    0    0    0    0  0.00000000000E+00  0.00000000000E+00  0.45593999997E+02  0.45594000000E+02  0.51100000000E-03 0.  1.
         11   -1    0    0    0    0 -0.00000000000E+00 -0.00000000000E+00 -0.45593999997E+02  0.45594000000E+02  0.51100000000E-03 0. -1.
    9900012    2    1    2    0    0  0.27966911267E+02  0.61160544862E+01  0.32620070853E+02  0.47787271080E+02  0.20000000163E+02 0.  0.
         12    1    1    2    0    0 -0.27966911267E+02 -0.61160544862E+01 -0.32620070853E+02  0.43400728920E+02  0.00000000000E+00 0. -1.
         11    1    3    3    0    0  0.50266158220E+01  0.58776460897E+01  0.46394269417E+01  0.90187511766E+01  0.51100000000E-03 0. -1.
        -11    1    3    3    0    0  0.17327503659E+02  0.58599515765E+01  0.23022278795E+02  0.29404195903E+02  0.51100000000E-03 0.  1.
         12    1    3    3    0    0  0.56127917861E+01 -0.56215431800E+01  0.49583651165E+01  0.93643240006E+01  0.00000000000E+00 0. -1.
</event>
<event>
 7    1  0.2682317E-010  0.4778728E+02  0.7816164E-02  0.1312668E+00
        -11   -1    0    0    0    0  0.00000000000E+00  0.00000000000E+00  0.45593999997E+02  0.45594000000E+02  0.51100000000E-03 0.  1.
         11   -1    0    0    0    0 -0.00000000000E+00 -0.00000000000E+00 -0.45593999997E+02  0.45594000000E+02  0.51100000000E-03 0. -1.
    9900012    2    1    2    0    0  0.22346647497E+02  0.36326695370E+02  0.80387008883E+01  0.47787283844E+02  0.20000058359E+02 0.  0.
         12    1    1    2    0    0 -0.22346647497E+02 -0.36326695370E+02 -0.80387008883E+01  0.43400716156E+02  0.00000000000E+00 0. -1.
         11    1    3    3    0    0  0.12192764811E+02  0.20526587440E+02  0.22101203609E+01  0.23976841700E+02  0.51100000000E-03 0. -1.
        -11    1    3    3    0    0  0.96046861211E+01  0.16547442481E+02  0.85344468355E+01  0.20950050864E+02  0.51100000000E-03 0.  1.
         12    1    3    3    0    0  0.54919656489E+00 -0.74733455054E+00 -0.27058663081E+01  0.28603912800E+01  0.00000000000E+00 0. -1.
</event>
<event>
 7    1  0.2682317E-010  0.4778729E+02  0.7816164E-02  0.1312668E+00
        -11   -1    0    0    0    0  0.00000000000E+00  0.00000000000E+00  0.45593999997E+02  0.45594000000E+02  0.51100000000E-03 0. -1.
         11   -1    0    0    0    0 -0.00000000000E+00 -0.00000000000E+00 -0.45593999997E+02  0.45594000000E+02  0.51100000000E-03 0.  1.
    9900012    2    1    2    0    0  0.24896198190E+02 -0.48207658770E+01 -0.35221599962E+02  0.47787290653E+02  0.20000089403E+02 0.  0.
         12    1    1    2    0    0 -0.24896198190E+02  0.48207658770E+01  0.35221599962E+02  0.43400709347E+02  0.00000000000E+00 0. -1.
         11    1    3    3    0    0 -0.87568374258E+00 -0.22927791371E+00 -0.69634531736E+01  0.70220417786E+01  0.51100000000E-03 0. -1.
        -11    1    3    3    0    0  0.14714988445E+02 -0.53071356250E+01 -0.24494732984E+02  0.29063525556E+02  0.51100000000E-03 0.  1.
         12    1    3    3    0    0  0.11056893488E+02  0.71564766171E+00 -0.37634138038E+01  0.11701723319E+02  0.00000000000E+00 0. -1.
</event>
<event>
 7    1  0.2682317E-010  0.4778726E+02  0.7816164E-02  0.1312668E+00
        -11   -1    0    0    0    0  0.00000000000E+00  0.00000000000E+00  0.45593999997E+02  0.45594000000E+02  0.51100000000E-03 0.  1.
         11   -1    0    0    0    0 -0.00000000000E+00 -0.00000000000E+00 -0.45593999997E+02  0.45594000000E+02  0.51100000000E-03 0. -1.
    9900012    2    1    2    0    0 -0.32622718154E+02  0.14709586687E+02  0.24556272127E+02  0.47787260594E+02  0.19999952352E+02 0.  0.
         12    1    1    2    0    0  0.32622718154E+02 -0.14709586687E+02 -0.24556272127E+02  0.43400739406E+02  0.00000000000E+00 0. -1.
         11    1    3    3    0    0 -0.13182382533E+02 -0.18316977535E+01  0.63645332030E+01  0.14752545850E+02  0.51100000000E-03 0. -1.
        -11    1    3    3    0    0 -0.13230263623E+02  0.45865857689E+01  0.78630954167E+01  0.16059418244E+02  0.51100000000E-03 0.  1.
         12    1    3    3    0    0 -0.62100719973E+01  0.11954698672E+02  0.10328643507E+02  0.16975296499E+02  0.00000000000E+00 0. -1.
</event>
<event>
 7    1  0.2682317E-010  0.4778727E+02  0.7816164E-02  0.1312668E+00
        -11   -1    0    0    0    0  0.00000000000E+00  0.00000000000E+00  0.45593999997E+02  0.45594000000E+02  0.51100000000E-03 0. -1.
         11   -1    0    0    0    0 -0.00000000000E+00 -0.00000000000E+00 -0.45593999997E+02  0.45594000000E+02  0.51100000000E-03 0.  1.
    9900012    2    1    2    0    0  0.15861712688E+02  0.40313479148E+02  0.26177893544E+01  0.47787270149E+02  0.19999995920E+02 0.  0.
         12    1    1    2    0    0 -0.15861712688E+02 -0.40313479148E+02 -0.26177893544E+01  0.43400729851E+02  0.00000000000E+00 0. -1.
         11    1    3    3    0    0  0.45707835300E+01  0.80092913256E+01  0.32259487987E+01  0.97697264818E+01  0.51100000000E-03 0. -1.
        -11    1    3    3    0    0  0.18760266715E+01  0.24150312931E+02 -0.51424065325E+01  0.24762904433E+02  0.51100000000E-03 0.  1.
        -12    1    3    3    0    0  0.94149024869E+01  0.81538748913E+01  0.45342470882E+01  0.13254639234E+02  0.00000000000E+00 0.  1.
</event>
<event>
 7    1  0.2682317E-010  0.4778727E+02  0.7816164E-02  0.1312668E+00
        -11   -1    0    0    0    0  0.00000000000E+00  0.00000000000E+00  0.45593999997E+02  0.45594000000E+02  0.51100000000E-03 0. -1.
         11   -1    0    0    0    0 -0.00000000000E+00 -0.00000000000E+00 -0.45593999997E+02  0.45594000000E+02  0.51100000000E-03 0.  1.
    9900012    2    1    2    0    0 -0.29546387917E+02  0.30792150037E+02  0.79043027118E+01  0.47787267930E+02  0.19999985800E+02 0.  0.
         12    1    1    2    0    0  0.29546387917E+02 -0.30792150037E+02 -0.79043027118E+01  0.43400732070E+02  0.00000000000E+00 0. -1.
         11    1    3    3    0    0 -0.10129469500E-01  0.10136553790E+00  0.14161701118E+01  0.14198294352E+01  0.51100000000E-03 0. -1.
        -11    1    3    3    0    0 -0.17684364256E+02  0.28826521580E+02  0.60937678923E+01  0.34363339374E+02  0.51100000000E-03 0.  1.
        -12    1    3    3    0    0 -0.11851894192E+02  0.18642629184E+01  0.39436470781E+00  0.12004099121E+02  0.00000000000E+00 0.  1.
</event>
<event>
 7    1  0.2682317E-010  0.4778728E+02  0.7816164E-02  0.1312668E+00
        -11   -1    0    0    0    0  0.00000000000E+00  0.00000000000E+00  0.45593999997E+02  0.45594000000E+02  0.51100000000E-03 0.  1.
         11   -1    0    0    0    0 -0.00000000000E+00 -0.00000000000E+00 -0.45593999997E+02  0.45594000000E+02  0.51100000000E-03 0. -1.
    9900012    2    1    2    0    0 -0.37187865454E+02 -0.18581400165E+02  0.12466637589E+02  0.47787276251E+02  0.20000023741E+02 0.  0.
         12    1    1    2    0    0  0.37187865454E+02  0.18581400165E+02 -0.12466637589E+02  0.43400723749E+02  0.00000000000E+00 0. -1.
         11    1    3    3    0    0 -0.11714046029E+02 -0.10069612646E+01  0.66467681470E+00  0.11776019739E+02  0.51100000000E-03 0. -1.
        -11    1    3    3    0    0 -0.21035582279E+02 -0.13530560370E+02  0.27682085335E+01  0.25164156344E+02  0.51100000000E-03 0.  1.
         12    1    3    3    0    0 -0.44382371462E+01 -0.40438785303E+01  0.90337522403E+01  0.10847100169E+02  0.00000000000E+00 0. -1.
</event>
<event>
 7    1  0.2682317E-010  0.4778728E+02  0.7816164E-02  0.1312668E+00
        -11   -1    0    0    0    0  0.00000000000E+00  0.00000000000E+00  0.45593999997E+02  0.45594000000E+02  0.51100000000E-03 0. -1.
         11   -1    0    0    0    0 -0.00000000000E+00 -0.00000000000E+00 -0.45593999997E+02  0.45594000000E+02  0.51100000000E-03 0.  1.
    9900012    2    1    2    0    0  0.13466934203E+02  0.40375043738E+02 -0.84923262193E+01  0.47787284818E+02  0.20000062801E+02 0.  0.
         12    1    1    2    0    0 -0.13466934203E+02 -0.40375043738E+02  0.84923262193E+01  0.43400715182E+02  0.00000000000E+00 0. -1.
         11    1    3    3    0    0 -0.32833518984E+01  0.12083671319E+01  0.10233192196E-01  0.34986648587E+01  0.51100000000E-03 0. -1.
        -11    1    3    3    0    0  0.24574300791E+01  0.16382316595E+02 -0.34874487450E+01  0.16928719934E+02  0.51100000000E-03 0.  1.
         12    1    3    3    0    0  0.14292856022E+02  0.22784360011E+02 -0.50151106665E+01  0.27359900025E+02  0.00000000000E+00 0. -1.
</event>
<event>
 7    1  0.2682317E-010  0.4778727E+02  0.7816164E-02  0.1312668E+00
        -11   -1    0    0    0    0  0.00000000000E+00  0.00000000000E+00  0.45593999997E+02  0.45594000000E+02  0.51100000000E-03 0. -1.
         11   -1    0    0    0    0 -0.00000000000E+00 -0.00000000000E+00 -0.45593999997E+02  0.45594000000E+02  0.51100000000E-03 0.  1.
    9900012    2    1    2    0    0 -0.33216030251E+02  0.19624036536E+02  0.19880032072E+02  0.47787272463E+02  0.20000006466E+02 0.  0.
         12    1    1    2    0    0  0.33216030251E+02 -0.19624036536E+02 -0.19880032072E+02  0.43400727537E+02  0.00000000000E+00 0. -1.
         11    1    3    3    0    0 -0.13912895379E+02  0.77858625851E+01  0.16622198367E+02  0.23032277196E+02  0.51100000000E-03 0. -1.
        -11    1    3    3    0    0 -0.11593759177E+01 -0.10744733660E+01  0.18609657584E+01  0.24416878072E+01  0.51100000000E-03 0.  1.
        -12    1    3    3    0    0 -0.18143758954E+02  0.12912647317E+02  0.13968679466E+01  0.22313307459E+02  0.00000000000E+00 0.  1.
</event>
<event>
 7    1  0.2682317E-010  0.4778727E+02  0.7816164E-02  0.1312668E+00
        -11   -1    0    0    0    0  0.00000000000E+00  0.00000000000E+00  0.45593999997E+02  0.45594000000E+02  0.51100000000E-03 0.  1.
         11   -1    0    0    0    0 -0.00000000000E+00 -0.00000000000E+00 -0.45593999997E+02  0.45594000000E+02  0.51100000000E-03 0. -1.
    9900012    2    1    2    0    0 -0.14701289774E+01  0.12089863902E+02  0.41656897754E+02  0.47787271678E+02  0.20000002888E+02 0.  0.
         12    1    1    2    0    0  0.14701289774E+01 -0.12089863902E+02 -0.41656897754E+02  0.43400728322E+02  0.00000000000E+00 0. -1.
         11    1    3    3    0    0  0.44384686343E+01  0.93155784076E+01  0.25077224455E+02  0.27117285843E+02  0.51100000000E-03 0. -1.
        -11    1    3    3    0    0 -0.15393301326E+01  0.98196862949E+00  0.15773803935E+02  0.15879127510E+02  0.51100000000E-03 0.  1.
         12    1    3    3    0    0 -0.43692674791E+01  0.17923168651E+01  0.80586936439E+00  0.47908583241E+01  0.00000000000E+00 0. -1.
</event>
<event>
 7    1  0.2682317E-010  0.4778727E+02  0.7816164E-02  0.1312668E+00
        -11   -1    0    0    0    0  0.00000000000E+00  0.00000000000E+00  0.45593999997E+02  0.45594000000E+02  0.51100000000E-03 0.  1.
         11   -1    0    0    0    0 -0.00000000000E+00 -0.00000000000E+00 -0.45593999997E+02  0.45594000000E+02  0.51100000000E-03 0. -1.
    9900012    2    1    2    0    0  0.10313304922E+02  0.39680403303E+02  0.14238142392E+02  0.47787270012E+02  0.19999995292E+02 0.  0.
         12    1    1    2    0    0 -0.10313304922E+02 -0.39680403303E+02 -0.14238142392E+02  0.43400729988E+02  0.00000000000E+00 0. -1.
         11    1    3    3    0    0  0.87352496784E+01  0.13065405923E+02  0.67847555575E+01  0.17118479112E+02  0.51100000000E-03 0. -1.
        -11    1    3    3    0    0  0.46757288379E+01  0.23419888608E+01  0.64286476767E+00  0.52688354843E+01  0.51100000000E-03 0.  1.
        -12    1    3    3    0    0 -0.30976735943E+01  0.24273008519E+02  0.68105220671E+01  0.25399955415E+02  0.00000000000E+00 0.  1.
</event>
<event>
 7    1  0.2682317E-010  0.4778727E+02  0.7816164E-02  0.1312668E+00
        -11   -1    0    0    0    0  0.00000000000E+00  0.00000000000E+00  0.45593999997E+02  0.45594000000E+02  0.51100000000E-03 0.  1.
         11   -1    0    0    0    0 -0.00000000000E+00 -0.00000000000E+00 -0.45593999997E+02  0.45594000000E+02  0.51100000000E-03 0. -1.
    9900012    2    1    2    0    0  0.18409185382E+02 -0.26285077704E+02  0.29220197300E+02  0.47787270207E+02  0.19999996180E+02 0.  0.
         12    1    1    2    0    0 -0.18409185382E+02  0.26285077704E+02 -0.29220197300E+02  0.43400729793E+02  0.00000000000E+00 0. -1.
         11    1    3    3    0    0  0.33494700391E+01  0.11108974530E+01 -0.11749439892E+01  0.37193462238E+01  0.51100000000E-03 0. -1.
        -11    1    3    3    0    0  0.94884298373E+00 -0.54795850182E+00  0.30120332541E+01  0.32051374561E+01  0.51100000000E-03 0.  1.
        -12    1    3    3    0    0  0.14110872359E+02 -0.26848016655E+02  0.27383108035E+02  0.40862786527E+02  0.00000000000E+00 0.  1.
</event>
<event>
 7    1  0.2682317E-010  0.4778727E+02  0.7816164E-02  0.1312668E+00
        -11   -1    0    0    0    0  0.00000000000E+00  0.00000000000E+00  0.45593999997E+02  0.45594000000E+02  0.51100000000E-03 0.  1.
         11   -1    0    0    0    0 -0.00000000000E+00 -0.00000000000E+00 -0.45593999997E+02  0.45594000000E+02  0.51100000000E-03 0. -1.
    9900012    2    1    2    0    0 -0.23581266193E+02  0.36055509530E+02  0.52485386503E+01  0.47787273731E+02  0.20000012249E+02 0.  0.
         12    1    1    2    0    0  0.23581266193E+02 -0.36055509530E+02 -0.52485386503E+01  0.43400726269E+02  0.00000000000E+00 0. -1.
         11    1    3    3    0    0 -0.33593519559E+01  0.54594856238E+01 -0.27326240621E+01  0.69683902995E+01  0.51100000000E-03 0. -1.
        -11    1    3    3    0    0 -0.17896621946E+02  0.23426543936E+02 -0.48425845794E+00  0.29484344055E+02  0.51100000000E-03 0.  1.
        -12    1    3    3    0    0 -0.23252922916E+01  0.71694799700E+01  0.84654211703E+01  0.11334539376E+02  0.00000000000E+00 0.  1.
</event>
<event>
 7    1  0.2682317E-010  0.4778726E+02  0.7816164E-02  0.1312668E+00
        -11   -1    0    0    0    0  0.00000000000E+00  0.00000000000E+00  0.45593999997E+02  0.45594000000E+02  0.51100000000E-03 0.  1.
         11   -1    0    0    0    0 -0.00000000000E+00 -0.00000000000E+00 -0.45593999997E+02  0.45594000000E+02  0.51100000000E-03 0. -1.
    9900012    2    1    2    0    0  0.19604220515E+02 -0.34741055708E+02  0.17098464051E+02  0.47787263985E+02  0.19999967815E+02 0.  0.
         12    1    1    2    0    0 -0.19604220515E+02  0.34741055708E+02 -0.17098464051E+02  0.43400736015E+02  0.00000000000E+00 0. -1.
         11    1    3    3    0    0 -0.24185606876E+01 -0.15655283205E+01  0.35829950816E+01  0.45976264243E+01  0.51100000000E-03 0. -1.
        -11    1    3    3    0    0  0.64566480170E+01 -0.83482252233E+01  0.82978460544E+01  0.13425178487E+02  0.51100000000E-03 0.  1.
         12    1    3    3    0    0  0.15566133186E+02 -0.24827302164E+02  0.52176229149E+01  0.29764459074E+02  0.00000000000E+00 0. -1.
</event>
<event>
 7    1  0.2682317E-010  0.4778727E+02  0.7816164E-02  0.1312668E+00
        -11   -1    0    0    0    0  0.00000000000E+00  0.00000000000E+00  0.45593999997E+02  0.45594000000E+02  0.51100000000E-03 0. -1.
         11   -1    0    0    0    0 -0.00000000000E+00 -0.00000000000E+00 -0.45593999997E+02  0.45594000000E+02  0.51100000000E-03 0.  1.
    9900012    2    1    2    0    0  0.23974035182E+01 -0.13280883321E+02 -0.41249164887E+02  0.47787274093E+02  0.20000013898E+02 0.  0.
         12    1    1    2    0    0 -0.23974035182E+01  0.13280883321E+02  0.41249164887E+02  0.43400725907E+02  0.00000000000E+00 0. -1.
         11    1    3    3    0    0 -0.15204174595E+00 -0.27622252384E+01 -0.23247465286E+01  0.36135096020E+01  0.51100000000E-03 0. -1.
        -11    1    3    3    0    0  0.91027942126E+01 -0.10882300273E+02 -0.28852709245E+02  0.32152202922E+02  0.51100000000E-03 0.  1.
        -12    1    3    3    0    0 -0.65533489484E+01  0.36364219036E+00 -0.10071709113E+02  0.12021561568E+02  0.00000000000E+00 0.  1.
</event>
<event>
 7    1  0.2682317E-010  0.4778729E+02  0.7816164E-02  0.1312668E+00
        -11   -1    0    0    0    0  0.00000000000E+00  0.00000000000E+00  0.45593999997E+02  0.45594000000E+02  0.51100000000E-03 0.  1.
         11   -1    0    0    0    0 -0.00000000000E+00 -0.00000000000E+00 -0.45593999997E+02  0.45594000000E+02  0.51100000000E-03 0. -1.
    9900012    2    1    2    0    0 -0.42163630993E+01  0.42698930075E+02 -0.65303387695E+01  0.47787289502E+02  0.20000084155E+02 0.  0.
         12    1    1    2    0    0  0.42163630993E+01 -0.42698930075E+02  0.65303387695E+01  0.43400710498E+02  0.00000000000E+00 0. -1.
         11    1    3    3    0    0 -0.44105909301E+01  0.13186847396E+02 -0.96111967525E+01  0.16903294349E+02  0.51100000000E-03 0. -1.
        -11    1    3    3    0    0 -0.14007134559E+01  0.18958217495E+02 -0.19013919579E+01  0.19104745494E+02  0.51100000000E-03 0.  1.
         12    1    3    3    0    0  0.15949412868E+01  0.10553865184E+02  0.49822499409E+01  0.11779249658E+02  0.00000000000E+00 0. -1.
</event>
<event>
 7    1  0.2682317E-010  0.4778726E+02  0.7816164E-02  0.1312668E+00
        -11   -1    0    0    0    0  0.00000000000E+00  0.00000000000E+00  0.45593999997E+02  0.45594000000E+02  0.51100000000E-03 0.  1.
         11   -1    0    0    0    0 -0.00000000000E+00 -0.00000000000E+00 -0.45593999997E+02  0.45594000000E+02  0.51100000000E-03 0. -1.
    9900012    2    1    2    0    0 -0.36870578202E+02  0.72742175772E+01  0.21708760631E+02  0.47787261914E+02  0.19999958371E+02 0.  0.
         12    1    1    2    0    0  0.36870578202E+02 -0.72742175772E+01 -0.21708760631E+02  0.43400738086E+02  0.00000000000E+00 0. -1.
         11    1    3    3    0    0 -0.19681840550E+02  0.24434920796E+00  0.13930679245E+02  0.24114277481E+02  0.51100000000E-03 0. -1.
        -11    1    3    3    0    0 -0.19021170231E+02  0.75242782529E+01  0.69705283586E+01  0.21610366634E+02  0.51100000000E-03 0.  1.
         12    1    3    3    0    0  0.18324325796E+01 -0.49440988369E+00  0.80755302735E+00  0.20626177987E+01  0.00000000000E+00 0. -1.
</event>
<event>
 7    1  0.2682317E-010  0.4778727E+02  0.7816164E-02  0.1312668E+00
        -11   -1    0    0    0    0  0.00000000000E+00  0.00000000000E+00  0.45593999997E+02  0.45594000000E+02  0.51100000000E-03 0.  1.
         11   -1    0    0    0    0 -0.00000000000E+00 -0.00000000000E+00 -0.45593999997E+02  0.45594000000E+02  0.51100000000E-03 0. -1.
    9900012    2    1    2    0    0 -0.24661721601E+02  0.33175551941E+02  0.13221415067E+02  0.47787267572E+02  0.19999984170E+02 0.  0.
         12    1    1    2    0    0  0.24661721601E+02 -0.33175551941E+02 -0.13221415067E+02  0.43400732428E+02  0.00000000000E+00 0. -1.
         11    1    3    3    0    0 -0.11257870966E+02  0.13596813842E+02  0.46897655897E+01  0.18264909167E+02  0.51100000000E-03 0. -1.
        -11    1    3    3    0    0 -0.69927373541E+01  0.15209612255E+02 -0.15379750066E+01  0.16810593328E+02  0.51100000000E-03 0.  1.
         12    1    3    3    0    0 -0.64111132810E+01  0.43691258430E+01  0.10069624484E+02  0.12711765077E+02  0.00000000000E+00 0. -1.
</event>
<event>
 7    1  0.2682317E-010  0.4778727E+02  0.7816164E-02  0.1312668E+00
        -11   -1    0    0    0    0  0.00000000000E+00  0.00000000000E+00  0.45593999997E+02  0.45594000000E+02  0.51100000000E-03 0.  1.
         11   -1    0    0    0    0 -0.00000000000E+00 -0.00000000000E+00 -0.45593999997E+02  0.45594000000E+02  0.51100000000E-03 0. -1.
    9900012    2    1    2    0    0  0.34765610099E+02  0.24957336188E+02  0.72185165524E+01  0.47787271246E+02  0.20000000920E+02 0.  0.
         12    1    1    2    0    0 -0.34765610099E+02 -0.24957336188E+02 -0.72185165524E+01  0.43400728754E+02  0.00000000000E+00 0. -1.
         11    1    3    3    0    0  0.49452963794E+00 -0.46907265851E+00 -0.19801042080E+00  0.70978666487E+00  0.51100000000E-03 0. -1.
        -11    1    3    3    0    0  0.24928566370E+02  0.15484297883E+02 -0.35678066780E+01  0.29562241914E+02  0.51100000000E-03 0.  1.
        -12    1    3    3    0    0  0.93425140905E+01  0.99421109633E+01  0.10984333651E+02  0.17515242667E+02  0.00000000000E+00 0.  1.
</event>
<event>
 7    1  0.2682317E-010  0.4778728E+02  0.7816164E-02  0.1312668E+00
        -11   -1    0    0    0    0  0.00000000000E+00  0.00000000000E+00  0.45593999997E+02  0.45594000000E+02  0.51100000000E-03 0. -1.
         11   -1    0    0    0    0 -0.00000000000E+00 -0.00000000000E+00 -0.45593999997E+02  0.45594000000E+02  0.51100000000E-03 0.  1.
    9900012    2    1    2    0    0 -0.27873122845E+02  0.29069991862E+02 -0.16175518213E+02  0.47787276579E+02  0.20000025236E+02 0.  0.
         12    1    1    2    0    0  0.27873122845E+02 -0.29069991862E+02  0.16175518213E+02  0.43400723421E+02  0.00000000000E+00 0. -1.
         11    1    3    3    0    0 -0.73783339253E+01  0.49628875474E+01  0.27300863215E+01  0.93017974556E+01  0.51100000000E-03 0. -1.
        -11    1    3    3    0    0 -0.17130924269E+02  0.17999374848E+02 -0.91189289152E+01  0.26468867109E+02  0.51100000000E-03 0.  1.
         12    1    3    3    0    0 -0.33638646501E+01  0.61077294665E+01 -0.97866756197E+01  0.12016612014E+02  0.00000000000E+00 0. -1.
</event>
<event>
 7    1  0.2682317E-010  0.4778727E+02  0.7816164E-02  0.1312668E+00
        -11   -1    0    0    0    0  0.00000000000E+00  0.00000000000E+00  0.45593999997E+02  0.45594000000E+02  0.51100000000E-03 0. -1.
         11   -1    0    0    0    0 -0.00000000000E+00 -0.00000000000E+00 -0.45593999997E+02  0.45594000000E+02  0.51100000000E-03 0.  1.
    9900012    2    1    2    0    0 -0.41497751586E+02 -0.95217730366E+01 -0.84199596394E+01  0.47787271103E+02  0.20000000267E+02 0.  0.
         12    1    1    2    0    0  0.41497751586E+02  0.95217730366E+01  0.84199596394E+01  0.43400728897E+02  0.00000000000E+00 0. -1.
         11    1    3    3    0    0 -0.19001159660E+02 -0.33362064102E+01 -0.82274729136E+01  0.20972974334E+02  0.51100000000E-03 0. -1.
        -11    1    3    3    0    0 -0.18957201461E+01 -0.47182472742E+01 -0.31034535139E+01  0.59570996456E+01  0.51100000000E-03 0.  1.
        -12    1    3    3    0    0 -0.20600871780E+02 -0.14673193522E+01  0.29109667881E+01  0.20857197123E+02  0.00000000000E+00 0.  1.
</event>
<event>
 7    1  0.2682317E-010  0.4778727E+02  0.7816164E-02  0.1312668E+00
        -11   -1    0    0    0    0  0.00000000000E+00  0.00000000000E+00  0.45593999997E+02  0.45594000000E+02  0.51100000000E-03 0.  1.
         11   -1    0    0    0    0 -0.00000000000E+00 -0.00000000000E+00 -0.45593999997E+02  0.45594000000E+02  0.51100000000E-03 0. -1.
    9900012    2    1    2    0    0 -0.20171342960E+02 -0.23083707493E+02  0.30722673912E+02  0.47787270505E+02  0.19999997539E+02 0.  0.
         12    1    1    2    0    0  0.20171342960E+02  0.23083707493E+02 -0.30722673912E+02  0.43400729495E+02  0.00000000000E+00 0. -1.
         11    1    3    3    0    0 -0.52427141026E+01 -0.99548510411E+01  0.76675881661E+01  0.13615322947E+02  0.51100000000E-03 0. -1.
        -11    1    3    3    0    0  0.24520665181E+01 -0.11554929466E+01  0.74381626570E+01  0.79166948995E+01  0.51100000000E-03 0.  1.
         12    1    3    3    0    0 -0.17380695375E+02 -0.11973363506E+02  0.15616923088E+02  0.26255252658E+02  0.00000000000E+00 0. -1.
</event>
<event>
 7    1  0.2682317E-010  0.4778728E+02  0.7816164E-02  0.1312668E+00
        -11   -1    0    0    0    0  0.00000000000E+00  0.00000000000E+00  0.45593999997E+02  0.45594000000E+02  0.51100000000E-03 0.  1.
         11   -1    0    0    0    0 -0.00000000000E+00 -0.00000000000E+00 -0.45593999997E+02  0.45594000000E+02  0.51100000000E-03 0. -1.
    9900012    2    1    2    0    0 -0.23448125922E+02 -0.50219755224E+01  0.36174405831E+02  0.47787280137E+02  0.20000041459E+02 0.  0.
         12    1    1    2    0    0  0.23448125922E+02  0.50219755224E+01 -0.36174405831E+02  0.43400719863E+02  0.00000000000E+00 0. -1.
         11    1    3    3    0    0 -0.31901145916E+01 -0.46944422867E+01  0.77444575589E+01  0.96016270826E+01  0.51100000000E-03 0. -1.
        -11    1    3    3    0    0 -0.12134325794E+02  0.11631112637E+01  0.47088953006E+01  0.13067837828E+02  0.51100000000E-03 0.  1.
        -12    1    3    3    0    0 -0.81236855363E+01 -0.14906444994E+01  0.23721052971E+02  0.25117815227E+02  0.00000000000E+00 0.  1.
</event>
<event>
 7    1  0.2682317E-010  0.4778727E+02  0.7816164E-02  0.1312668E+00
        -11   -1    0    0    0    0  0.00000000000E+00  0.00000000000E+00  0.45593999997E+02  0.45594000000E+02  0.51100000000E-03 0.  1.
         11   -1    0    0    0    0 -0.00000000000E+00 -0.00000000000E+00 -0.45593999997E+02  0.45594000000E+02  0.51100000000E-03 0. -1.
    9900012    2    1    2    0    0 -0.26441150933E+02  0.32638434201E+02  0.10918860223E+02  0.47787270072E+02  0.19999995566E+02 0.  0.
         12    1    1    2    0    0  0.26441150933E+02 -0.32638434201E+02 -0.10918860223E+02  0.43400729928E+02  0.00000000000E+00 0. -1.
         11    1    3    3    0    0 -0.13066207941E+02  0.87018031388E+01  0.12069453948E-01  0.15698640507E+02  0.51100000000E-03 0. -1.
        -11    1    3    3    0    0 -0.14443317297E+02  0.15852042410E+02  0.10614995439E+02  0.23928535090E+02  0.51100000000E-03 0.  1.
         12    1    3    3    0    0  0.10683743055E+01  0.80845886519E+01  0.29179532941E+00  0.81600944750E+01  0.00000000000E+00 0. -1.
</event>
<event>
 7    1  0.2682317E-010  0.4778727E+02  0.7816164E-02  0.1312668E+00
        -11   -1    0    0    0    0  0.00000000000E+00  0.00000000000E+00  0.45593999997E+02  0.45594000000E+02  0.51100000000E-03 0.  1.
         11   -1    0    0    0    0 -0.00000000000E+00 -0.00000000000E+00 -0.45593999997E+02  0.45594000000E+02  0.51100000000E-03 0. -1.
    9900012    2    1    2    0    0 -0.65662873448E+01  0.26869811480E+02  0.33444286394E+02  0.47787272001E+02  0.20000004360E+02 0.  0.
         12    1    1    2    0    0  0.65662873448E+01 -0.26869811480E+02 -0.33444286394E+02  0.43400727999E+02  0.00000000000E+00 0. -1.
         11    1    3    3    0    0  0.49167547148E+01  0.38265372152E+01  0.37444470206E+01  0.72689578164E+01  0.51100000000E-03 0.  1.
        -11    1    3    3    0    0 -0.26143074305E+01 -0.24498574229E+00  0.32539507184E+01  0.41812458543E+01  0.51100000000E-03 0. -1.
        -12    1    3    3    0    0 -0.88687346292E+01  0.23288260008E+02  0.26445888654E+02  0.36337068330E+02  0.00000000000E+00 0.  1.
</event>
<event>
 7    1  0.2682317E-010  0.4778727E+02  0.7816164E-02  0.1312668E+00
        -11   -1    0    0    0    0  0.00000000000E+00  0.00000000000E+00  0.45593999997E+02  0.45594000000E+02  0.51100000000E-03 0.  1.
         11   -1    0    0    0    0 -0.00000000000E+00 -0.00000000000E+00 -0.45593999997E+02  0.45594000000E+02  0.51100000000E-03 0. -1.
    9900012    2    1    2    0    0  0.12373649873E+01  0.16535714528E+02  0.40108131403E+02  0.47787272683E+02  0.20000007470E+02 0.  0.
         12    1    1    2    0    0 -0.12373649873E+01 -0.16535714528E+02 -0.40108131403E+02  0.43400727317E+02  0.00000000000E+00 0. -1.
         11    1    3    3    0    0  0.17354160183E+01  0.41559655778E+01  0.53788511243E+01  0.70153943808E+01  0.51100000000E-03 0. -1.
        -11    1    3    3    0    0 -0.83143986039E+01  0.70495020369E+01  0.12336212669E+02  0.16462285576E+02  0.51100000000E-03 0.  1.
        -12    1    3    3    0    0  0.78163475728E+01  0.53302469129E+01  0.22393067609E+02  0.24309592726E+02  0.00000000000E+00 0.  1.
</event>
<event>
 7    1  0.2682317E-010  0.4778727E+02  0.7816164E-02  0.1312668E+00
        -11   -1    0    0    0    0  0.00000000000E+00  0.00000000000E+00  0.45593999997E+02  0.45594000000E+02  0.51100000000E-03 0.  1.
         11   -1    0    0    0    0 -0.00000000000E+00 -0.00000000000E+00 -0.45593999997E+02  0.45594000000E+02  0.51100000000E-03 0. -1.
    9900012    2    1    2    0    0  0.17449477237E+02 -0.13139588229E+02  0.37503205953E+02  0.47787268538E+02  0.19999988573E+02 0.  0.
         12    1    1    2    0    0 -0.17449477237E+02  0.13139588229E+02 -0.37503205953E+02  0.43400731462E+02  0.00000000000E+00 0. -1.
         11    1    3    3    0    0  0.10360318188E+01 -0.84654788437E+01  0.79395552685E+01  0.11652220050E+02  0.51100000000E-03 0. -1.
        -11    1    3    3    0    0  0.87629469374E+01 -0.62354042031E+01  0.86196243640E+01  0.13782867229E+02  0.51100000000E-03 0.  1.
        -12    1    3    3    0    0  0.76504984803E+01  0.15612948179E+01  0.20944026321E+02  0.22352181259E+02  0.00000000000E+00 0.  1.
</event>
<event>
 7    1  0.2682317E-010  0.4778726E+02  0.7816164E-02  0.1312668E+00
        -11   -1    0    0    0    0  0.00000000000E+00  0.00000000000E+00  0.45593999997E+02  0.45594000000E+02  0.51100000000E-03 0.  1.
         11   -1    0    0    0    0 -0.00000000000E+00 -0.00000000000E+00 -0.45593999997E+02  0.45594000000E+02  0.51100000000E-03 0. -1.
    9900012    2    1    2    0    0 -0.32168874100E+02  0.28940909867E+02 -0.33483046414E+01  0.47787264192E+02  0.19999968755E+02 0.  0.
         12    1    1    2    0    0  0.32168874100E+02 -0.28940909867E+02  0.33483046414E+01  0.43400735808E+02  0.00000000000E+00 0. -1.
         11    1    3    3    0    0 -0.32601220537E+01  0.89750642324E+01 -0.39117568343E+01  0.10319012335E+02  0.51100000000E-03 0. -1.
        -11    1    3    3    0    0 -0.10078330947E+02  0.13152159204E+02  0.42511664278E+01  0.17106269689E+02  0.51100000000E-03 0.  1.
         12    1    3    3    0    0 -0.18830421099E+02  0.68136864302E+01 -0.36877142348E+01  0.20361982168E+02  0.00000000000E+00 0. -1.
</event>
<event>
 7    1  0.2682317E-010  0.4778727E+02  0.7816164E-02  0.1312668E+00
        -11   -1    0    0    0    0  0.00000000000E+00  0.00000000000E+00  0.45593999997E+02  0.45594000000E+02  0.51100000000E-03 0. -1.
         11   -1    0    0    0    0 -0.00000000000E+00 -0.00000000000E+00 -0.45593999997E+02  0.45594000000E+02  0.51100000000E-03 0.  1.
    9900012    2    1    2    0    0  0.39771195120E+02  0.87926743526E+01 -0.14985457182E+02  0.47787274079E+02  0.20000013834E+02 0.  0.
         12    1    1    2    0    0 -0.39771195120E+02 -0.87926743526E+01  0.14985457182E+02  0.43400725921E+02  0.00000000000E+00 0. -1.
         11    1    3    3    0    0  0.78198346155E+01 -0.10223105625E+01 -0.70147919372E+01  0.10554725884E+02  0.51100000000E-03 0.  1.
        -11    1    3    3    0    0 -0.14718155149E+01  0.10406972387E+01 -0.59715717708E+00  0.18989177464E+01  0.51100000000E-03 0. -1.
         12    1    3    3    0    0  0.33423176019E+02  0.87742876764E+01 -0.73735080682E+01  0.35333630448E+02  0.00000000000E+00 0. -1.
</event>
<event>
 7    1  0.2682317E-010  0.4778727E+02  0.7816164E-02  0.1312668E+00
        -11   -1    0    0    0    0  0.00000000000E+00  0.00000000000E+00  0.45593999997E+02  0.45594000000E+02  0.51100000000E-03 0. -1.
         11   -1    0    0    0    0 -0.00000000000E+00 -0.00000000000E+00 -0.45593999997E+02  0.45594000000E+02  0.51100000000E-03 0.  1.
    9900012    2    1    2    0    0 -0.42175508457E+02  0.91833817549E+01 -0.45293704506E+01  0.47787271772E+02  0.20000003318E+02 0.  0.
         12    1    1    2    0    0  0.42175508457E+02 -0.91833817549E+01  0.45293704506E+01  0.43400728228E+02  0.00000000000E+00 0. -1.
         11    1    3    3    0    0 -0.24156009532E+02  0.10819542302E+01 -0.19412032535E+01  0.24258023246E+02  0.51100000000E-03 0. -1.
        -11    1    3    3    0    0 -0.15326182482E+02  0.14143108039E+01 -0.45649729190E+01  0.16054006433E+02  0.51100000000E-03 0.  1.
         12    1    3    3    0    0 -0.26933164421E+01  0.66871167208E+01  0.19768057219E+01  0.74752420935E+01  0.00000000000E+00 0. -1.
</event>
<event>
 7    1  0.2682317E-010  0.4778727E+02  0.7816164E-02  0.1312668E+00
        -11   -1    0    0    0    0  0.00000000000E+00  0.00000000000E+00  0.45593999997E+02  0.45594000000E+02  0.51100000000E-03 0.  1.
         11   -1    0    0    0    0 -0.00000000000E+00 -0.00000000000E+00 -0.45593999997E+02  0.45594000000E+02  0.51100000000E-03 0. -1.
    9900012    2    1    2    0    0  0.35628062580E+02 -0.21747895009E+02 -0.11886697700E+02  0.47787270020E+02  0.19999995329E+02 0.  0.
         12    1    1    2    0    0 -0.35628062580E+02  0.21747895009E+02  0.11886697700E+02  0.43400729980E+02  0.00000000000E+00 0. -1.
         11    1    3    3    0    0  0.12418918398E+02 -0.10211963332E+02  0.46467163707E+01  0.16736358700E+02  0.51100000000E-03 0.  1.
        -11    1    3    3    0    0  0.38338406514E-01  0.24042966538E+00  0.52139363022E-02  0.24352351768E+00  0.51100000000E-03 0. -1.
        -12    1    3    3    0    0  0.23170805776E+02 -0.11776361343E+02 -0.16538628008E+02  0.30807387802E+02  0.00000000000E+00 0.  1.
</event>
<event>
 7    1  0.2682317E-010  0.4778723E+02  0.7816164E-02  0.1312668E+00
        -11   -1    0    0    0    0  0.00000000000E+00  0.00000000000E+00  0.45593999997E+02  0.45594000000E+02  0.51100000000E-03 0. -1.
         11   -1    0    0    0    0 -0.00000000000E+00 -0.00000000000E+00 -0.45593999997E+02  0.45594000000E+02  0.51100000000E-03 0.  1.
    9900012    2    1    2    0    0  0.94746649245E+01 -0.41814732795E+02  0.67368815471E+01  0.47787231261E+02  0.19999818612E+02 0.  0.
         12    1    1    2    0    0 -0.94746649245E+01  0.41814732795E+02 -0.67368815471E+01  0.43400768739E+02  0.00000000000E+00 0. -1.
         11    1    3    3    0    0  0.52633646228E+01 -0.16947684277E+02 -0.65000755477E+00  0.17758083218E+02  0.51100000000E-03 0. -1.
        -11    1    3    3    0    0  0.62981495532E+01 -0.24405460300E+02  0.33039655407E+01  0.25420648473E+02  0.51100000000E-03 0.  1.
         12    1    3    3    0    0 -0.20868492515E+01 -0.46158821803E+00  0.40829235611E+01  0.46084995701E+01  0.00000000000E+00 0. -1.
</event>
<event>
 7    1  0.2682317E-010  0.4778727E+02  0.7816164E-02  0.1312668E+00
        -11   -1    0    0    0    0  0.00000000000E+00  0.00000000000E+00  0.45593999997E+02  0.45594000000E+02  0.51100000000E-03 0. -1.
         11   -1    0    0    0    0 -0.00000000000E+00 -0.00000000000E+00 -0.45593999997E+02  0.45594000000E+02  0.51100000000E-03 0.  1.
    9900012    2    1    2    0    0  0.22434524742E+02 -0.36565609798E+02 -0.65780952319E+01  0.47787273541E+02  0.20000011383E+02 0.  0.
         12    1    1    2    0    0 -0.22434524742E+02  0.36565609798E+02  0.65780952319E+01  0.43400726459E+02  0.00000000000E+00 0. -1.
         11    1    3    3    0    0  0.74293428130E+00 -0.60646956117E+01 -0.66342125349E+01  0.90191607385E+01  0.51100000000E-03 0. -1.
        -11    1    3    3    0    0  0.47110463354E+01 -0.96772810393E+01 -0.42196496470E+01  0.11560673393E+02  0.51100000000E-03 0.  1.
        -12    1    3    3    0    0  0.16980544125E+02 -0.20823633147E+02  0.42757669499E+01  0.27207439410E+02  0.00000000000E+00 0.  1.
</event>
<event>
 7    1  0.2682317E-010  0.4778727E+02  0.7816164E-02  0.1312668E+00
        -11   -1    0    0    0    0  0.00000000000E+00  0.00000000000E+00  0.45593999997E+02  0.45594000000E+02  0.51100000000E-03 0.  1.
         11   -1    0    0    0    0 -0.00000000000E+00 -0.00000000000E+00 -0.45593999997E+02  0.45594000000E+02  0.51100000000E-03 0. -1.
    9900012    2    1    2    0    0 -0.90966458145E+01 -0.27190364789E+02  0.32581562029E+02  0.47787273201E+02  0.20000009831E+02 0.  0.
         12    1    1    2    0    0  0.90966458145E+01  0.27190364789E+02 -0.32581562029E+02  0.43400726799E+02  0.00000000000E+00 0. -1.
         11    1    3    3    0    0 -0.30401453262E+01 -0.12117810912E+02  0.99873564427E+01  0.15994721438E+02  0.51100000000E-03 0. -1.
        -11    1    3    3    0    0 -0.10912458148E+02 -0.10588085808E+02  0.12291286246E+02  0.19551598956E+02  0.51100000000E-03 0.  1.
         12    1    3    3    0    0  0.48559576601E+01 -0.44844680690E+01  0.10302919341E+02  0.12240952806E+02  0.00000000000E+00 0. -1.
</event>
<event>
 7    1  0.2682317E-010  0.4778727E+02  0.7816164E-02  0.1312668E+00
        -11   -1    0    0    0    0  0.00000000000E+00  0.00000000000E+00  0.45593999997E+02  0.45594000000E+02  0.51100000000E-03 0.  1.
         11   -1    0    0    0    0 -0.00000000000E+00 -0.00000000000E+00 -0.45593999997E+02  0.45594000000E+02  0.51100000000E-03 0. -1.
    9900012    2    1    2    0    0  0.20216365686E+02  0.33474338564E+02  0.18825259553E+02  0.47787272113E+02  0.20000004874E+02 0.  0.
         12    1    1    2    0    0 -0.20216365686E+02 -0.33474338564E+02 -0.18825259553E+02  0.43400727887E+02  0.00000000000E+00 0. -1.
         11    1    3    3    0    0  0.50548456793E+01  0.11636222540E+02  0.11003740723E+02  0.16793911099E+02  0.51100000000E-03 0. -1.
        -11    1    3    3    0    0  0.10904238116E+02  0.42518598976E+01  0.47937749908E+01  0.12647568952E+02  0.51100000000E-03 0.  1.
         12    1    3    3    0    0  0.42572818908E+01  0.17586256127E+02  0.30277438396E+01  0.18345792063E+02  0.00000000000E+00 0. -1.
</event>
<event>
 7    1  0.2682317E-010  0.4778728E+02  0.7816164E-02  0.1312668E+00
        -11   -1    0    0    0    0  0.00000000000E+00  0.00000000000E+00  0.45593999997E+02  0.45594000000E+02  0.51100000000E-03 0.  1.
         11   -1    0    0    0    0 -0.00000000000E+00 -0.00000000000E+00 -0.45593999997E+02  0.45594000000E+02  0.51100000000E-03 0. -1.
    9900012    2    1    2    0    0 -0.39181623205E+02 -0.12349046526E+01  0.18625192457E+02  0.47787281336E+02  0.20000046923E+02 0.  0.
         12    1    1    2    0    0  0.39181623205E+02  0.12349046526E+01 -0.18625192457E+02  0.43400718664E+02  0.00000000000E+00 0. -1.
         11    1    3    3    0    0 -0.31698019742E+01  0.21963799937E+01  0.32862745170E+00  0.38703650855E+01  0.51100000000E-03 0. -1.
        -11    1    3    3    0    0 -0.24096417973E+02 -0.10259448282E+02  0.11833985548E+02  0.28739117112E+02  0.51100000000E-03 0.  1.
         12    1    3    3    0    0 -0.11915403258E+02  0.68281636356E+01  0.64625794569E+01  0.15177799138E+02  0.00000000000E+00 0. -1.
</event>
<event>
 7    1  0.2682317E-010  0.4778728E+02  0.7816164E-02  0.1312668E+00
        -11   -1    0    0    0    0  0.00000000000E+00  0.00000000000E+00  0.45593999997E+02  0.45594000000E+02  0.51100000000E-03 0. -1.
         11   -1    0    0    0    0 -0.00000000000E+00 -0.00000000000E+00 -0.45593999997E+02  0.45594000000E+02  0.51100000000E-03 0.  1.
    9900012    2    1    2    0    0 -0.87217155808E+00 -0.41931322979E+02  0.11163598290E+02  0.47787280457E+02  0.20000042918E+02 0.  0.
         12    1    1    2    0    0  0.87217155808E+00  0.41931322979E+02 -0.11163598290E+02  0.43400719543E+02  0.00000000000E+00 0. -1.
         11    1    3    3    0    0  0.63063847480E+01 -0.21005799231E+02  0.62104685399E+01  0.22794385486E+02  0.51100000000E-03 0. -1.
        -11    1    3    3    0    0  0.17222255665E+01 -0.90367348463E+01 -0.39480556455E+00  0.92078504158E+01  0.51100000000E-03 0.  1.
         12    1    3    3    0    0 -0.89007818725E+01 -0.11888788902E+02  0.53479353148E+01  0.15785044556E+02  0.00000000000E+00 0. -1.
</event>
<event>
 7    1  0.2682317E-010  0.4778727E+02  0.7816164E-02  0.1312668E+00
        -11   -1    0    0    0    0  0.00000000000E+00  0.00000000000E+00  0.45593999997E+02  0.45594000000E+02  0.51100000000E-03 0.  1.
         11   -1    0    0    0    0 -0.00000000000E+00 -0.00000000000E+00 -0.45593999997E+02  0.45594000000E+02  0.51100000000E-03 0. -1.
    9900012    2    1    2    0    0  0.30029106637E+02 -0.49021862044E+01  0.30949067939E+02  0.47787268655E+02  0.19999989106E+02 0.  0.
         12    1    1    2    0    0 -0.30029106637E+02  0.49021862044E+01 -0.30949067939E+02  0.43400731345E+02  0.00000000000E+00 0. -1.
         11    1    3    3    0    0  0.28490441969E+01 -0.41586227502E+01  0.18331549007E+01  0.53639214355E+01  0.51100000000E-03 0. -1.
        -11    1    3    3    0    0  0.63900731074E+01 -0.66607465997E+01  0.91744071945E+01  0.13014158721E+02  0.51100000000E-03 0.  1.
        -12    1    3    3    0    0  0.20789989333E+02  0.59171831456E+01  0.19941505844E+02  0.29409188499E+02  0.00000000000E+00 0.  1.
</event>
<event>
 7    1  0.2682317E-010  0.4778727E+02  0.7816164E-02  0.1312668E+00
        -11   -1    0    0    0    0  0.00000000000E+00  0.00000000000E+00  0.45593999997E+02  0.45594000000E+02  0.51100000000E-03 0. -1.
         11   -1    0    0    0    0 -0.00000000000E+00 -0.00000000000E+00 -0.45593999997E+02  0.45594000000E+02  0.51100000000E-03 0.  1.
    9900012    2    1    2    0    0  0.99208384081E+01 -0.41852116510E+02  0.57965866142E+01  0.47787272962E+02  0.20000008743E+02 0.  0.
         12    1    1    2    0    0 -0.99208384081E+01  0.41852116510E+02 -0.57965866142E+01  0.43400727038E+02  0.00000000000E+00 0. -1.
         11    1    3    3    0    0  0.28514084315E+01 -0.30607447369E+01 -0.42360498121E+00  0.42045368150E+01  0.51100000000E-03 0. -1.
        -11    1    3    3    0    0  0.12635238306E+02 -0.30034865125E+02  0.30164932293E+01  0.32723716198E+02  0.51100000000E-03 0.  1.
         12    1    3    3    0    0 -0.55658083297E+01 -0.87565066477E+01  0.32036983661E+01  0.10859019949E+02  0.00000000000E+00 0. -1.
</event>
<event>
 7    1  0.2682317E-010  0.4778727E+02  0.7816164E-02  0.1312668E+00
        -11   -1    0    0    0    0  0.00000000000E+00  0.00000000000E+00  0.45593999997E+02  0.45594000000E+02  0.51100000000E-03 0. -1.
         11   -1    0    0    0    0 -0.00000000000E+00 -0.00000000000E+00 -0.45593999997E+02  0.45594000000E+02  0.51100000000E-03 0.  1.
    9900012    2    1    2    0    0  0.14134466984E+02 -0.12438591252E+02 -0.39103983218E+02  0.47787271748E+02  0.20000003209E+02 0.  0.
         12    1    1    2    0    0 -0.14134466984E+02  0.12438591252E+02  0.39103983218E+02  0.43400728252E+02  0.00000000000E+00 0. -1.
         11    1    3    3    0    0  0.55426879695E+01 -0.32338253207E+01 -0.21608909563E+02  0.22541605730E+02  0.51100000000E-03 0. -1.
        -11    1    3    3    0    0  0.88338808942E+01 -0.11305747716E+02 -0.18051386907E+02  0.23058836757E+02  0.51100000000E-03 0.  1.
         12    1    3    3    0    0 -0.24210187971E+00  0.21009817846E+01  0.55631325231E+00  0.21868292604E+01  0.00000000000E+00 0. -1.
</event>
<event>
 7    1  0.2682317E-010  0.4778727E+02  0.7816164E-02  0.1312668E+00
        -11   -1    0    0    0    0  0.00000000000E+00  0.00000000000E+00  0.45593999997E+02  0.45594000000E+02  0.51100000000E-03 0.  1.
         11   -1    0    0    0    0 -0.00000000000E+00 -0.00000000000E+00 -0.45593999997E+02  0.45594000000E+02  0.51100000000E-03 0. -1.
    9900012    2    1    2    0    0 -0.42990821788E+02 -0.58849395508E+01  0.88317662998E+00  0.47787271060E+02  0.20000000071E+02 0.  0.
         12    1    1    2    0    0  0.42990821788E+02  0.58849395508E+01 -0.88317662998E+00  0.43400728940E+02  0.00000000000E+00 0. -1.
         11    1    3    3    0    0 -0.86153649555E+01 -0.50743819894E+01  0.38798721682E+01  0.10725076885E+02  0.51100000000E-03 0. -1.
        -11    1    3    3    0    0 -0.27343014877E+02 -0.60058052443E+01 -0.62040379044E+00  0.28001697455E+02  0.51100000000E-03 0.  1.
         12    1    3    3    0    0 -0.70324419556E+01  0.51952476829E+01 -0.23762917478E+01  0.90604967202E+01  0.00000000000E+00 0. -1.
</event>
<event>
 7    1  0.2682317E-010  0.4778727E+02  0.7816164E-02  0.1312668E+00
        -11   -1    0    0    0    0  0.00000000000E+00  0.00000000000E+00  0.45593999997E+02  0.45594000000E+02  0.51100000000E-03 0.  1.
         11   -1    0    0    0    0 -0.00000000000E+00 -0.00000000000E+00 -0.45593999997E+02  0.45594000000E+02  0.51100000000E-03 0. -1.
    9900012    2    1    2    0    0  0.35460937197E+02 -0.18171236114E+02  0.17203238430E+02  0.47787270729E+02  0.19999998562E+02 0.  0.
         12    1    1    2    0    0 -0.35460937197E+02  0.18171236114E+02 -0.17203238430E+02  0.43400729271E+02  0.00000000000E+00 0. -1.
         11    1    3    3    0    0  0.19168083126E+02 -0.68589980529E+01  0.14990929280E+02  0.25282191874E+02  0.51100000000E-03 0. -1.
        -11    1    3    3    0    0  0.90489824471E+01 -0.18711195220E+00  0.17682836291E+01  0.92220345621E+01  0.51100000000E-03 0.  1.
         12    1    3    3    0    0  0.72438716236E+01 -0.11125126109E+02  0.44402552174E+00  0.13283044293E+02  0.00000000000E+00 0. -1.
</event>
<event>
 7    1  0.2682317E-010  0.4778728E+02  0.7816164E-02  0.1312668E+00
        -11   -1    0    0    0    0  0.00000000000E+00  0.00000000000E+00  0.45593999997E+02  0.45594000000E+02  0.51100000000E-03 0. -1.
         11   -1    0    0    0    0 -0.00000000000E+00 -0.00000000000E+00 -0.45593999997E+02  0.45594000000E+02  0.51100000000E-03 0.  1.
    9900012    2    1    2    0    0 -0.85170728718E+01  0.42467565219E+02 -0.27546702621E+01  0.47787276110E+02  0.20000023095E+02 0.  0.
         12    1    1    2    0    0  0.85170728718E+01 -0.42467565219E+02  0.27546702621E+01  0.43400723890E+02  0.00000000000E+00 0. -1.
         11    1    3    3    0    0 -0.78718276393E+01  0.21376361665E+02  0.57784492915E+01  0.23501169862E+02  0.51100000000E-03 0. -1.
        -11    1    3    3    0    0  0.82552575345E+00  0.77766338844E+01  0.94394945744E+00  0.78770913528E+01  0.51100000000E-03 0.  1.
        -12    1    3    3    0    0 -0.14707709859E+01  0.13314569670E+02 -0.94770690111E+01  0.16409014895E+02  0.00000000000E+00 0.  1.
</event>
<event>
 7    1  0.2682317E-010  0.4778727E+02  0.7816164E-02  0.1312668E+00
        -11   -1    0    0    0    0  0.00000000000E+00  0.00000000000E+00  0.45593999997E+02  0.45594000000E+02  0.51100000000E-03 0.  1.
         11   -1    0    0    0    0 -0.00000000000E+00 -0.00000000000E+00 -0.45593999997E+02  0.45594000000E+02  0.51100000000E-03 0. -1.
    9900012    2    1    2    0    0  0.32327385464E+02  0.26870539995E+01  0.28833020244E+02  0.47787272281E+02  0.20000005636E+02 0.  0.
         12    1    1    2    0    0 -0.32327385464E+02 -0.26870539995E+01 -0.28833020244E+02  0.43400727719E+02  0.00000000000E+00 0. -1.
         11    1    3    3    0    0  0.30026415543E+01 -0.33568804556E+01  0.10165519134E+01  0.46171290594E+01  0.51100000000E-03 0. -1.
        -11    1    3    3    0    0  0.37701576547E+01  0.21113206998E+01  0.12251447722E+02  0.12991140650E+02  0.51100000000E-03 0.  1.
        -12    1    3    3    0    0  0.25554586256E+02  0.39326137554E+01  0.15565020609E+02  0.30179002571E+02  0.00000000000E+00 0.  1.
</event>
<event>
 7    1  0.2682317E-010  0.4778727E+02  0.7816164E-02  0.1312668E+00
        -11   -1    0    0    0    0  0.00000000000E+00  0.00000000000E+00  0.45593999997E+02  0.45594000000E+02  0.51100000000E-03 0.  1.
         11   -1    0    0    0    0 -0.00000000000E+00 -0.00000000000E+00 -0.45593999997E+02  0.45594000000E+02  0.51100000000E-03 0. -1.
    9900012    2    1    2    0    0  0.19992076752E+02  0.26540766348E+02  0.27920021506E+02  0.47787274061E+02  0.20000013752E+02 0.  0.
         12    1    1    2    0    0 -0.19992076752E+02 -0.26540766348E+02 -0.27920021506E+02  0.43400725939E+02  0.00000000000E+00 0. -1.
         11    1    3    3    0    0  0.10206757477E+02  0.21320673270E+02  0.85582196967E+01  0.25139453684E+02  0.51100000000E-03 0. -1.
        -11    1    3    3    0    0  0.35933090760E+01  0.32875051246E+01  0.55192010410E+01  0.73607839563E+01  0.51100000000E-03 0.  1.
        -12    1    3    3    0    0  0.61920101989E+01  0.19325879532E+01  0.13842600768E+02  0.15287036421E+02  0.00000000000E+00 0.  1.
</event>
<event>
 7    1  0.2682317E-010  0.4778727E+02  0.7816164E-02  0.1312668E+00
        -11   -1    0    0    0    0  0.00000000000E+00  0.00000000000E+00  0.45593999997E+02  0.45594000000E+02  0.51100000000E-03 0.  1.
         11   -1    0    0    0    0 -0.00000000000E+00 -0.00000000000E+00 -0.45593999997E+02  0.45594000000E+02  0.51100000000E-03 0. -1.
    9900012    2    1    2    0    0 -0.29689787962E+02  0.14958329929E+02  0.27899607971E+02  0.47787271107E+02  0.20000000287E+02 0.  0.
         12    1    1    2    0    0  0.29689787962E+02 -0.14958329929E+02 -0.27899607971E+02  0.43400728893E+02  0.00000000000E+00 0. -1.
         11    1    3    3    0    0 -0.76229360936E+01  0.52456361220E+01  0.26061732272E+01  0.96134277010E+01  0.51100000000E-03 0. -1.
        -11    1    3    3    0    0 -0.13110876883E+02 -0.25199986180E+01  0.10423751190E+02  0.16938124891E+02  0.51100000000E-03 0.  1.
        -12    1    3    3    0    0 -0.89559749849E+01  0.12232692425E+02  0.14869683554E+02  0.21235718516E+02  0.00000000000E+00 0.  1.
</event>
<event>
 7    1  0.2682317E-010  0.4778727E+02  0.7816164E-02  0.1312668E+00
        -11   -1    0    0    0    0  0.00000000000E+00  0.00000000000E+00  0.45593999997E+02  0.45594000000E+02  0.51100000000E-03 0.  1.
         11   -1    0    0    0    0 -0.00000000000E+00 -0.00000000000E+00 -0.45593999997E+02  0.45594000000E+02  0.51100000000E-03 0. -1.
    9900012    2    1    2    0    0 -0.28437725652E+02  0.24552002649E+02  0.21728277641E+02  0.47787272776E+02  0.20000007896E+02 0.  0.
         12    1    1    2    0    0  0.28437725652E+02 -0.24552002649E+02 -0.21728277641E+02  0.43400727224E+02  0.00000000000E+00 0. -1.
         11    1    3    3    0    0 -0.14517218172E+02  0.10410315354E+02  0.79976461593E+01  0.19572599050E+02  0.51100000000E-03 0. -1.
        -11    1    3    3    0    0 -0.95735380715E+01  0.15350152045E+02  0.15029652177E+02  0.23519571506E+02  0.51100000000E-03 0.  1.
        -12    1    3    3    0    0 -0.43469694084E+01 -0.12084647502E+01 -0.12990206957E+01  0.46951022201E+01  0.00000000000E+00 0.  1.
</event>
<event>
 7    1  0.2682317E-010  0.4778727E+02  0.7816164E-02  0.1312668E+00
        -11   -1    0    0    0    0  0.00000000000E+00  0.00000000000E+00  0.45593999997E+02  0.45594000000E+02  0.51100000000E-03 0. -1.
         11   -1    0    0    0    0 -0.00000000000E+00 -0.00000000000E+00 -0.45593999997E+02  0.45594000000E+02  0.51100000000E-03 0.  1.
    9900012    2    1    2    0    0  0.40881317986E+02 -0.12116683563E+02 -0.80948875303E+01  0.47787269765E+02  0.19999994165E+02 0.  0.
         12    1    1    2    0    0 -0.40881317986E+02  0.12116683563E+02  0.80948875303E+01  0.43400730235E+02  0.00000000000E+00 0. -1.
         11    1    3    3    0    0  0.19119716579E+02 -0.67074528537E+01 -0.78620976276E+01  0.21733984108E+02  0.51100000000E-03 0. -1.
        -11    1    3    3    0    0  0.12263001855E+01 -0.42675840876E+01 -0.29157277280E+01  0.53120198168E+01  0.51100000000E-03 0.  1.
         12    1    3    3    0    0  0.20535301221E+02 -0.11416466221E+01  0.26829378252E+01  0.20741265840E+02  0.00000000000E+00 0. -1.
</event>
<event>
 7    1  0.2682317E-010  0.4778727E+02  0.7816164E-02  0.1312668E+00
        -11   -1    0    0    0    0  0.00000000000E+00  0.00000000000E+00  0.45593999997E+02  0.45594000000E+02  0.51100000000E-03 0. -1.
         11   -1    0    0    0    0 -0.00000000000E+00 -0.00000000000E+00 -0.45593999997E+02  0.45594000000E+02  0.51100000000E-03 0.  1.
    9900012    2    1    2    0    0 -0.37622537978E+02 -0.18595614430E+02 -0.11062142415E+02  0.47787271495E+02  0.20000002055E+02 0.  0.
         12    1    1    2    0    0  0.37622537978E+02  0.18595614430E+02  0.11062142415E+02  0.43400728505E+02  0.00000000000E+00 0. -1.
         11    1    3    3    0    0  0.11697990487E+00 -0.21087299862E+01 -0.90509256336E+00  0.22977422097E+01  0.51100000000E-03 0. -1.
        -11    1    3    3    0    0 -0.14913531837E+02 -0.14516886455E+02 -0.10618972317E+01  0.20839410985E+02  0.51100000000E-03 0.  1.
         12    1    3    3    0    0 -0.22825986046E+02 -0.19699979886E+01 -0.90951526197E+01  0.24650118300E+02  0.00000000000E+00 0. -1.
</event>
<event>
 7    1  0.2682317E-010  0.4778727E+02  0.7816164E-02  0.1312668E+00
        -11   -1    0    0    0    0  0.00000000000E+00  0.00000000000E+00  0.45593999997E+02  0.45594000000E+02  0.51100000000E-03 0. -1.
         11   -1    0    0    0    0 -0.00000000000E+00 -0.00000000000E+00 -0.45593999997E+02  0.45594000000E+02  0.51100000000E-03 0.  1.
    9900012    2    1    2    0    0 -0.71282659192E+01  0.36893295293E+01 -0.42652078175E+02  0.47787273047E+02  0.20000009129E+02 0.  0.
         12    1    1    2    0    0  0.71282659192E+01 -0.36893295293E+01  0.42652078175E+02  0.43400726953E+02  0.00000000000E+00 0. -1.
         11    1    3    3    0    0 -0.22968304122E+01  0.36139802103E+01 -0.84367246021E+01  0.94612158403E+01  0.51100000000E-03 0. -1.
        -11    1    3    3    0    0 -0.10894052343E+02 -0.44360866986E+00 -0.18500343194E+02  0.21474167356E+02  0.51100000000E-03 0.  1.
         12    1    3    3    0    0  0.60626168359E+01  0.51895798885E+00 -0.15715010379E+02  0.16851889850E+02  0.00000000000E+00 0. -1.
</event>
<event>
 7    1  0.2682317E-010  0.4778728E+02  0.7816164E-02  0.1312668E+00
        -11   -1    0    0    0    0  0.00000000000E+00  0.00000000000E+00  0.45593999997E+02  0.45594000000E+02  0.51100000000E-03 0.  1.
         11   -1    0    0    0    0 -0.00000000000E+00 -0.00000000000E+00 -0.45593999997E+02  0.45594000000E+02  0.51100000000E-03 0. -1.
    9900012    2    1    2    0    0 -0.18425008220E+02  0.26757988420E+02  0.28777626936E+02  0.47787277837E+02  0.20000030971E+02 0.  0.
         12    1    1    2    0    0  0.18425008220E+02 -0.26757988420E+02 -0.28777626936E+02  0.43400722163E+02  0.00000000000E+00 0. -1.
         11    1    3    3    0    0 -0.23917828968E+01  0.33539470928E+01 -0.55369861178E+00  0.41564611078E+01  0.51100000000E-03 0. -1.
        -11    1    3    3    0    0 -0.46365504445E+00  0.49098358581E+01 -0.80404472884E+00  0.49967942064E+01  0.51100000000E-03 0.  1.
        -12    1    3    3    0    0 -0.15569570279E+02  0.18494205469E+02  0.30135370277E+02  0.38634022523E+02  0.00000000000E+00 0.  1.
</event>
<event>
 7    1  0.2682317E-010  0.4778726E+02  0.7816164E-02  0.1312668E+00
        -11   -1    0    0    0    0  0.00000000000E+00  0.00000000000E+00  0.45593999997E+02  0.45594000000E+02  0.51100000000E-03 0.  1.
         11   -1    0    0    0    0 -0.00000000000E+00 -0.00000000000E+00 -0.45593999997E+02  0.45594000000E+02  0.51100000000E-03 0. -1.
    9900012    2    1    2    0    0 -0.15801162284E+02  0.21624432420E+01  0.40364231275E+02  0.47787262026E+02  0.19999958880E+02 0.  0.
         12    1    1    2    0    0  0.15801162284E+02 -0.21624432420E+01 -0.40364231275E+02  0.43400737974E+02  0.00000000000E+00 0. -1.
         11    1    3    3    0    0 -0.25643253637E+01  0.61902485408E+01  0.50632676959E+01  0.83983106390E+01  0.51100000000E-03 0. -1.
        -11    1    3    3    0    0 -0.99935223273E+01 -0.23911002795E+00  0.12281889434E+02  0.15835797121E+02  0.51100000000E-03 0.  1.
        -12    1    3    3    0    0 -0.32433145930E+01 -0.37886952708E+01  0.23019074145E+02  0.23553154266E+02  0.00000000000E+00 0.  1.
</event>
<event>
 7    1  0.2682317E-010  0.4778725E+02  0.7816164E-02  0.1312668E+00
        -11   -1    0    0    0    0  0.00000000000E+00  0.00000000000E+00  0.45593999997E+02  0.45594000000E+02  0.51100000000E-03 0.  1.
         11   -1    0    0    0    0 -0.00000000000E+00 -0.00000000000E+00 -0.45593999997E+02  0.45594000000E+02  0.51100000000E-03 0. -1.
    9900012    2    1    2    0    0 -0.36069963016E+01 -0.40218791063E+01  0.43063197071E+02  0.47787252589E+02  0.19999915856E+02 0.  0.
         12    1    1    2    0    0  0.36069963016E+01  0.40218791063E+01 -0.43063197071E+02  0.43400747411E+02  0.00000000000E+00 0. -1.
         11    1    3    3    0    0  0.80811252588E+00 -0.29653533303E+01  0.18150123265E+00  0.30788486788E+01  0.51100000000E-03 0. -1.
        -11    1    3    3    0    0 -0.34862347673E+01  0.69369808661E+00  0.26643467234E+01  0.44422734733E+01  0.51100000000E-03 0.  1.
        -12    1    3    3    0    0 -0.92887406020E+00 -0.17502238625E+01  0.40217349115E+02  0.40266130437E+02  0.00000000000E+00 0.  1.
</event>
<event>
 7    1  0.2682317E-010  0.4778727E+02  0.7816164E-02  0.1312668E+00
        -11   -1    0    0    0    0  0.00000000000E+00  0.00000000000E+00  0.45593999997E+02  0.45594000000E+02  0.51100000000E-03 0.  1.
         11   -1    0    0    0    0 -0.00000000000E+00 -0.00000000000E+00 -0.45593999997E+02  0.45594000000E+02  0.51100000000E-03 0. -1.
    9900012    2    1    2    0    0 -0.30767562715E+02 -0.24023321576E+02  0.18969986126E+02  0.47787271106E+02  0.20000000279E+02 0.  0.
         12    1    1    2    0    0  0.30767562715E+02  0.24023321576E+02 -0.18969986126E+02  0.43400728894E+02  0.00000000000E+00 0. -1.
         11    1    3    3    0    0 -0.12916877967E+02 -0.14255165982E+01  0.88813006226E+01  0.15740245709E+02  0.51100000000E-03 0. -1.
        -11    1    3    3    0    0 -0.56319176090E+01 -0.12754772204E+01  0.27744361899E+01  0.64064681788E+01  0.51100000000E-03 0.  1.
        -12    1    3    3    0    0 -0.12218767139E+02 -0.21322327758E+02  0.73142493135E+01  0.25640557217E+02  0.00000000000E+00 0.  1.
</event>
<event>
 7    1  0.2682317E-010  0.4778727E+02  0.7816164E-02  0.1312668E+00
        -11   -1    0    0    0    0  0.00000000000E+00  0.00000000000E+00  0.45593999997E+02  0.45594000000E+02  0.51100000000E-03 0. -1.
         11   -1    0    0    0    0 -0.00000000000E+00 -0.00000000000E+00 -0.45593999997E+02  0.45594000000E+02  0.51100000000E-03 0.  1.
    9900012    2    1    2    0    0  0.70208271160E+01  0.36198380065E+02  0.22891238290E+02  0.47787268172E+02  0.19999986905E+02 0.  0.
         12    1    1    2    0    0 -0.70208271160E+01 -0.36198380065E+02 -0.22891238290E+02  0.43400731828E+02  0.00000000000E+00 0. -1.
         11    1    3    3    0    0  0.68606673124E+01  0.80646427405E+01  0.91659112540E+01  0.14004326042E+02  0.51100000000E-03 0. -1.
        -11    1    3    3    0    0  0.50252152477E+01  0.20476835685E+02  0.61468272283E+01  0.21962173690E+02  0.51100000000E-03 0.  1.
         12    1    3    3    0    0 -0.48650554441E+01  0.76569016397E+01  0.75784998081E+01  0.11820768441E+02  0.00000000000E+00 0. -1.
</event>
<event>
 7    1  0.2682317E-010  0.4778728E+02  0.7816164E-02  0.1312668E+00
        -11   -1    0    0    0    0  0.00000000000E+00  0.00000000000E+00  0.45593999997E+02  0.45594000000E+02  0.51100000000E-03 0.  1.
         11   -1    0    0    0    0 -0.00000000000E+00 -0.00000000000E+00 -0.45593999997E+02  0.45594000000E+02  0.51100000000E-03 0. -1.
    9900012    2    1    2    0    0 -0.29625762164E+02  0.28259403737E+02  0.14399411306E+02  0.47787277318E+02  0.20000028603E+02 0.  0.
         12    1    1    2    0    0  0.29625762164E+02 -0.28259403737E+02 -0.14399411306E+02  0.43400722682E+02  0.00000000000E+00 0. -1.
         11    1    3    3    0    0 -0.63894568174E+00  0.63693500747E+01  0.14995928121E+01  0.65746217246E+01  0.51100000000E-03 0. -1.
        -11    1    3    3    0    0 -0.11316236281E+02  0.17317824686E+02  0.47626119001E+01  0.21228441484E+02  0.51100000000E-03 0.  1.
        -12    1    3    3    0    0 -0.17670580200E+02  0.45722289761E+01  0.81372065943E+01  0.19984214110E+02  0.00000000000E+00 0.  1.
</event>
<event>
 7    1  0.2682317E-010  0.4778726E+02  0.7816164E-02  0.1312668E+00
        -11   -1    0    0    0    0  0.00000000000E+00  0.00000000000E+00  0.45593999997E+02  0.45594000000E+02  0.51100000000E-03 0.  1.
         11   -1    0    0    0    0 -0.00000000000E+00 -0.00000000000E+00 -0.45593999997E+02  0.45594000000E+02  0.51100000000E-03 0. -1.
    9900012    2    1    2    0    0 -0.26103511083E+02 -0.15471200098E+02  0.31030192694E+02  0.47787260583E+02  0.19999952302E+02 0.  0.
         12    1    1    2    0    0  0.26103511083E+02  0.15471200098E+02 -0.31030192694E+02  0.43400739417E+02  0.00000000000E+00 0. -1.
         11    1    3    3    0    0 -0.73145625828E+01  0.65632420568E+00  0.17812367957E+02  0.19266915678E+02  0.51100000000E-03 0. -1.
        -11    1    3    3    0    0 -0.76374175185E+01 -0.97970290064E+01  0.71651369735E+01  0.14340540848E+02  0.51100000000E-03 0.  1.
        -12    1    3    3    0    0 -0.11151530982E+02 -0.63304952969E+01  0.60526877635E+01  0.14179804057E+02  0.00000000000E+00 0.  1.
</event>
<event>
 7    1  0.2682317E-010  0.4778727E+02  0.7816164E-02  0.1312668E+00
        -11   -1    0    0    0    0  0.00000000000E+00  0.00000000000E+00  0.45593999997E+02  0.45594000000E+02  0.51100000000E-03 0.  1.
         11   -1    0    0    0    0 -0.00000000000E+00 -0.00000000000E+00 -0.45593999997E+02  0.45594000000E+02  0.51100000000E-03 0. -1.
    9900012    2    1    2    0    0  0.92141197634E+01 -0.41861944596E+02 -0.68044832306E+01  0.47787269587E+02  0.19999993355E+02 0.  0.
         12    1    1    2    0    0 -0.92141197634E+01  0.41861944596E+02  0.68044832306E+01  0.43400730413E+02  0.00000000000E+00 0. -1.
         11    1    3    3    0    0 -0.80396737716E+00 -0.42382406507E+01  0.17080712028E+01  0.46396718474E+01  0.51100000000E-03 0. -1.
        -11    1    3    3    0    0 -0.43896849550E+01 -0.12030114535E+02 -0.10801150320E+01  0.12851444996E+02  0.51100000000E-03 0.  1.
         12    1    3    3    0    0  0.14407772096E+02 -0.25593589410E+02 -0.74324394014E+01  0.30296152744E+02  0.00000000000E+00 0. -1.
</event>
<event>
 7    1 -0.2682317E-010  0.4778727E+02  0.7816164E-02  0.1312668E+00
        -11   -1    0    0    0    0  0.00000000000E+00  0.00000000000E+00  0.45593999997E+02  0.45594000000E+02  0.51100000000E-03 0. -1.
         11   -1    0    0    0    0 -0.00000000000E+00 -0.00000000000E+00 -0.45593999997E+02  0.45594000000E+02  0.51100000000E-03 0.  1.
    9900012    2    1    2    0    0  0.34137844301E+02  0.53042495125E+01 -0.26269676700E+02  0.47787269702E+02  0.19999993880E+02 0.  0.
         12    1    1    2    0    0 -0.34137844301E+02 -0.53042495125E+01  0.26269676700E+02  0.43400730298E+02  0.00000000000E+00 0. -1.
         11    1    3    3    0    0  0.11070590369E+02  0.25017870165E+01 -0.32966413839E+01  0.11818830486E+02  0.51100000000E-03 0. -1.
        -11    1    3    3    0    0  0.17173112607E+02 -0.50063704814E+01 -0.14537321317E+02  0.23050233261E+02  0.51100000000E-03 0.  1.
        -12    1    3    3    0    0  0.58941413256E+01  0.78088329774E+01 -0.84357139991E+01  0.12918205956E+02  0.00000000000E+00 0.  1.
</event>
<event>
 7    1  0.2682317E-010  0.4778727E+02  0.7816164E-02  0.1312668E+00
        -11   -1    0    0    0    0  0.00000000000E+00  0.00000000000E+00  0.45593999997E+02  0.45594000000E+02  0.51100000000E-03 0.  1.
         11   -1    0    0    0    0 -0.00000000000E+00 -0.00000000000E+00 -0.45593999997E+02  0.45594000000E+02  0.51100000000E-03 0. -1.
    9900012    2    1    2    0    0  0.32247754989E+01  0.26967880578E+02  0.33851993982E+02  0.47787271246E+02  0.20000000918E+02 0.  0.
         12    1    1    2    0    0 -0.32247754989E+01 -0.26967880578E+02 -0.33851993982E+02  0.43400728754E+02  0.00000000000E+00 0. -1.
         11    1    3    3    0    0 -0.19787802320E+01  0.44931385418E+01  0.26851101491E+01  0.55958629305E+01  0.51100000000E-03 0.  1.
        -11    1    3    3    0    0  0.57415127968E+00  0.59488382970E+01 -0.67956323171E+00  0.60149923709E+01  0.51100000000E-03 0. -1.
        -12    1    3    3    0    0  0.46294044513E+01  0.16525903739E+02  0.31846447064E+02  0.36176415944E+02  0.00000000000E+00 0.  1.
</event>
<event>
 7    1  0.2682317E-010  0.4778726E+02  0.7816164E-02  0.1312668E+00
        -11   -1    0    0    0    0  0.00000000000E+00  0.00000000000E+00  0.45593999997E+02  0.45594000000E+02  0.51100000000E-03 0.  1.
         11   -1    0    0    0    0 -0.00000000000E+00 -0.00000000000E+00 -0.45593999997E+02  0.45594000000E+02  0.51100000000E-03 0. -1.
    9900012    2    1    2    0    0 -0.12273232420E+01  0.84175462025E+01  0.42558931021E+02  0.47787262494E+02  0.19999961016E+02 0.  0.
         12    1    1    2    0    0  0.12273232420E+01 -0.84175462025E+01 -0.42558931021E+02  0.43400737506E+02  0.00000000000E+00 0. -1.
         11    1    3    3    0    0 -0.74062281283E+00  0.27612140392E+01  0.19157299492E+00  0.28652269709E+01  0.51100000000E-03 0. -1.
        -11    1    3    3    0    0  0.35747147552E+01  0.61199953103E+01  0.97736743778E+01  0.12073012850E+02  0.51100000000E-03 0.  1.
         12    1    3    3    0    0 -0.40614151844E+01 -0.46366314701E+00  0.32593683648E+02  0.32849022673E+02  0.00000000000E+00 0. -1.
</event>
<event>
 7    1  0.2682317E-010  0.4778727E+02  0.7816164E-02  0.1312668E+00
        -11   -1    0    0    0    0  0.00000000000E+00  0.00000000000E+00  0.45593999997E+02  0.45594000000E+02  0.51100000000E-03 0.  1.
         11   -1    0    0    0    0 -0.00000000000E+00 -0.00000000000E+00 -0.45593999997E+02  0.45594000000E+02  0.51100000000E-03 0. -1.
    9900012    2    1    2    0    0 -0.34893225407E+02 -0.24972533812E+02  0.65160337149E+01  0.47787270517E+02  0.19999997596E+02 0.  0.
         12    1    1    2    0    0  0.34893225407E+02  0.24972533812E+02 -0.65160337149E+01  0.43400729483E+02  0.00000000000E+00 0. -1.
         11    1    3    3    0    0 -0.10006284286E+02  0.16001115896E+01  0.17067111187E+01  0.10276134751E+02  0.51100000000E-03 0. -1.
        -11    1    3    3    0    0 -0.70201048202E+01 -0.37827850251E+01  0.29154567456E+01  0.84906550118E+01  0.51100000000E-03 0.  1.
        -12    1    3    3    0    0 -0.17866836301E+02 -0.22789860376E+02  0.18938658506E+01  0.29020480755E+02  0.00000000000E+00 0.  1.
</event>
<event>
 7    1  0.2682317E-010  0.4778727E+02  0.7816164E-02  0.1312668E+00
        -11   -1    0    0    0    0  0.00000000000E+00  0.00000000000E+00  0.45593999997E+02  0.45594000000E+02  0.51100000000E-03 0.  1.
         11   -1    0    0    0    0 -0.00000000000E+00 -0.00000000000E+00 -0.45593999997E+02  0.45594000000E+02  0.51100000000E-03 0. -1.
    9900012    2    1    2    0    0  0.32072337563E+02 -0.28819825842E+02 -0.49402630242E+01  0.47787269625E+02  0.19999993530E+02 0.  0.
         12    1    1    2    0    0 -0.32072337563E+02  0.28819825842E+02  0.49402630242E+01  0.43400730375E+02  0.00000000000E+00 0. -1.
         11    1    3    3    0    0 -0.40088936716E+00 -0.15442087996E+00  0.76575076540E+00  0.87802766967E+00  0.51100000000E-03 0. -1.
        -11    1    3    3    0    0  0.22060532523E+02 -0.28629113032E+02 -0.47291672383E+01  0.36450764480E+02  0.51100000000E-03 0.  1.
        -12    1    3    3    0    0  0.10412694407E+02 -0.36291930513E-01 -0.97684655128E+00  0.10458477476E+02  0.00000000000E+00 0.  1.
</event>
<event>
 7    1  0.2682317E-010  0.4778727E+02  0.7816164E-02  0.1312668E+00
        -11   -1    0    0    0    0  0.00000000000E+00  0.00000000000E+00  0.45593999997E+02  0.45594000000E+02  0.51100000000E-03 0.  1.
         11   -1    0    0    0    0 -0.00000000000E+00 -0.00000000000E+00 -0.45593999997E+02  0.45594000000E+02  0.51100000000E-03 0. -1.
    9900012    2    1    2    0    0 -0.21509499487E+02  0.37490973830E+02  0.39231887435E+01  0.47787273084E+02  0.20000009299E+02 0.  0.
         12    1    1    2    0    0  0.21509499487E+02 -0.37490973830E+02 -0.39231887435E+01  0.43400726916E+02  0.00000000000E+00 0. -1.
         11    1    3    3    0    0 -0.51493380511E+01  0.76928068304E+01  0.43020227896E+01  0.10207955703E+02  0.51100000000E-03 0. -1.
        -11    1    3    3    0    0 -0.15510863798E+02  0.30703874418E+02 -0.31494468498E+01  0.34543216639E+02  0.51100000000E-03 0.  1.
         12    1    3    3    0    0 -0.84929763784E+00 -0.90570741833E+00  0.27706128037E+01  0.30361007416E+01  0.00000000000E+00 0. -1.
</event>
<event>
 7    1  0.2682317E-010  0.4778727E+02  0.7816164E-02  0.1312668E+00
        -11   -1    0    0    0    0  0.00000000000E+00  0.00000000000E+00  0.45593999997E+02  0.45594000000E+02  0.51100000000E-03 0.  1.
         11   -1    0    0    0    0 -0.00000000000E+00 -0.00000000000E+00 -0.45593999997E+02  0.45594000000E+02  0.51100000000E-03 0. -1.
    9900012    2    1    2    0    0 -0.27921574567E+02 -0.21853142047E+02  0.25028961283E+02  0.47787273663E+02  0.20000011940E+02 0.  0.
         12    1    1    2    0    0  0.27921574567E+02  0.21853142047E+02 -0.25028961283E+02  0.43400726337E+02  0.00000000000E+00 0. -1.
         11    1    3    3    0    0 -0.20176433332E+01  0.25099758803E+01  0.27763332081E+01  0.42519277843E+01  0.51100000000E-03 0. -1.
        -11    1    3    3    0    0 -0.10192800895E+02 -0.16946433587E+02  0.14436309440E+02  0.24484318082E+02  0.51100000000E-03 0.  1.
         12    1    3    3    0    0 -0.15711130339E+02 -0.74166843396E+01  0.78163186356E+01  0.19051027797E+02  0.00000000000E+00 0. -1.
</event>
<event>
 7    1  0.2682317E-010  0.4778727E+02  0.7816164E-02  0.1312668E+00
        -11   -1    0    0    0    0  0.00000000000E+00  0.00000000000E+00  0.45593999997E+02  0.45594000000E+02  0.51100000000E-03 0.  1.
         11   -1    0    0    0    0 -0.00000000000E+00 -0.00000000000E+00 -0.45593999997E+02  0.45594000000E+02  0.51100000000E-03 0. -1.
    9900012    2    1    2    0    0  0.41752216303E+02 -0.11753248175E+02  0.14955938973E+01  0.47787271780E+02  0.20000003355E+02 0.  0.
         12    1    1    2    0    0 -0.41752216303E+02  0.11753248175E+02 -0.14955938973E+01  0.43400728220E+02  0.00000000000E+00 0. -1.
         11    1    3    3    0    0  0.47020914778E+01 -0.30564876205E+01 -0.30962023453E+01  0.64061103694E+01  0.51100000000E-03 0. -1.
        -11    1    3    3    0    0  0.64678563906E+00  0.88301693650E+00 -0.28117445347E+01  0.30172766135E+01  0.51100000000E-03 0.  1.
        -12    1    3    3    0    0  0.36403339186E+02 -0.95797774914E+01  0.74035407773E+01  0.38363884797E+02  0.00000000000E+00 0.  1.
</event>
<event>
 7    1  0.2682317E-010  0.4778725E+02  0.7816164E-02  0.1312668E+00
        -11   -1    0    0    0    0  0.00000000000E+00  0.00000000000E+00  0.45593999997E+02  0.45594000000E+02  0.51100000000E-03 0.  1.
         11   -1    0    0    0    0 -0.00000000000E+00 -0.00000000000E+00 -0.45593999997E+02  0.45594000000E+02  0.51100000000E-03 0. -1.
    9900012    2    1    2    0    0 -0.24008780506E+02  0.49939822450E+01  0.35808712224E+02  0.47787248034E+02  0.19999895087E+02 0.  0.
         12    1    1    2    0    0  0.24008780506E+02 -0.49939822450E+01 -0.35808712224E+02  0.43400751966E+02  0.00000000000E+00 0. -1.
         11    1    3    3    0    0 -0.14897165952E+02  0.85272970658E+01  0.31847586671E+02  0.36178849148E+02  0.51100000000E-03 0. -1.
        -11    1    3    3    0    0 -0.25191781989E+01  0.87690978320E+00 -0.15581296202E+00  0.26719856860E+01  0.51100000000E-03 0.  1.
        -12    1    3    3    0    0 -0.65924363549E+01 -0.44102246040E+01  0.41169385155E+01  0.89364132007E+01  0.00000000000E+00 0.  1.
</event>
<event>
 7    1  0.2682317E-010  0.4778727E+02  0.7816164E-02  0.1312668E+00
        -11   -1    0    0    0    0  0.00000000000E+00  0.00000000000E+00  0.45593999997E+02  0.45594000000E+02  0.51100000000E-03 0. -1.
         11   -1    0    0    0    0 -0.00000000000E+00 -0.00000000000E+00 -0.45593999997E+02  0.45594000000E+02  0.51100000000E-03 0.  1.
    9900012    2    1    2    0    0  0.54664496998E+01 -0.36554872764E+02 -0.22748242012E+02  0.47787270631E+02  0.19999998116E+02 0.  0.
         12    1    1    2    0    0 -0.54664496998E+01  0.36554872764E+02  0.22748242012E+02  0.43400729369E+02  0.00000000000E+00 0. -1.
         11    1    3    3    0    0 -0.36063139932E+01 -0.10787049155E+01 -0.92328224639E+00  0.38757651218E+01  0.51100000000E-03 0. -1.
        -11    1    3    3    0    0  0.24989985830E+01 -0.11331428477E+02 -0.15535196709E+01  0.11707249415E+02  0.51100000000E-03 0.  1.
        -12    1    3    3    0    0  0.65737651100E+01 -0.24144739371E+02 -0.20271440095E+02  0.32204256094E+02  0.00000000000E+00 0.  1.
</event>
<event>
 7    1  0.2682317E-010  0.4778727E+02  0.7816164E-02  0.1312668E+00
        -11   -1    0    0    0    0  0.00000000000E+00  0.00000000000E+00  0.45593999997E+02  0.45594000000E+02  0.51100000000E-03 0.  1.
         11   -1    0    0    0    0 -0.00000000000E+00 -0.00000000000E+00 -0.45593999997E+02  0.45594000000E+02  0.51100000000E-03 0. -1.
    9900012    2    1    2    0    0 -0.18394309970E+02 -0.10172069055E+02  0.37971063255E+02  0.47787271056E+02  0.20000000053E+02 0.  0.
         12    1    1    2    0    0  0.18394309970E+02  0.10172069055E+02 -0.37971063255E+02  0.43400728944E+02  0.00000000000E+00 0. -1.
         11    1    3    3    0    0 -0.42680338852E+01 -0.22289819089E+01  0.15853514756E+02  0.16568596922E+02  0.51100000000E-03 0. -1.
        -11    1    3    3    0    0 -0.67660673414E+01  0.18235153764E+01  0.16162875506E+02  0.17616566649E+02  0.51100000000E-03 0.  1.
         12    1    3    3    0    0 -0.73602087430E+01 -0.97666025226E+01  0.59546729932E+01  0.13602107485E+02  0.00000000000E+00 0. -1.
</event>
<event>
 7    1  0.2682317E-010  0.4778727E+02  0.7816164E-02  0.1312668E+00
        -11   -1    0    0    0    0  0.00000000000E+00  0.00000000000E+00  0.45593999997E+02  0.45594000000E+02  0.51100000000E-03 0. -1.
         11   -1    0    0    0    0 -0.00000000000E+00 -0.00000000000E+00 -0.45593999997E+02  0.45594000000E+02  0.51100000000E-03 0.  1.
    9900012    2    1    2    0    0  0.26731248175E+02  0.19859852833E+02 -0.27832534567E+02  0.47787270007E+02  0.19999995270E+02 0.  0.
         12    1    1    2    0    0 -0.26731248175E+02 -0.19859852833E+02  0.27832534567E+02  0.43400729993E+02  0.00000000000E+00 0. -1.
         11    1    3    3    0    0  0.69201239515E+01  0.45291093460E+01 -0.23847055209E+00  0.82739238235E+01  0.51100000000E-03 0. -1.
        -11    1    3    3    0    0  0.18527990537E+02  0.14823872575E+02 -0.17903033614E+02  0.29724606714E+02  0.51100000000E-03 0.  1.
         12    1    3    3    0    0  0.12831336860E+01  0.50687091219E+00 -0.96910304006E+01  0.97887394696E+01  0.00000000000E+00 0. -1.
</event>
<event>
 7    1  0.2682317E-010  0.4778728E+02  0.7816164E-02  0.1312668E+00
        -11   -1    0    0    0    0  0.00000000000E+00  0.00000000000E+00  0.45593999997E+02  0.45594000000E+02  0.51100000000E-03 0.  1.
         11   -1    0    0    0    0 -0.00000000000E+00 -0.00000000000E+00 -0.45593999997E+02  0.45594000000E+02  0.51100000000E-03 0. -1.
    9900012    2    1    2    0    0  0.21914116866E+02 -0.84619104580E+01  0.36493695992E+02  0.47787282335E+02  0.20000051479E+02 0.  0.
         12    1    1    2    0    0 -0.21914116866E+02  0.84619104580E+01 -0.36493695992E+02  0.43400717665E+02  0.00000000000E+00 0. -1.
         11    1    3    3    0    0  0.92145171339E+01 -0.15112506715E+01  0.11036400908E+02  0.14456602294E+02  0.51100000000E-03 0. -1.
        -11    1    3    3    0    0  0.45441582154E+01 -0.43219997708E+01  0.23788270402E+02  0.24601033817E+02  0.51100000000E-03 0.  1.
         12    1    3    3    0    0  0.81554415171E+01 -0.26286600157E+01  0.16690246825E+01  0.87296462247E+01  0.00000000000E+00 0. -1.
</event>
<event>
 7    1  0.2682317E-010  0.4778727E+02  0.7816164E-02  0.1312668E+00
        -11   -1    0    0    0    0  0.00000000000E+00  0.00000000000E+00  0.45593999997E+02  0.45594000000E+02  0.51100000000E-03 0.  1.
         11   -1    0    0    0    0 -0.00000000000E+00 -0.00000000000E+00 -0.45593999997E+02  0.45594000000E+02  0.51100000000E-03 0. -1.
    9900012    2    1    2    0    0  0.23636713213E+02  0.16792166975E+02  0.32294768480E+02  0.47787272421E+02  0.20000006274E+02 0.  0.
         12    1    1    2    0    0 -0.23636713213E+02 -0.16792166975E+02 -0.32294768480E+02  0.43400727579E+02  0.00000000000E+00 0. -1.
         11    1    3    3    0    0  0.53894183960E+01  0.52264983352E+01  0.13315912980E+02  0.15286453292E+02  0.51100000000E-03 0. -1.
        -11    1    3    3    0    0  0.29748246941E+01 -0.36459245732E+01  0.46619444159E+01  0.66239017166E+01  0.51100000000E-03 0.  1.
         12    1    3    3    0    0  0.15272470123E+02  0.15211593213E+02  0.14316911084E+02  0.25876917412E+02  0.00000000000E+00 0. -1.
</event>
<event>
 7    1  0.2682317E-010  0.4778727E+02  0.7816164E-02  0.1312668E+00
        -11   -1    0    0    0    0  0.00000000000E+00  0.00000000000E+00  0.45593999997E+02  0.45594000000E+02  0.51100000000E-03 0.  1.
         11   -1    0    0    0    0 -0.00000000000E+00 -0.00000000000E+00 -0.45593999997E+02  0.45594000000E+02  0.51100000000E-03 0. -1.
    9900012    2    1    2    0    0 -0.32215970152E+02 -0.16028890638E+01  0.29037657273E+02  0.47787268139E+02  0.19999986752E+02 0.  0.
         12    1    1    2    0    0  0.32215970152E+02  0.16028890638E+01 -0.29037657273E+02  0.43400731861E+02  0.00000000000E+00 0. -1.
         11    1    3    3    0    0  0.62603155343E-01 -0.11304016393E+01 -0.36757477173E+00  0.11903102516E+01  0.51100000000E-03 0. -1.
        -11    1    3    3    0    0 -0.31817630080E+02  0.79439692137E+00  0.21107824489E+02  0.38190743712E+02  0.51100000000E-03 0.  1.
        -12    1    3    3    0    0 -0.46094322742E+00 -0.12668843459E+01  0.82974075561E+01  0.84062141750E+01  0.00000000000E+00 0.  1.
</event>
<event>
 7    1  0.2682317E-010  0.4778726E+02  0.7816164E-02  0.1312668E+00
        -11   -1    0    0    0    0  0.00000000000E+00  0.00000000000E+00  0.45593999997E+02  0.45594000000E+02  0.51100000000E-03 0.  1.
         11   -1    0    0    0    0 -0.00000000000E+00 -0.00000000000E+00 -0.45593999997E+02  0.45594000000E+02  0.51100000000E-03 0. -1.
    9900012    2    1    2    0    0 -0.66348318721E+01 -0.39052124026E+01  0.42712436902E+02  0.47787263324E+02  0.19999964801E+02 0.  0.
         12    1    1    2    0    0  0.66348318721E+01  0.39052124026E+01 -0.42712436902E+02  0.43400736676E+02  0.00000000000E+00 0. -1.
         11    1    3    3    0    0  0.32052398746E+01 -0.77300060859E+01  0.24664324544E+02  0.26045257960E+02  0.51100000000E-03 0. -1.
        -11    1    3    3    0    0 -0.18472571004E+01 -0.10050507646E+01  0.68249545833E+01  0.71416028425E+01  0.51100000000E-03 0.  1.
        -12    1    3    3    0    0 -0.79928146463E+01  0.48298444479E+01  0.11223157775E+02  0.14600402522E+02  0.00000000000E+00 0.  1.
</event>
<event>
 7    1  0.2682317E-010  0.4778727E+02  0.7816164E-02  0.1312668E+00
        -11   -1    0    0    0    0  0.00000000000E+00  0.00000000000E+00  0.45593999997E+02  0.45594000000E+02  0.51100000000E-03 0. -1.
         11   -1    0    0    0    0 -0.00000000000E+00 -0.00000000000E+00 -0.45593999997E+02  0.45594000000E+02  0.51100000000E-03 0.  1.
    9900012    2    1    2    0    0 -0.31965226182E+02 -0.26111011572E+02  0.13418744570E+02  0.47787270559E+02  0.19999997785E+02 0.  0.
         12    1    1    2    0    0  0.31965226182E+02  0.26111011572E+02 -0.13418744570E+02  0.43400729441E+02  0.00000000000E+00 0. -1.
         11    1    3    3    0    0 -0.20771804121E+02 -0.12907428800E+02  0.73878884335E+00  0.24466617540E+02  0.51100000000E-03 0.  1.
        -11    1    3    3    0    0 -0.47415995382E+01  0.14674536635E+00  0.31617666542E+01  0.57009708840E+01  0.51100000000E-03 0. -1.
        -12    1    3    3    0    0 -0.64518225233E+01 -0.13350328139E+02  0.95181890726E+01  0.17619682134E+02  0.00000000000E+00 0.  1.
</event>
<event>
 7    1  0.2682317E-010  0.4778727E+02  0.7816164E-02  0.1312668E+00
        -11   -1    0    0    0    0  0.00000000000E+00  0.00000000000E+00  0.45593999997E+02  0.45594000000E+02  0.51100000000E-03 0. -1.
         11   -1    0    0    0    0 -0.00000000000E+00 -0.00000000000E+00 -0.45593999997E+02  0.45594000000E+02  0.51100000000E-03 0.  1.
    9900012    2    1    2    0    0 -0.19625482922E+01  0.37666001735E+01 -0.43192413748E+02  0.47787268693E+02  0.19999989278E+02 0.  0.
         12    1    1    2    0    0  0.19625482922E+01 -0.37666001735E+01  0.43192413748E+02  0.43400731307E+02  0.00000000000E+00 0. -1.
         11    1    3    3    0    0  0.24805424383E+00 -0.44733804452E+00 -0.30876208564E+01  0.31297036677E+01  0.51100000000E-03 0. -1.
        -11    1    3    3    0    0  0.69166357830E+01  0.28491147816E+01 -0.30229352721E+02  0.31141147567E+02  0.51100000000E-03 0.  1.
         12    1    3    3    0    0 -0.91272383190E+01  0.13648234364E+01 -0.98754401698E+01  0.13516417458E+02  0.00000000000E+00 0. -1.
</event>
<event>
 7    1  0.2682317E-010  0.4778727E+02  0.7816164E-02  0.1312668E+00
        -11   -1    0    0    0    0  0.00000000000E+00  0.00000000000E+00  0.45593999997E+02  0.45594000000E+02  0.51100000000E-03 0.  1.
         11   -1    0    0    0    0 -0.00000000000E+00 -0.00000000000E+00 -0.45593999997E+02  0.45594000000E+02  0.51100000000E-03 0. -1.
    9900012    2    1    2    0    0 -0.95829940896E+01  0.17327290137E+02  0.38620647258E+02  0.47787272427E+02  0.20000006303E+02 0.  0.
         12    1    1    2    0    0  0.95829940896E+01 -0.17327290137E+02 -0.38620647258E+02  0.43400727573E+02  0.00000000000E+00 0. -1.
         11    1    3    3    0    0 -0.15582710872E+01 -0.42665680888E+01  0.39319772324E+01  0.60076831852E+01  0.51100000000E-03 0. -1.
        -11    1    3    3    0    0 -0.10802800868E+01  0.14648612050E+01  0.15557212335E+01  0.23943876531E+01  0.51100000000E-03 0.  1.
         12    1    3    3    0    0 -0.69444429156E+01  0.20128997021E+02  0.33132948793E+02  0.39385201589E+02  0.00000000000E+00 0. -1.
</event>
<event>
 7    1  0.2682317E-010  0.4778727E+02  0.7816164E-02  0.1312668E+00
        -11   -1    0    0    0    0  0.00000000000E+00  0.00000000000E+00  0.45593999997E+02  0.45594000000E+02  0.51100000000E-03 0.  1.
         11   -1    0    0    0    0 -0.00000000000E+00 -0.00000000000E+00 -0.45593999997E+02  0.45594000000E+02  0.51100000000E-03 0. -1.
    9900012    2    1    2    0    0  0.31971592673E+01  0.16981051644E+02  0.39812625421E+02  0.47787273218E+02  0.20000009908E+02 0.  0.
         12    1    1    2    0    0 -0.31971592673E+01 -0.16981051644E+02 -0.39812625421E+02  0.43400726782E+02  0.00000000000E+00 0. -1.
         11    1    3    3    0    0  0.17361890223E+01 -0.10756903816E+00  0.11234458522E+02  0.11368332418E+02  0.51100000000E-03 0. -1.
        -11    1    3    3    0    0  0.50039363195E+01  0.11010781392E+02  0.26425713995E+02  0.29061917451E+02  0.51100000000E-03 0.  1.
         12    1    3    3    0    0 -0.35429660745E+01  0.60778392903E+01  0.21524529046E+01  0.73570233485E+01  0.00000000000E+00 0. -1.
</event>
<event>
 7    1  0.2682317E-010  0.4778728E+02  0.7816164E-02  0.1312668E+00
        -11   -1    0    0    0    0  0.00000000000E+00  0.00000000000E+00  0.45593999997E+02  0.45594000000E+02  0.51100000000E-03 0.  1.
         11   -1    0    0    0    0 -0.00000000000E+00 -0.00000000000E+00 -0.45593999997E+02  0.45594000000E+02  0.51100000000E-03 0. -1.
    9900012    2    1    2    0    0  0.40472129930E+02  0.60122789664E+01  0.14473480553E+02  0.47787280665E+02  0.20000043865E+02 0.  0.
         12    1    1    2    0    0 -0.40472129930E+02 -0.60122789664E+01 -0.14473480553E+02  0.43400719335E+02  0.00000000000E+00 0. -1.
         11    1    3    3    0    0  0.68876394728E+01  0.71532680345E+01 -0.98522755717E+00  0.99789525844E+01  0.51100000000E-03 0. -1.
        -11    1    3    3    0    0  0.76355679700E+01  0.82540898733E+00  0.71438006953E+01  0.10488903034E+02  0.51100000000E-03 0.  1.
        -12    1    3    3    0    0  0.25948922487E+02 -0.19663980555E+01  0.83149074148E+01  0.27319425047E+02  0.00000000000E+00 0.  1.
</event>
<event>
 7    1  0.2682317E-010  0.4778727E+02  0.7816164E-02  0.1312668E+00
        -11   -1    0    0    0    0  0.00000000000E+00  0.00000000000E+00  0.45593999997E+02  0.45594000000E+02  0.51100000000E-03 0. -1.
         11   -1    0    0    0    0 -0.00000000000E+00 -0.00000000000E+00 -0.45593999997E+02  0.45594000000E+02  0.51100000000E-03 0.  1.
    9900012    2    1    2    0    0  0.27821301640E+02 -0.30307775462E+02  0.13821625329E+02  0.47787269532E+02  0.19999993104E+02 0.  0.
         12    1    1    2    0    0 -0.27821301640E+02  0.30307775462E+02 -0.13821625329E+02  0.43400730468E+02  0.00000000000E+00 0. -1.
         11    1    3    3    0    0  0.17621469286E+01 -0.39850906403E+01 -0.10378319328E+01  0.44791968691E+01  0.51100000000E-03 0. -1.
        -11    1    3    3    0    0  0.75956950654E+01 -0.18922649862E+02  0.44999424432E+01  0.20880870278E+02  0.51100000000E-03 0.  1.
         12    1    3    3    0    0  0.18463459646E+02 -0.74000349595E+01  0.10359514819E+02  0.22427202385E+02  0.00000000000E+00 0. -1.
</event>
<event>
 7    1  0.2682317E-010  0.4778727E+02  0.7816164E-02  0.1312668E+00
        -11   -1    0    0    0    0  0.00000000000E+00  0.00000000000E+00  0.45593999997E+02  0.45594000000E+02  0.51100000000E-03 0.  1.
         11   -1    0    0    0    0 -0.00000000000E+00 -0.00000000000E+00 -0.45593999997E+02  0.45594000000E+02  0.51100000000E-03 0. -1.
    9900012    2    1    2    0    0 -0.33271897962E+02 -0.22366403905E+02  0.16623722916E+02  0.47787269807E+02  0.19999994360E+02 0.  0.
         12    1    1    2    0    0  0.33271897962E+02  0.22366403905E+02 -0.16623722916E+02  0.43400730193E+02  0.00000000000E+00 0. -1.
         11    1    3    3    0    0 -0.21266721001E+01 -0.42365410476E+01  0.81901831647E+01  0.94630922431E+01  0.51100000000E-03 0. -1.
        -11    1    3    3    0    0 -0.12612159575E+02 -0.61758525054E+01  0.82146230125E+01  0.16269227235E+02  0.51100000000E-03 0.  1.
         12    1    3    3    0    0 -0.18533066287E+02 -0.11954010352E+02  0.21891673881E+00  0.22054950330E+02  0.00000000000E+00 0. -1.
</event>
<event>
 7    1  0.2682317E-010  0.4778731E+02  0.7816164E-02  0.1312668E+00
        -11   -1    0    0    0    0  0.00000000000E+00  0.00000000000E+00  0.45593999997E+02  0.45594000000E+02  0.51100000000E-03 0.  1.
         11   -1    0    0    0    0 -0.00000000000E+00 -0.00000000000E+00 -0.45593999997E+02  0.45594000000E+02  0.51100000000E-03 0. -1.
    9900012    2    1    2    0    0  0.22370863931E+02  0.62312377286E+01  0.36665183324E+02  0.47787314005E+02  0.20000195875E+02 0.  0.
         12    1    1    2    0    0 -0.22370863931E+02 -0.62312377286E+01 -0.36665183324E+02  0.43400685995E+02  0.00000000000E+00 0. -1.
         11    1    3    3    0    0 -0.30731710780E+00  0.28484940758E+01  0.89892107345E+01  0.94347375265E+01  0.51100000000E-03 0.  1.
        -11    1    3    3    0    0  0.21671446413E+02  0.54954189331E+01  0.18917745057E+02  0.29287067063E+02  0.51100000000E-03 0. -1.
         12    1    3    3    0    0  0.10067346258E+01 -0.21126752803E+01  0.87582275330E+01  0.90655094157E+01  0.00000000000E+00 0. -1.
</event>
<event>
 7    1  0.2682317E-010  0.4778728E+02  0.7816164E-02  0.1312668E+00
        -11   -1    0    0    0    0  0.00000000000E+00  0.00000000000E+00  0.45593999997E+02  0.45594000000E+02  0.51100000000E-03 0.  1.
         11   -1    0    0    0    0 -0.00000000000E+00 -0.00000000000E+00 -0.45593999997E+02  0.45594000000E+02  0.51100000000E-03 0. -1.
    9900012    2    1    2    0    0 -0.22857325017E+02  0.13737395821E+02  0.34241050743E+02  0.47787275273E+02  0.20000019278E+02 0.  0.
         12    1    1    2    0    0  0.22857325017E+02 -0.13737395821E+02 -0.34241050743E+02  0.43400724727E+02  0.00000000000E+00 0. -1.
         11    1    3    3    0    0 -0.81491705483E+01  0.64721889344E+00  0.75876204798E+01  0.11153468417E+02  0.51100000000E-03 0. -1.
        -11    1    3    3    0    0 -0.50759612604E+01 -0.27123528066E+00  0.16544389783E+02  0.17307679938E+02  0.51100000000E-03 0.  1.
         12    1    3    3    0    0 -0.96321932079E+01  0.13361412208E+02  0.10109040480E+02  0.19326126917E+02  0.00000000000E+00 0. -1.
</event>
<event>
 7    1  0.2682317E-010  0.4778727E+02  0.7816164E-02  0.1312668E+00
        -11   -1    0    0    0    0  0.00000000000E+00  0.00000000000E+00  0.45593999997E+02  0.45594000000E+02  0.51100000000E-03 0.  1.
         11   -1    0    0    0    0 -0.00000000000E+00 -0.00000000000E+00 -0.45593999997E+02  0.45594000000E+02  0.51100000000E-03 0. -1.
    9900012    2    1    2    0    0 -0.26907137726E+01 -0.97820240150E+01  0.42198288443E+02  0.47787268648E+02  0.19999989071E+02 0.  0.
         12    1    1    2    0    0  0.26907137726E+01  0.97820240150E+01 -0.42198288443E+02  0.43400731352E+02  0.00000000000E+00 0. -1.
         11    1    3    3    0    0  0.16764432574E+00  0.20266848377E+00 -0.13070003565E+01  0.13332026579E+01  0.51100000000E-03 0. -1.
        -11    1    3    3    0    0 -0.40843101249E+01 -0.10419101735E+01  0.36078911147E+01  0.55483370988E+01  0.51100000000E-03 0.  1.
        -12    1    3    3    0    0  0.12259520265E+01 -0.89427823252E+01  0.39897397685E+02  0.40905728891E+02  0.00000000000E+00 0.  1.
</event>
<event>
 7    1  0.2682317E-010  0.4778727E+02  0.7816164E-02  0.1312668E+00
        -11   -1    0    0    0    0  0.00000000000E+00  0.00000000000E+00  0.45593999997E+02  0.45594000000E+02  0.51100000000E-03 0.  1.
         11   -1    0    0    0    0 -0.00000000000E+00 -0.00000000000E+00 -0.45593999997E+02  0.45594000000E+02  0.51100000000E-03 0. -1.
    9900012    2    1    2    0    0 -0.14871307233E+02 -0.38293126672E+02  0.14003724135E+02  0.47787267071E+02  0.19999981882E+02 0.  0.
         12    1    1    2    0    0  0.14871307233E+02  0.38293126672E+02 -0.14003724135E+02  0.43400732929E+02  0.00000000000E+00 0. -1.
         11    1    3    3    0    0 -0.30777842862E+01 -0.24424786345E+02  0.67024225720E+01  0.25514023844E+02  0.51100000000E-03 0. -1.
        -11    1    3    3    0    0 -0.77033758356E+01 -0.14740210905E+02  0.71072509343E+01  0.18086703207E+02  0.51100000000E-03 0.  1.
         12    1    3    3    0    0 -0.40901471112E+01  0.87187057760E+00  0.19405062897E+00  0.41865400203E+01  0.00000000000E+00 0. -1.
</event>
<event>
 7    1  0.2682317E-010  0.4778727E+02  0.7816164E-02  0.1312668E+00
        -11   -1    0    0    0    0  0.00000000000E+00  0.00000000000E+00  0.45593999997E+02  0.45594000000E+02  0.51100000000E-03 0. -1.
         11   -1    0    0    0    0 -0.00000000000E+00 -0.00000000000E+00 -0.45593999997E+02  0.45594000000E+02  0.51100000000E-03 0.  1.
    9900012    2    1    2    0    0 -0.30364088522E+02 -0.30995769371E+02  0.95272777328E+00  0.47787270963E+02  0.19999999631E+02 0.  0.
         12    1    1    2    0    0  0.30364088522E+02  0.30995769371E+02 -0.95272777328E+00  0.43400729037E+02  0.00000000000E+00 0. -1.
         11    1    3    3    0    0 -0.16525199978E+02 -0.55559328967E+01 -0.79408488079E+00  0.17452254746E+02  0.51100000000E-03 0. -1.
        -11    1    3    3    0    0  0.46824368080E+00  0.59900953761E-01 -0.85876078924E+00  0.97995439849E+00  0.51100000000E-03 0.  1.
        -12    1    3    3    0    0 -0.14307132225E+02 -0.25499737428E+02  0.26055734433E+01  0.29355061819E+02  0.00000000000E+00 0.  1.
</event>
<event>
 7    1  0.2682317E-010  0.4778727E+02  0.7816164E-02  0.1312668E+00
        -11   -1    0    0    0    0  0.00000000000E+00  0.00000000000E+00  0.45593999997E+02  0.45594000000E+02  0.51100000000E-03 0.  1.
         11   -1    0    0    0    0 -0.00000000000E+00 -0.00000000000E+00 -0.45593999997E+02  0.45594000000E+02  0.51100000000E-03 0. -1.
    9900012    2    1    2    0    0 -0.27743809094E+02 -0.13885022276E+02  0.30349801663E+02  0.47787271347E+02  0.20000001379E+02 0.  0.
         12    1    1    2    0    0  0.27743809094E+02  0.13885022276E+02 -0.30349801663E+02  0.43400728653E+02  0.00000000000E+00 0. -1.
         11    1    3    3    0    0 -0.19450810902E+01 -0.22208296274E+01  0.13778202270E+02  0.14090929094E+02  0.51100000000E-03 0.  1.
        -11    1    3    3    0    0 -0.25106026764E+01 -0.30638956729E+01  0.47941914153E+01  0.62189110044E+01  0.51100000000E-03 0. -1.
        -12    1    3    3    0    0 -0.23288125327E+02 -0.86002969755E+01  0.11777407978E+02  0.27477431248E+02  0.00000000000E+00 0.  1.
</event>
<event>
 7    1  0.2682317E-010  0.4778728E+02  0.7816164E-02  0.1312668E+00
        -11   -1    0    0    0    0  0.00000000000E+00  0.00000000000E+00  0.45593999997E+02  0.45594000000E+02  0.51100000000E-03 0. -1.
         11   -1    0    0    0    0 -0.00000000000E+00 -0.00000000000E+00 -0.45593999997E+02  0.45594000000E+02  0.51100000000E-03 0.  1.
    9900012    2    1    2    0    0 -0.76953384974E+01  0.42599389151E+02 -0.31138757847E+01  0.47787280961E+02  0.20000045215E+02 0.  0.
         12    1    1    2    0    0  0.76953384974E+01 -0.42599389151E+02  0.31138757847E+01  0.43400719039E+02  0.00000000000E+00 0. -1.
         11    1    3    3    0    0 -0.51031363716E+01  0.10029463434E+02  0.21710023403E+01  0.11460601600E+02  0.51100000000E-03 0. -1.
        -11    1    3    3    0    0 -0.66497772182E+01  0.18440222099E+02  0.23819824028E+01  0.19746776156E+02  0.51100000000E-03 0.  1.
        -12    1    3    3    0    0  0.40575750924E+01  0.14129703618E+02 -0.76668605278E+01  0.16579903206E+02  0.00000000000E+00 0.  1.
</event>
<event>
 7    1  0.2682317E-010  0.4778727E+02  0.7816164E-02  0.1312668E+00
        -11   -1    0    0    0    0  0.00000000000E+00  0.00000000000E+00  0.45593999997E+02  0.45594000000E+02  0.51100000000E-03 0. -1.
         11   -1    0    0    0    0 -0.00000000000E+00 -0.00000000000E+00 -0.45593999997E+02  0.45594000000E+02  0.51100000000E-03 0.  1.
    9900012    2    1    2    0    0  0.99353579437E+01  0.14144542276E+02 -0.39810098016E+02  0.47787270539E+02  0.19999997696E+02 0.  0.
         12    1    1    2    0    0 -0.99353579437E+01 -0.14144542276E+02  0.39810098016E+02  0.43400729461E+02  0.00000000000E+00 0. -1.
         11    1    3    3    0    0  0.62035515658E+01  0.86557599922E+00 -0.65348849180E+01  0.90519608368E+01  0.51100000000E-03 0. -1.
        -11    1    3    3    0    0  0.43458297176E+01  0.13289623472E+02 -0.15212098318E+02  0.20661758479E+02  0.51100000000E-03 0.  1.
        -12    1    3    3    0    0 -0.61402333971E+00 -0.10657194963E-01 -0.18063114781E+02  0.18073551223E+02  0.00000000000E+00 0.  1.
</event>
<event>
 7    1  0.2682317E-010  0.4778724E+02  0.7816164E-02  0.1312668E+00
        -11   -1    0    0    0    0  0.00000000000E+00  0.00000000000E+00  0.45593999997E+02  0.45594000000E+02  0.51100000000E-03 0.  1.
         11   -1    0    0    0    0 -0.00000000000E+00 -0.00000000000E+00 -0.45593999997E+02  0.45594000000E+02  0.51100000000E-03 0. -1.
    9900012    2    1    2    0    0  0.20868312145E+02  0.28220034822E+02  0.25529771530E+02  0.47787239045E+02  0.19999854101E+02 0.  0.
         12    1    1    2    0    0 -0.20868312145E+02 -0.28220034822E+02 -0.25529771530E+02  0.43400760955E+02  0.00000000000E+00 0. -1.
         11    1    3    3    0    0  0.33521694946E+01  0.73745078359E+01 -0.23367670508E+01  0.84309481467E+01  0.51100000000E-03 0. -1.
        -11    1    3    3    0    0  0.90892009132E+00  0.15606490658E+01  0.28739095981E+00  0.18287577925E+01  0.51100000000E-03 0.  1.
        -12    1    3    3    0    0  0.16607222559E+02  0.19284877920E+02  0.27579147621E+02  0.37527533106E+02  0.00000000000E+00 0.  1.
</event>
<event>
 7    1  0.2682317E-010  0.4778727E+02  0.7816164E-02  0.1312668E+00
        -11   -1    0    0    0    0  0.00000000000E+00  0.00000000000E+00  0.45593999997E+02  0.45594000000E+02  0.51100000000E-03 0.  1.
         11   -1    0    0    0    0 -0.00000000000E+00 -0.00000000000E+00 -0.45593999997E+02  0.45594000000E+02  0.51100000000E-03 0. -1.
    9900012    2    1    2    0    0 -0.81067375213E+01  0.34956601690E+02  0.24411888615E+02  0.47787268432E+02  0.19999988087E+02 0.  0.
         12    1    1    2    0    0  0.81067375213E+01 -0.34956601690E+02 -0.24411888615E+02  0.43400731568E+02  0.00000000000E+00 0. -1.
         11    1    3    3    0    0 -0.41953212947E+01  0.20892524384E+02  0.14834520092E+02  0.25964615971E+02  0.51100000000E-03 0.  1.
        -11    1    3    3    0    0 -0.53685824496E+01  0.79372610718E+00  0.59858086674E-01  0.54272702073E+01  0.51100000000E-03 0. -1.
         12    1    3    3    0    0  0.14571662230E+01  0.13270351198E+02  0.95175104365E+01  0.16395382253E+02  0.00000000000E+00 0. -1.
</event>
<event>
 7    1  0.2682317E-010  0.4778727E+02  0.7816164E-02  0.1312668E+00
        -11   -1    0    0    0    0  0.00000000000E+00  0.00000000000E+00  0.45593999997E+02  0.45594000000E+02  0.51100000000E-03 0.  1.
         11   -1    0    0    0    0 -0.00000000000E+00 -0.00000000000E+00 -0.45593999997E+02  0.45594000000E+02  0.51100000000E-03 0. -1.
    9900012    2    1    2    0    0  0.29541005406E+02  0.31081683997E+02  0.66993266717E+01  0.47787273528E+02  0.20000011323E+02 0.  0.
         12    1    1    2    0    0 -0.29541005406E+02 -0.31081683997E+02 -0.66993266717E+01  0.43400726472E+02  0.00000000000E+00 0. -1.
         11    1    3    3    0    0  0.85466984394E+01  0.21010031178E+02 -0.14955677358E+01  0.22731128160E+02  0.51100000000E-03 0. -1.
        -11    1    3    3    0    0  0.37805114769E+01  0.10734912859E+01 -0.10985329086E+00  0.39315033479E+01  0.51100000000E-03 0.  1.
         12    1    3    3    0    0  0.17213795490E+02  0.89981615324E+01  0.83047476984E+01  0.21124642020E+02  0.00000000000E+00 0. -1.
</event>
<event>
 7    1  0.2682317E-010  0.4778726E+02  0.7816164E-02  0.1312668E+00
        -11   -1    0    0    0    0  0.00000000000E+00  0.00000000000E+00  0.45593999997E+02  0.45594000000E+02  0.51100000000E-03 0. -1.
         11   -1    0    0    0    0 -0.00000000000E+00 -0.00000000000E+00 -0.45593999997E+02  0.45594000000E+02  0.51100000000E-03 0.  1.
    9900012    2    1    2    0    0  0.22676280737E+02  0.36125708355E+02 -0.80214563262E+01  0.47787259524E+02  0.19999947476E+02 0.  0.
         12    1    1    2    0    0 -0.22676280737E+02 -0.36125708355E+02  0.80214563262E+01  0.43400740476E+02  0.00000000000E+00 0. -1.
         11    1    3    3    0    0 -0.25966078282E+01  0.68645728182E+01  0.17209499799E+01  0.75383288124E+01  0.51100000000E-03 0. -1.
        -11    1    3    3    0    0  0.33916360858E+01  0.72107809677E+01 -0.24961806586E+01  0.83504176928E+01  0.51100000000E-03 0.  1.
         12    1    3    3    0    0  0.21881252479E+02  0.22050354569E+02 -0.72462256476E+01  0.31898513019E+02  0.00000000000E+00 0. -1.
</event>
<event>
 7    1  0.2682317E-010  0.4778728E+02  0.7816164E-02  0.1312668E+00
        -11   -1    0    0    0    0  0.00000000000E+00  0.00000000000E+00  0.45593999997E+02  0.45594000000E+02  0.51100000000E-03 0.  1.
         11   -1    0    0    0    0 -0.00000000000E+00 -0.00000000000E+00 -0.45593999997E+02  0.45594000000E+02  0.51100000000E-03 0. -1.
    9900012    2    1    2    0    0  0.75938895661E+01  0.39404811912E+01  0.42549128528E+02  0.47787275475E+02  0.20000020201E+02 0.  0.
         12    1    1    2    0    0 -0.75938895661E+01 -0.39404811912E+01 -0.42549128528E+02  0.43400724525E+02  0.00000000000E+00 0. -1.
         11    1    3    3    0    0  0.10125185026E+02  0.32976056429E+01  0.25686332426E+02  0.27806136886E+02  0.51100000000E-03 0.  1.
        -11    1    3    3    0    0 -0.12766895019E+01  0.29851792300E+01  0.17012732471E+02  0.17319766093E+02  0.51100000000E-03 0. -1.
        -12    1    3    3    0    0 -0.12546059579E+01 -0.23423036817E+01 -0.14993636859E+00  0.26613724958E+01  0.00000000000E+00 0.  1.
</event>
<event>
 7    1  0.2682317E-010  0.4778728E+02  0.7816164E-02  0.1312668E+00
        -11   -1    0    0    0    0  0.00000000000E+00  0.00000000000E+00  0.45593999997E+02  0.45594000000E+02  0.51100000000E-03 0. -1.
         11   -1    0    0    0    0 -0.00000000000E+00 -0.00000000000E+00 -0.45593999997E+02  0.45594000000E+02  0.51100000000E-03 0.  1.
    9900012    2    1    2    0    0 -0.15575861302E+02  0.21697487618E+02 -0.34208688814E+02  0.47787276335E+02  0.20000024123E+02 0.  0.
         12    1    1    2    0    0  0.15575861302E+02 -0.21697487618E+02  0.34208688814E+02  0.43400723665E+02  0.00000000000E+00 0. -1.
         11    1    3    3    0    0 -0.55047635677E+01 -0.14573643700E+01 -0.43517797310E+01  0.71668905344E+01  0.51100000000E-03 0. -1.
        -11    1    3    3    0    0  0.13926171787E+01  0.66254693475E+01 -0.40114512174E+01  0.78694324962E+01  0.51100000000E-03 0.  1.
        -12    1    3    3    0    0 -0.11463714913E+02  0.16529382641E+02 -0.25845457866E+02  0.32750953305E+02  0.00000000000E+00 0.  1.
</event>
<event>
 7    1  0.2682317E-010  0.4778727E+02  0.7816164E-02  0.1312668E+00
        -11   -1    0    0    0    0  0.00000000000E+00  0.00000000000E+00  0.45593999997E+02  0.45594000000E+02  0.51100000000E-03 0.  1.
         11   -1    0    0    0    0 -0.00000000000E+00 -0.00000000000E+00 -0.45593999997E+02  0.45594000000E+02  0.51100000000E-03 0. -1.
    9900012    2    1    2    0    0 -0.37381073460E+02  0.22010750143E+02  0.13436557346E+01  0.47787272062E+02  0.20000004639E+02 0.  0.
         12    1    1    2    0    0  0.37381073460E+02 -0.22010750143E+02 -0.13436557346E+01  0.43400727938E+02  0.00000000000E+00 0. -1.
         11    1    3    3    0    0 -0.24275121772E+02  0.23757478594E+02  0.74264843993E+00  0.33974267515E+02  0.51100000000E-03 0. -1.
        -11    1    3    3    0    0 -0.21311525305E+01 -0.14354316752E+00  0.16116379816E+01  0.26757789509E+01  0.51100000000E-03 0.  1.
        -12    1    3    3    0    0 -0.10974799157E+02 -0.16031852844E+01 -0.10106306868E+01  0.11137225596E+02  0.00000000000E+00 0.  1.
</event>
<event>
 7    1  0.2682317E-010  0.4778727E+02  0.7816164E-02  0.1312668E+00
        -11   -1    0    0    0    0  0.00000000000E+00  0.00000000000E+00  0.45593999997E+02  0.45594000000E+02  0.51100000000E-03 0.  1.
         11   -1    0    0    0    0 -0.00000000000E+00 -0.00000000000E+00 -0.45593999997E+02  0.45594000000E+02  0.51100000000E-03 0. -1.
    9900012    2    1    2    0    0 -0.61284493789E+01  0.37650587495E+02  0.20700206789E+02  0.47787271992E+02  0.20000004321E+02 0.  0.
         12    1    1    2    0    0  0.61284493789E+01 -0.37650587495E+02 -0.20700206789E+02  0.43400728008E+02  0.00000000000E+00 0. -1.
         11    1    3    3    0    0 -0.11372685361E+01  0.10277735359E+01  0.26489321282E+01  0.30604803292E+01  0.51100000000E-03 0. -1.
        -11    1    3    3    0    0  0.49561993394E+01  0.25337582577E+02  0.10220191405E+02  0.27767054496E+02  0.51100000000E-03 0.  1.
        -12    1    3    3    0    0 -0.99473801822E+01  0.11285231382E+02  0.78310832562E+01  0.16959737168E+02  0.00000000000E+00 0.  1.
</event>
<event>
 7    1  0.2682317E-010  0.4778727E+02  0.7816164E-02  0.1312668E+00
        -11   -1    0    0    0    0  0.00000000000E+00  0.00000000000E+00  0.45593999997E+02  0.45594000000E+02  0.51100000000E-03 0. -1.
         11   -1    0    0    0    0 -0.00000000000E+00 -0.00000000000E+00 -0.45593999997E+02  0.45594000000E+02  0.51100000000E-03 0.  1.
    9900012    2    1    2    0    0 -0.11276893971E+02  0.28482144801E+02 -0.30744463567E+02  0.47787274775E+02  0.20000017007E+02 0.  0.
         12    1    1    2    0    0  0.11276893971E+02 -0.28482144801E+02  0.30744463567E+02  0.43400725225E+02  0.00000000000E+00 0. -1.
         11    1    3    3    0    0  0.77280367318E+00  0.10163265699E+02 -0.13416507282E+02  0.16849090869E+02  0.51100000000E-03 0. -1.
        -11    1    3    3    0    0 -0.59718813091E+01  0.15099191779E+01 -0.97308454374E+01  0.11516621704E+02  0.51100000000E-03 0.  1.
         12    1    3    3    0    0 -0.60778163353E+01  0.16808959924E+02 -0.75971108468E+01  0.19421562201E+02  0.00000000000E+00 0. -1.
</event>
<event>
 7    1  0.2682317E-010  0.4778727E+02  0.7816164E-02  0.1312668E+00
        -11   -1    0    0    0    0  0.00000000000E+00  0.00000000000E+00  0.45593999997E+02  0.45594000000E+02  0.51100000000E-03 0. -1.
         11   -1    0    0    0    0 -0.00000000000E+00 -0.00000000000E+00 -0.45593999997E+02  0.45594000000E+02  0.51100000000E-03 0.  1.
    9900012    2    1    2    0    0 -0.13630149238E+02 -0.40962840074E+02 -0.44596211942E+01  0.47787268942E+02  0.19999990413E+02 0.  0.
         12    1    1    2    0    0  0.13630149238E+02  0.40962840074E+02  0.44596211942E+01  0.43400731058E+02  0.00000000000E+00 0. -1.
         11    1    3    3    0    0  0.85447435322E+00 -0.21905291561E+01  0.38498286331E+00  0.23825944830E+01  0.51100000000E-03 0. -1.
        -11    1    3    3    0    0 -0.67007615227E+00 -0.13616786615E+02  0.57719646353E+01  0.14804778140E+02  0.51100000000E-03 0.  1.
        -12    1    3    3    0    0 -0.13814547439E+02 -0.25155524303E+02 -0.10616568693E+02  0.30599896319E+02  0.00000000000E+00 0.  1.
</event>
<event>
 7    1  0.2682317E-010  0.4778726E+02  0.7816164E-02  0.1312668E+00
        -11   -1    0    0    0    0  0.00000000000E+00  0.00000000000E+00  0.45593999997E+02  0.45594000000E+02  0.51100000000E-03 0. -1.
         11   -1    0    0    0    0 -0.00000000000E+00 -0.00000000000E+00 -0.45593999997E+02  0.45594000000E+02  0.51100000000E-03 0.  1.
    9900012    2    1    2    0    0  0.25563029730E+02 -0.10640785295E+02 -0.33420489222E+02  0.47787263826E+02  0.19999967087E+02 0.  0.
         12    1    1    2    0    0 -0.25563029730E+02  0.10640785295E+02  0.33420489222E+02  0.43400736174E+02  0.00000000000E+00 0. -1.
         11    1    3    3    0    0 -0.10178352260E+01 -0.46717228454E+00 -0.14306949570E+01  0.18169003307E+01  0.51100000000E-03 0. -1.
        -11    1    3    3    0    0  0.10952300569E+02 -0.83031521238E+01 -0.48088785394E+01  0.14560924971E+02  0.51100000000E-03 0.  1.
        -12    1    3    3    0    0  0.15628564387E+02 -0.18704608866E+01 -0.27180915725E+02  0.31409438524E+02  0.00000000000E+00 0.  1.
</event>
<event>
 7    1  0.2682317E-010  0.4778727E+02  0.7816164E-02  0.1312668E+00
        -11   -1    0    0    0    0  0.00000000000E+00  0.00000000000E+00  0.45593999997E+02  0.45594000000E+02  0.51100000000E-03 0.  1.
         11   -1    0    0    0    0 -0.00000000000E+00 -0.00000000000E+00 -0.45593999997E+02  0.45594000000E+02  0.51100000000E-03 0. -1.
    9900012    2    1    2    0    0  0.27965611211E+02 -0.25853854784E+02  0.20811680487E+02  0.47787271178E+02  0.20000000609E+02 0.  0.
         12    1    1    2    0    0 -0.27965611211E+02  0.25853854784E+02 -0.20811680487E+02  0.43400728822E+02  0.00000000000E+00 0. -1.
         11    1    3    3    0    0  0.68768004008E+01  0.21064053701E+01  0.60526300569E+01  0.94000882018E+01  0.51100000000E-03 0. -1.
        -11    1    3    3    0    0  0.15100091778E+02 -0.15671931351E+02  0.93342572865E+01  0.23680172367E+02  0.51100000000E-03 0.  1.
        -12    1    3    3    0    0  0.59887190319E+01 -0.12288328803E+02  0.54247931440E+01  0.14707010609E+02  0.00000000000E+00 0.  1.
</event>
<event>
 7    1  0.2682317E-010  0.4778726E+02  0.7816164E-02  0.1312668E+00
        -11   -1    0    0    0    0  0.00000000000E+00  0.00000000000E+00  0.45593999997E+02  0.45594000000E+02  0.51100000000E-03 0. -1.
         11   -1    0    0    0    0 -0.00000000000E+00 -0.00000000000E+00 -0.45593999997E+02  0.45594000000E+02  0.51100000000E-03 0.  1.
    9900012    2    1    2    0    0 -0.36034295678E+02  0.24050877681E+02 -0.25901470708E+01  0.47787262171E+02  0.19999959543E+02 0.  0.
         12    1    1    2    0    0  0.36034295678E+02 -0.24050877681E+02  0.25901470708E+01  0.43400737829E+02  0.00000000000E+00 0. -1.
         11    1    3    3    0    0 -0.11214286275E+02  0.78979180213E+01 -0.18184234700E+01  0.13836328628E+02  0.51100000000E-03 0. -1.
        -11    1    3    3    0    0 -0.21901879678E+02  0.58338096393E+01 -0.33756218511E+01  0.22915507664E+02  0.51100000000E-03 0.  1.
         12    1    3    3    0    0 -0.29181297247E+01  0.10319150020E+02  0.26038982503E+01  0.11035425879E+02  0.00000000000E+00 0. -1.
</event>
<event>
 7    1  0.2682317E-010  0.4778727E+02  0.7816164E-02  0.1312668E+00
        -11   -1    0    0    0    0  0.00000000000E+00  0.00000000000E+00  0.45593999997E+02  0.45594000000E+02  0.51100000000E-03 0.  1.
         11   -1    0    0    0    0 -0.00000000000E+00 -0.00000000000E+00 -0.45593999997E+02  0.45594000000E+02  0.51100000000E-03 0. -1.
    9900012    2    1    2    0    0 -0.12878701523E+02  0.37990627140E+01  0.41271408877E+02  0.47787273956E+02  0.20000013276E+02 0.  0.
         12    1    1    2    0    0  0.12878701523E+02 -0.37990627140E+01 -0.41271408877E+02  0.43400726044E+02  0.00000000000E+00 0. -1.
         11    1    3    3    0    0 -0.71265090689E+01  0.41459607550E+01  0.19640057690E+02  0.21300422259E+02  0.51100000000E-03 0. -1.
        -11    1    3    3    0    0 -0.82685420729E+01 -0.17457852248E+00  0.22377218025E+02  0.23856637493E+02  0.51100000000E-03 0.  1.
         12    1    3    3    0    0  0.25163496190E+01 -0.17231951856E+00 -0.74586683753E+00  0.26302142043E+01  0.00000000000E+00 0. -1.
</event>
<event>
 7    1  0.2682317E-010  0.4778727E+02  0.7816164E-02  0.1312668E+00
        -11   -1    0    0    0    0  0.00000000000E+00  0.00000000000E+00  0.45593999997E+02  0.45594000000E+02  0.51100000000E-03 0. -1.
         11   -1    0    0    0    0 -0.00000000000E+00 -0.00000000000E+00 -0.45593999997E+02  0.45594000000E+02  0.51100000000E-03 0.  1.
    9900012    2    1    2    0    0  0.42738786681E+01 -0.55863985028E+01 -0.42826967505E+02  0.47787273822E+02  0.20000012662E+02 0.  0.
         12    1    1    2    0    0 -0.42738786681E+01  0.55863985028E+01  0.42826967505E+02  0.43400726178E+02  0.00000000000E+00 0. -1.
         11    1    3    3    0    0 -0.67314846453E+00  0.24402028137E+00 -0.69665311443E+01  0.70032300547E+01  0.51100000000E-03 0. -1.
        -11    1    3    3    0    0  0.90078959748E+01 -0.12207392935E+01 -0.32570626492E+02  0.33815353091E+02  0.51100000000E-03 0.  1.
         12    1    3    3    0    0 -0.40608688422E+01 -0.46096794907E+01 -0.32898098687E+01  0.69686906756E+01  0.00000000000E+00 0. -1.
</event>
<event>
 7    1  0.2682317E-010  0.4778727E+02  0.7816164E-02  0.1312668E+00
        -11   -1    0    0    0    0  0.00000000000E+00  0.00000000000E+00  0.45593999997E+02  0.45594000000E+02  0.51100000000E-03 0. -1.
         11   -1    0    0    0    0 -0.00000000000E+00 -0.00000000000E+00 -0.45593999997E+02  0.45594000000E+02  0.51100000000E-03 0.  1.
    9900012    2    1    2    0    0  0.22385922692E+02 -0.15972682264E+02 -0.33576288693E+02  0.47787271021E+02  0.19999999893E+02 0.  0.
         12    1    1    2    0    0 -0.22385922692E+02  0.15972682264E+02  0.33576288693E+02  0.43400728979E+02  0.00000000000E+00 0. -1.
         11    1    3    3    0    0 -0.93873889196E+00 -0.50534533016E+00  0.57748871322E+00  0.12124760142E+01  0.51100000000E-03 0. -1.
        -11    1    3    3    0    0  0.37699635696E+01 -0.90251044388E+01 -0.52878027797E+01  0.11118722676E+02  0.51100000000E-03 0.  1.
        -12    1    3    3    0    0  0.19554698015E+02 -0.64422324954E+01 -0.28865974627E+02  0.35456072331E+02  0.00000000000E+00 0.  1.
</event>
<event>
 7    1  0.2682317E-010  0.4778727E+02  0.7816164E-02  0.1312668E+00
        -11   -1    0    0    0    0  0.00000000000E+00  0.00000000000E+00  0.45593999997E+02  0.45594000000E+02  0.51100000000E-03 0.  1.
         11   -1    0    0    0    0 -0.00000000000E+00 -0.00000000000E+00 -0.45593999997E+02  0.45594000000E+02  0.51100000000E-03 0. -1.
    9900012    2    1    2    0    0  0.16116702264E+02  0.20975609164E+02  0.34407838829E+02  0.47787266775E+02  0.19999980532E+02 0.  0.
         12    1    1    2    0    0 -0.16116702264E+02 -0.20975609164E+02 -0.34407838829E+02  0.43400733225E+02  0.00000000000E+00 0. -1.
         11    1    3    3    0    0 -0.15192641567E+01 -0.14346273878E+00  0.24037792351E+01  0.28472618439E+01  0.51100000000E-03 0. -1.
        -11    1    3    3    0    0 -0.96799656693E+00  0.12444581421E+01 -0.12154209743E+01  0.19907138988E+01  0.51100000000E-03 0.  1.
        -12    1    3    3    0    0  0.18603962987E+02  0.19874613760E+02  0.33219480568E+02  0.42949291032E+02  0.00000000000E+00 0.  1.
</event>
<event>
 7    1  0.2682317E-010  0.4778727E+02  0.7816164E-02  0.1312668E+00
        -11   -1    0    0    0    0  0.00000000000E+00  0.00000000000E+00  0.45593999997E+02  0.45594000000E+02  0.51100000000E-03 0. -1.
         11   -1    0    0    0    0 -0.00000000000E+00 -0.00000000000E+00 -0.45593999997E+02  0.45594000000E+02  0.51100000000E-03 0.  1.
    9900012    2    1    2    0    0  0.41879898399E+02 -0.18708358184E+01 -0.11233762314E+02  0.47787270372E+02  0.19999996933E+02 0.  0.
         12    1    1    2    0    0 -0.41879898399E+02  0.18708358184E+01  0.11233762314E+02  0.43400729628E+02  0.00000000000E+00 0. -1.
         11    1    3    3    0    0  0.66178016231E+01 -0.85530077800E+00  0.28533138963E+01  0.72572886256E+01  0.51100000000E-03 0. -1.
        -11    1    3    3    0    0  0.30067827114E+02 -0.42617772654E+01 -0.70036342443E+01  0.31165491585E+02  0.51100000000E-03 0.  1.
        -12    1    3    3    0    0  0.51942696612E+01  0.32462422249E+01 -0.70834419660E+01  0.93644901614E+01  0.00000000000E+00 0.  1.
</event>
<event>
 7    1  0.2682317E-010  0.4778727E+02  0.7816164E-02  0.1312668E+00
        -11   -1    0    0    0    0  0.00000000000E+00  0.00000000000E+00  0.45593999997E+02  0.45594000000E+02  0.51100000000E-03 0.  1.
         11   -1    0    0    0    0 -0.00000000000E+00 -0.00000000000E+00 -0.45593999997E+02  0.45594000000E+02  0.51100000000E-03 0. -1.
    9900012    2    1    2    0    0 -0.33838163155E+02 -0.25320181149E+02  0.98737062644E+01  0.47787274954E+02  0.20000017825E+02 0.  0.
         12    1    1    2    0    0  0.33838163155E+02  0.25320181149E+02 -0.98737062644E+01  0.43400725046E+02  0.00000000000E+00 0. -1.
         11    1    3    3    0    0 -0.49395583848E+01 -0.16903957547E+01  0.67616739514E+01  0.85426523826E+01  0.51100000000E-03 0. -1.
        -11    1    3    3    0    0 -0.16397424791E+02 -0.64072456130E+01  0.35483229935E+01  0.17958812111E+02  0.51100000000E-03 0.  1.
         12    1    3    3    0    0 -0.12501179979E+02 -0.17222539781E+02 -0.43629068045E+00  0.21285810460E+02  0.00000000000E+00 0. -1.
</event>
<event>
 7    1  0.2682317E-010  0.4778727E+02  0.7816164E-02  0.1312668E+00
        -11   -1    0    0    0    0  0.00000000000E+00  0.00000000000E+00  0.45593999997E+02  0.45594000000E+02  0.51100000000E-03 0.  1.
         11   -1    0    0    0    0 -0.00000000000E+00 -0.00000000000E+00 -0.45593999997E+02  0.45594000000E+02  0.51100000000E-03 0. -1.
    9900012    2    1    2    0    0 -0.24605378686E+02  0.28466978478E+02  0.21629369289E+02  0.47787272589E+02  0.20000007042E+02 0.  0.
         12    1    1    2    0    0  0.24605378686E+02 -0.28466978478E+02 -0.21629369289E+02  0.43400727411E+02  0.00000000000E+00 0. -1.
         11    1    3    3    0    0 -0.46602669293E+01  0.19758247532E+01  0.41148527773E+00  0.50785127451E+01  0.51100000000E-03 0. -1.
        -11    1    3    3    0    0 -0.16684906132E+02  0.83973313416E+01  0.10868312890E+02  0.21610680036E+02  0.51100000000E-03 0.  1.
         12    1    3    3    0    0 -0.32602056246E+01  0.18093822383E+02  0.10349571122E+02  0.21098079807E+02  0.00000000000E+00 0. -1.
</event>
<event>
 7    1  0.2682317E-010  0.4778727E+02  0.7816164E-02  0.1312668E+00
        -11   -1    0    0    0    0  0.00000000000E+00  0.00000000000E+00  0.45593999997E+02  0.45594000000E+02  0.51100000000E-03 0.  1.
         11   -1    0    0    0    0 -0.00000000000E+00 -0.00000000000E+00 -0.45593999997E+02  0.45594000000E+02  0.51100000000E-03 0. -1.
    9900012    2    1    2    0    0  0.26512036697E+01  0.39105078040E+02  0.18638324713E+02  0.47787272385E+02  0.20000006113E+02 0.  0.
         12    1    1    2    0    0 -0.26512036697E+01 -0.39105078040E+02 -0.18638324713E+02  0.43400727615E+02  0.00000000000E+00 0. -1.
         11    1    3    3    0    0  0.37583418369E+01  0.95849642480E+00  0.16208891196E+00  0.38820254811E+01  0.51100000000E-03 0. -1.
        -11    1    3    3    0    0  0.12849421891E+01  0.60140653693E+00 -0.80459311692E+00  0.16309925190E+01  0.51100000000E-03 0.  1.
        -12    1    3    3    0    0 -0.23920803563E+01  0.37545175078E+02  0.19280828918E+02  0.42274254385E+02  0.00000000000E+00 0.  1.
</event>
<event>
 7    1  0.2682317E-010  0.4778727E+02  0.7816164E-02  0.1312668E+00
        -11   -1    0    0    0    0  0.00000000000E+00  0.00000000000E+00  0.45593999997E+02  0.45594000000E+02  0.51100000000E-03 0.  1.
         11   -1    0    0    0    0 -0.00000000000E+00 -0.00000000000E+00 -0.45593999997E+02  0.45594000000E+02  0.51100000000E-03 0. -1.
    9900012    2    1    2    0    0  0.15154741813E+02 -0.35595643255E+02  0.19669953742E+02  0.47787273067E+02  0.20000009220E+02 0.  0.
         12    1    1    2    0    0 -0.15154741813E+02  0.35595643255E+02 -0.19669953742E+02  0.43400726933E+02  0.00000000000E+00 0. -1.
         11    1    3    3    0    0  0.80576503867E+01 -0.21614612070E+02  0.82589303237E+01  0.24501573726E+02  0.51100000000E-03 0. -1.
        -11    1    3    3    0    0  0.76610501125E+00 -0.13895115146E+02  0.85919725261E+01  0.16354911616E+02  0.51100000000E-03 0.  1.
         12    1    3    3    0    0  0.63309864149E+01 -0.85916038170E-01  0.28190508919E+01  0.69307877245E+01  0.00000000000E+00 0. -1.
</event>
<event>
 7    1  0.2682317E-010  0.4778727E+02  0.7816164E-02  0.1312668E+00
        -11   -1    0    0    0    0  0.00000000000E+00  0.00000000000E+00  0.45593999997E+02  0.45594000000E+02  0.51100000000E-03 0.  1.
         11   -1    0    0    0    0 -0.00000000000E+00 -0.00000000000E+00 -0.45593999997E+02  0.45594000000E+02  0.51100000000E-03 0. -1.
    9900012    2    1    2    0    0  0.23719114636E+02 -0.58229108618E+01  0.35876464107E+02  0.47787269973E+02  0.19999995117E+02 0.  0.
         12    1    1    2    0    0 -0.23719114636E+02  0.58229108618E+01 -0.35876464107E+02  0.43400730027E+02  0.00000000000E+00 0. -1.
         11    1    3    3    0    0  0.31265835954E+01  0.10323614595E+01  0.30140375480E+00  0.33063786303E+01  0.51100000000E-03 0. -1.
        -11    1    3    3    0    0  0.10254418101E+02  0.42395358999E+01  0.19097370696E+02  0.22087017069E+02  0.51100000000E-03 0.  1.
         12    1    3    3    0    0  0.10338112940E+02 -0.11094808221E+02  0.16477689656E+02  0.22393874275E+02  0.00000000000E+00 0. -1.
</event>
<event>
 7    1  0.2682317E-010  0.4778727E+02  0.7816164E-02  0.1312668E+00
        -11   -1    0    0    0    0  0.00000000000E+00  0.00000000000E+00  0.45593999997E+02  0.45594000000E+02  0.51100000000E-03 0. -1.
         11   -1    0    0    0    0 -0.00000000000E+00 -0.00000000000E+00 -0.45593999997E+02  0.45594000000E+02  0.51100000000E-03 0.  1.
    9900012    2    1    2    0    0 -0.27260601231E+02 -0.31484067249E+02  0.12216252675E+02  0.47787266142E+02  0.19999977646E+02 0.  0.
         12    1    1    2    0    0  0.27260601231E+02  0.31484067249E+02 -0.12216252675E+02  0.43400733858E+02  0.00000000000E+00 0. -1.
         11    1    3    3    0    0 -0.11057886429E+02 -0.64751633760E+01 -0.73721143552E+00  0.12835422626E+02  0.51100000000E-03 0. -1.
        -11    1    3    3    0    0 -0.64659970179E+01 -0.37902724719E+01 -0.12880801035E+01  0.76048953616E+01  0.51100000000E-03 0.  1.
         12    1    3    3    0    0 -0.97367177843E+01 -0.21218631401E+02  0.14241544214E+02  0.27346948154E+02  0.00000000000E+00 0. -1.
</event>
<event>
 7    1  0.2682317E-010  0.4778727E+02  0.7816164E-02  0.1312668E+00
        -11   -1    0    0    0    0  0.00000000000E+00  0.00000000000E+00  0.45593999997E+02  0.45594000000E+02  0.51100000000E-03 0.  1.
         11   -1    0    0    0    0 -0.00000000000E+00 -0.00000000000E+00 -0.45593999997E+02  0.45594000000E+02  0.51100000000E-03 0. -1.
    9900012    2    1    2    0    0  0.25562097414E+02  0.14244218035E+02  0.32051595770E+02  0.47787270017E+02  0.19999995317E+02 0.  0.
         12    1    1    2    0    0 -0.25562097414E+02 -0.14244218035E+02 -0.32051595770E+02  0.43400729983E+02  0.00000000000E+00 0. -1.
         11    1    3    3    0    0  0.25924688963E+01 -0.15059283557E+00 -0.43398710505E+00  0.26328536322E+01  0.51100000000E-03 0. -1.
        -11    1    3    3    0    0  0.13533142332E+02  0.25702306376E+01  0.24352295151E+02  0.27978318504E+02  0.51100000000E-03 0.  1.
        -12    1    3    3    0    0  0.94364861860E+01  0.11824580233E+02  0.81332877236E+01  0.17176097881E+02  0.00000000000E+00 0.  1.
</event>
<event>
 7    1  0.2682317E-010  0.4778728E+02  0.7816164E-02  0.1312668E+00
        -11   -1    0    0    0    0  0.00000000000E+00  0.00000000000E+00  0.45593999997E+02  0.45594000000E+02  0.51100000000E-03 0.  1.
         11   -1    0    0    0    0 -0.00000000000E+00 -0.00000000000E+00 -0.45593999997E+02  0.45594000000E+02  0.51100000000E-03 0. -1.
    9900012    2    1    2    0    0  0.19537809705E+02 -0.35458044967E+02  0.15640448921E+02  0.47787278769E+02  0.20000035219E+02 0.  0.
         12    1    1    2    0    0 -0.19537809705E+02  0.35458044967E+02 -0.15640448921E+02  0.43400721231E+02  0.00000000000E+00 0. -1.
         11    1    3    3    0    0  0.80897884774E+01 -0.16303043092E+02 -0.22583085285E+01  0.18339407007E+02  0.51100000000E-03 0. -1.
        -11    1    3    3    0    0  0.26570161128E+01 -0.43122559788E+00  0.23020564791E+01  0.35419139507E+01  0.51100000000E-03 0.  1.
        -12    1    3    3    0    0  0.87910051151E+01 -0.18723776276E+02  0.15596700971E+02  0.25905957812E+02  0.00000000000E+00 0.  1.
</event>
<event>
 7    1  0.2682317E-010  0.4778727E+02  0.7816164E-02  0.1312668E+00
        -11   -1    0    0    0    0  0.00000000000E+00  0.00000000000E+00  0.45593999997E+02  0.45594000000E+02  0.51100000000E-03 0.  1.
         11   -1    0    0    0    0 -0.00000000000E+00 -0.00000000000E+00 -0.45593999997E+02  0.45594000000E+02  0.51100000000E-03 0. -1.
    9900012    2    1    2    0    0  0.16295646813E+02 -0.11700114524E+02  0.38486134237E+02  0.47787270589E+02  0.19999997923E+02 0.  0.
         12    1    1    2    0    0 -0.16295646813E+02  0.11700114524E+02 -0.38486134237E+02  0.43400729411E+02  0.00000000000E+00 0. -1.
         11    1    3    3    0    0 -0.35759557253E+01 -0.66967850470E+01  0.10273940955E+02  0.12774515738E+02  0.51100000000E-03 0. -1.
        -11    1    3    3    0    0  0.46865851082E+01 -0.23334278209E+01  0.85638747337E+01  0.10037375956E+02  0.51100000000E-03 0.  1.
         12    1    3    3    0    0  0.15185017430E+02 -0.26699016563E+01  0.19648318548E+02  0.24975378895E+02  0.00000000000E+00 0. -1.
</event>
<event>
 7    1  0.2682317E-010  0.4778727E+02  0.7816164E-02  0.1312668E+00
        -11   -1    0    0    0    0  0.00000000000E+00  0.00000000000E+00  0.45593999997E+02  0.45594000000E+02  0.51100000000E-03 0.  1.
         11   -1    0    0    0    0 -0.00000000000E+00 -0.00000000000E+00 -0.45593999997E+02  0.45594000000E+02  0.51100000000E-03 0. -1.
    9900012    2    1    2    0    0 -0.51378077198E+01 -0.12893152408E+02  0.41121683249E+02  0.47787270970E+02  0.19999999658E+02 0.  0.
         12    1    1    2    0    0  0.51378077198E+01  0.12893152408E+02 -0.41121683249E+02  0.43400729030E+02  0.00000000000E+00 0. -1.
         11    1    3    3    0    0  0.57308069751E+01 -0.13171935069E+01  0.40668890153E+01  0.71495967610E+01  0.51100000000E-03 0. -1.
        -11    1    3    3    0    0 -0.19183478447E+01 -0.32723121413E+01  0.14529335432E+02  0.15016313581E+02  0.51100000000E-03 0.  1.
        -12    1    3    3    0    0 -0.89502668502E+01 -0.83036467597E+01  0.22525458801E+02  0.25621360628E+02  0.00000000000E+00 0.  1.
</event>
<event>
 7    1  0.2682317E-010  0.4778727E+02  0.7816164E-02  0.1312668E+00
        -11   -1    0    0    0    0  0.00000000000E+00  0.00000000000E+00  0.45593999997E+02  0.45594000000E+02  0.51100000000E-03 0.  1.
         11   -1    0    0    0    0 -0.00000000000E+00 -0.00000000000E+00 -0.45593999997E+02  0.45594000000E+02  0.51100000000E-03 0. -1.
    9900012    2    1    2    0    0  0.69637483870E+01 -0.23535066352E+02  0.35794278345E+02  0.47787268416E+02  0.19999988015E+02 0.  0.
         12    1    1    2    0    0 -0.69637483870E+01  0.23535066352E+02 -0.35794278345E+02  0.43400731584E+02  0.00000000000E+00 0. -1.
         11    1    3    3    0    0 -0.42828863526E+01 -0.11599906735E+01  0.62565041646E+01  0.76702371863E+01  0.51100000000E-03 0. -1.
        -11    1    3    3    0    0 -0.13930262739E+01 -0.50797653439E+01  0.90728143507E+01  0.10490972245E+02  0.51100000000E-03 0.  1.
        -12    1    3    3    0    0  0.12639661014E+02 -0.17295310334E+02  0.20464959830E+02  0.29626058984E+02  0.00000000000E+00 0.  1.
</event>
<event>
 7    1  0.2682317E-010  0.4778726E+02  0.7816164E-02  0.1312668E+00
        -11   -1    0    0    0    0  0.00000000000E+00  0.00000000000E+00  0.45593999997E+02  0.45594000000E+02  0.51100000000E-03 0. -1.
         11   -1    0    0    0    0 -0.00000000000E+00 -0.00000000000E+00 -0.45593999997E+02  0.45594000000E+02  0.51100000000E-03 0.  1.
    9900012    2    1    2    0    0  0.28067449867E+02  0.30749965225E+02 -0.12258954791E+02  0.47787261804E+02  0.19999957871E+02 0.  0.
         12    1    1    2    0    0 -0.28067449867E+02 -0.30749965225E+02  0.12258954791E+02  0.43400738196E+02  0.00000000000E+00 0. -1.
         11    1    3    3    0    0  0.14703028386E+02  0.15264131686E+02  0.13384756408E+01  0.21235919503E+02  0.51100000000E-03 0. -1.
        -11    1    3    3    0    0  0.56394707516E+01  0.11600469442E+02 -0.37213125918E+01  0.13424704440E+02  0.51100000000E-03 0.  1.
         12    1    3    3    0    0  0.77249507299E+01  0.38853640962E+01 -0.98761178403E+01  0.13126637861E+02  0.00000000000E+00 0. -1.
</event>
<event>
 7    1  0.2682317E-010  0.4778727E+02  0.7816164E-02  0.1312668E+00
        -11   -1    0    0    0    0  0.00000000000E+00  0.00000000000E+00  0.45593999997E+02  0.45594000000E+02  0.51100000000E-03 0. -1.
         11   -1    0    0    0    0 -0.00000000000E+00 -0.00000000000E+00 -0.45593999997E+02  0.45594000000E+02  0.51100000000E-03 0.  1.
    9900012    2    1    2    0    0 -0.77269362544E+01 -0.30681798994E+01 -0.42596994747E+02  0.47787271512E+02  0.20000002132E+02 0.  0.
         12    1    1    2    0    0  0.77269362544E+01  0.30681798994E+01  0.42596994747E+02  0.43400728488E+02  0.00000000000E+00 0. -1.
         11    1    3    3    0    0 -0.58424035787E+01 -0.95242204750E+01 -0.21220817762E+02  0.23982651271E+02  0.51100000000E-03 0. -1.
        -11    1    3    3    0    0 -0.29177715661E+01  0.10080312527E+01 -0.15174925661E+02  0.15485731723E+02  0.51100000000E-03 0.  1.
         12    1    3    3    0    0  0.10332388904E+01  0.54480093229E+01 -0.62012513239E+01  0.83188885177E+01  0.00000000000E+00 0. -1.
</event>
<event>
 7    1  0.2682317E-010  0.4778727E+02  0.7816164E-02  0.1312668E+00
        -11   -1    0    0    0    0  0.00000000000E+00  0.00000000000E+00  0.45593999997E+02  0.45594000000E+02  0.51100000000E-03 0. -1.
         11   -1    0    0    0    0 -0.00000000000E+00 -0.00000000000E+00 -0.45593999997E+02  0.45594000000E+02  0.51100000000E-03 0.  1.
    9900012    2    1    2    0    0  0.26734092015E+02  0.26787839094E+02  0.21244368842E+02  0.47787271818E+02  0.20000003529E+02 0.  0.
         12    1    1    2    0    0 -0.26734092015E+02 -0.26787839094E+02 -0.21244368842E+02  0.43400728182E+02  0.00000000000E+00 0. -1.
         11    1    3    3    0    0  0.16291298570E+02  0.16344106265E+02  0.12309524567E+02  0.26154552454E+02  0.51100000000E-03 0. -1.
        -11    1    3    3    0    0  0.11651557971E+02  0.92442988308E+01  0.26326596499E+01  0.15104527835E+02  0.51100000000E-03 0.  1.
         12    1    3    3    0    0 -0.12087645267E+01  0.11994339979E+01  0.63021846252E+01  0.65281915296E+01  0.00000000000E+00 0. -1.
</event>
<event>
 7    1  0.2682317E-010  0.4778728E+02  0.7816164E-02  0.1312668E+00
        -11   -1    0    0    0    0  0.00000000000E+00  0.00000000000E+00  0.45593999997E+02  0.45594000000E+02  0.51100000000E-03 0.  1.
         11   -1    0    0    0    0 -0.00000000000E+00 -0.00000000000E+00 -0.45593999997E+02  0.45594000000E+02  0.51100000000E-03 0. -1.
    9900012    2    1    2    0    0 -0.12773215121E+02 -0.33543566737E+02  0.24398709331E+02  0.47787275225E+02  0.20000019061E+02 0.  0.
         12    1    1    2    0    0  0.12773215121E+02  0.33543566737E+02 -0.24398709331E+02  0.43400724775E+02  0.00000000000E+00 0. -1.
         11    1    3    3    0    0 -0.92025276900E+01 -0.12878731441E+02  0.13502188162E+02  0.20805223499E+02  0.51100000000E-03 0. -1.
        -11    1    3    3    0    0 -0.45934790236E+01 -0.24704732708E+01 -0.87362513007E+00  0.52883370591E+01  0.51100000000E-03 0.  1.
         12    1    3    3    0    0  0.10227915926E+01 -0.18194362025E+02  0.11770146300E+02  0.21693714667E+02  0.00000000000E+00 0. -1.
</event>
<event>
 7    1  0.2682317E-010  0.4778727E+02  0.7816164E-02  0.1312668E+00
        -11   -1    0    0    0    0  0.00000000000E+00  0.00000000000E+00  0.45593999997E+02  0.45594000000E+02  0.51100000000E-03 0.  1.
         11   -1    0    0    0    0 -0.00000000000E+00 -0.00000000000E+00 -0.45593999997E+02  0.45594000000E+02  0.51100000000E-03 0. -1.
    9900012    2    1    2    0    0  0.11275210402E+02  0.28075849167E+02  0.31116547615E+02  0.47787271763E+02  0.20000003274E+02 0.  0.
         12    1    1    2    0    0 -0.11275210402E+02 -0.28075849167E+02 -0.31116547615E+02  0.43400728237E+02  0.00000000000E+00 0. -1.
         11    1    3    3    0    0  0.26044537568E+00 -0.23226596698E+01  0.30119597460E+01  0.38124115082E+01  0.51100000000E-03 0. -1.
        -11    1    3    3    0    0  0.16862295144E+00  0.10008920118E+02  0.45793987198E+01  0.11008079239E+02  0.51100000000E-03 0.  1.
        -12    1    3    3    0    0  0.10846142075E+02  0.20389588719E+02  0.23525189149E+02  0.32966781016E+02  0.00000000000E+00 0.  1.
</event>
<event>
 7    1  0.2682317E-010  0.4778727E+02  0.7816164E-02  0.1312668E+00
        -11   -1    0    0    0    0  0.00000000000E+00  0.00000000000E+00  0.45593999997E+02  0.45594000000E+02  0.51100000000E-03 0. -1.
         11   -1    0    0    0    0 -0.00000000000E+00 -0.00000000000E+00 -0.45593999997E+02  0.45594000000E+02  0.51100000000E-03 0.  1.
    9900012    2    1    2    0    0  0.26017071684E+01  0.32609856993E+02 -0.28521074809E+02  0.47787270035E+02  0.19999995395E+02 0.  0.
         12    1    1    2    0    0 -0.26017071684E+01 -0.32609856993E+02  0.28521074809E+02  0.43400729965E+02  0.00000000000E+00 0. -1.
         11    1    3    3    0    0 -0.47192175693E+01  0.58361954266E+01 -0.83981602278E+01  0.11263271594E+02  0.51100000000E-03 0. -1.
        -11    1    3    3    0    0  0.69046521137E-01  0.20651549770E+02 -0.16230245975E+02  0.26266179014E+02  0.51100000000E-03 0.  1.
         12    1    3    3    0    0  0.72518782165E+01  0.61221117959E+01 -0.38926686059E+01  0.10257819426E+02  0.00000000000E+00 0. -1.
</event>
<event>
 7    1  0.2682317E-010  0.4778727E+02  0.7816164E-02  0.1312668E+00
        -11   -1    0    0    0    0  0.00000000000E+00  0.00000000000E+00  0.45593999997E+02  0.45594000000E+02  0.51100000000E-03 0.  1.
         11   -1    0    0    0    0 -0.00000000000E+00 -0.00000000000E+00 -0.45593999997E+02  0.45594000000E+02  0.51100000000E-03 0. -1.
    9900012    2    1    2    0    0  0.15348254211E+02  0.38194014169E+02  0.13757606969E+02  0.47787269877E+02  0.19999994678E+02 0.  0.
         12    1    1    2    0    0 -0.15348254211E+02 -0.38194014169E+02 -0.13757606969E+02  0.43400730123E+02  0.00000000000E+00 0. -1.
         11    1    3    3    0    0 -0.12160738311E+01  0.19909469011E+02  0.20840177716E+01  0.20055147025E+02  0.51100000000E-03 0. -1.
        -11    1    3    3    0    0  0.54289953434E+01  0.94185336941E+01  0.41881841704E+01  0.11650049540E+02  0.51100000000E-03 0.  1.
         12    1    3    3    0    0  0.11135332699E+02  0.88660114638E+01  0.74854050268E+01  0.16082073312E+02  0.00000000000E+00 0. -1.
</event>
<event>
 7    1  0.2682317E-010  0.4778727E+02  0.7816164E-02  0.1312668E+00
        -11   -1    0    0    0    0  0.00000000000E+00  0.00000000000E+00  0.45593999997E+02  0.45594000000E+02  0.51100000000E-03 0. -1.
         11   -1    0    0    0    0 -0.00000000000E+00 -0.00000000000E+00 -0.45593999997E+02  0.45594000000E+02  0.51100000000E-03 0.  1.
    9900012    2    1    2    0    0 -0.39577517350E+02  0.17298905972E+02 -0.42416230901E+01  0.47787269662E+02  0.19999993696E+02 0.  0.
         12    1    1    2    0    0  0.39577517350E+02 -0.17298905972E+02  0.42416230901E+01  0.43400730338E+02  0.00000000000E+00 0. -1.
         11    1    3    3    0    0 -0.64979959359E+01 -0.14857840839E+00  0.47919542631E+01  0.80751998519E+01  0.51100000000E-03 0. -1.
        -11    1    3    3    0    0 -0.61381614720E+01  0.76127404569E+01 -0.51167499943E+00  0.97924795168E+01  0.51100000000E-03 0.  1.
         12    1    3    3    0    0 -0.26941359943E+02  0.98347439233E+01 -0.85219023538E+01  0.29919590293E+02  0.00000000000E+00 0. -1.
</event>
<event>
 7    1  0.2682317E-010  0.4778727E+02  0.7816164E-02  0.1312668E+00
        -11   -1    0    0    0    0  0.00000000000E+00  0.00000000000E+00  0.45593999997E+02  0.45594000000E+02  0.51100000000E-03 0.  1.
         11   -1    0    0    0    0 -0.00000000000E+00 -0.00000000000E+00 -0.45593999997E+02  0.45594000000E+02  0.51100000000E-03 0. -1.
    9900012    2    1    2    0    0  0.35641415630E+02  0.24607718513E+02 -0.27879468485E+01  0.47787274589E+02  0.20000016162E+02 0.  0.
         12    1    1    2    0    0 -0.35641415630E+02 -0.24607718513E+02  0.27879468485E+01  0.43400725411E+02  0.00000000000E+00 0. -1.
         11    1    3    3    0    0  0.96051088528E+01 -0.63005833816E+00  0.32694345573E+01  0.10165839472E+02  0.51100000000E-03 0. -1.
        -11    1    3    3    0    0  0.13234502408E+02  0.75376270447E+01 -0.14773264558E+01  0.15301972722E+02  0.51100000000E-03 0.  1.
         12    1    3    3    0    0  0.12801804369E+02  0.17700149806E+02 -0.45800549500E+01  0.22319462395E+02  0.00000000000E+00 0. -1.
</event>
<event>
 7    1  0.2682317E-010  0.4778728E+02  0.7816164E-02  0.1312668E+00
        -11   -1    0    0    0    0  0.00000000000E+00  0.00000000000E+00  0.45593999997E+02  0.45594000000E+02  0.51100000000E-03 0.  1.
         11   -1    0    0    0    0 -0.00000000000E+00 -0.00000000000E+00 -0.45593999997E+02  0.45594000000E+02  0.51100000000E-03 0. -1.
    9900012    2    1    2    0    0 -0.52843428699E+00 -0.43152411798E+02  0.46057456335E+01  0.47787276739E+02  0.20000025962E+02 0.  0.
         12    1    1    2    0    0  0.52843428699E+00  0.43152411798E+02 -0.46057456335E+01  0.43400723261E+02  0.00000000000E+00 0. -1.
         11    1    3    3    0    0 -0.74011590207E+00 -0.15891313756E+02  0.88059631742E+01  0.18183140876E+02  0.51100000000E-03 0. -1.
        -11    1    3    3    0    0 -0.31484955034E+01 -0.21745493809E+02 -0.13490508486E+00  0.21972658568E+02  0.51100000000E-03 0.  1.
         12    1    3    3    0    0  0.33601771184E+01 -0.55156042332E+01 -0.40653124558E+01  0.76314772940E+01  0.00000000000E+00 0. -1.
</event>
<event>
 7    1  0.2682317E-010  0.4778727E+02  0.7816164E-02  0.1312668E+00
        -11   -1    0    0    0    0  0.00000000000E+00  0.00000000000E+00  0.45593999997E+02  0.45594000000E+02  0.51100000000E-03 0. -1.
         11   -1    0    0    0    0 -0.00000000000E+00 -0.00000000000E+00 -0.45593999997E+02  0.45594000000E+02  0.51100000000E-03 0.  1.
    9900012    2    1    2    0    0 -0.40668701726E+01 -0.39982223670E+02 -0.16386141941E+02  0.47787270855E+02  0.19999999136E+02 0.  0.
         12    1    1    2    0    0  0.40668701726E+01  0.39982223670E+02  0.16386141941E+02  0.43400729145E+02  0.00000000000E+00 0. -1.
         11    1    3    3    0    0  0.52049242721E+01 -0.28125101485E+02 -0.83255153890E+01  0.29789709246E+02  0.51100000000E-03 0. -1.
        -11    1    3    3    0    0 -0.13626030545E-01 -0.57168094765E+00  0.75338258959E+00  0.94582787125E+00  0.51100000000E-03 0.  1.
        -12    1    3    3    0    0 -0.92581684141E+01 -0.11285441238E+02 -0.88140091419E+01  0.17051733738E+02  0.00000000000E+00 0.  1.
</event>
<event>
 7    1  0.2682317E-010  0.4778729E+02  0.7816164E-02  0.1312668E+00
        -11   -1    0    0    0    0  0.00000000000E+00  0.00000000000E+00  0.45593999997E+02  0.45594000000E+02  0.51100000000E-03 0. -1.
         11   -1    0    0    0    0 -0.00000000000E+00 -0.00000000000E+00 -0.45593999997E+02  0.45594000000E+02  0.51100000000E-03 0.  1.
    9900012    2    1    2    0    0  0.11495310061E+02  0.18559710800E+02 -0.37510214938E+02  0.47787294440E+02  0.20000106670E+02 0.  0.
         12    1    1    2    0    0 -0.11495310061E+02 -0.18559710800E+02  0.37510214938E+02  0.43400705560E+02  0.00000000000E+00 0. -1.
         11    1    3    3    0    0  0.12174960972E+02  0.53070162236E+01 -0.18441767995E+02  0.22726480214E+02  0.51100000000E-03 0. -1.
        -11    1    3    3    0    0  0.26854045224E+01  0.10452110846E+01 -0.11124407745E+01  0.30889137894E+01  0.51100000000E-03 0.  1.
        -12    1    3    3    0    0 -0.33650554337E+01  0.12207483492E+02 -0.17956006168E+02  0.21971900437E+02  0.00000000000E+00 0.  1.
</event>
<event>
 7    1  0.2682317E-010  0.4778727E+02  0.7816164E-02  0.1312668E+00
        -11   -1    0    0    0    0  0.00000000000E+00  0.00000000000E+00  0.45593999997E+02  0.45594000000E+02  0.51100000000E-03 0. -1.
         11   -1    0    0    0    0 -0.00000000000E+00 -0.00000000000E+00 -0.45593999997E+02  0.45594000000E+02  0.51100000000E-03 0.  1.
    9900012    2    1    2    0    0  0.30367842558E+02 -0.20455078423E+02 -0.23302507516E+02  0.47787274759E+02  0.20000016937E+02 0.  0.
         12    1    1    2    0    0 -0.30367842558E+02  0.20455078423E+02  0.23302507516E+02  0.43400725241E+02  0.00000000000E+00 0. -1.
         11    1    3    3    0    0  0.14972933214E+01  0.26813628130E+01 -0.24867989700E+00  0.30811419600E+01  0.51100000000E-03 0. -1.
        -11    1    3    3    0    0  0.32208909482E+01 -0.25271299177E+01  0.66105171253E+00  0.41469885156E+01  0.51100000000E-03 0.  1.
        -12    1    3    3    0    0  0.25649658288E+02 -0.20609311318E+02 -0.23714879331E+02  0.40559144284E+02  0.00000000000E+00 0.  1.
</event>
<event>
 7    1  0.2682317E-010  0.4778726E+02  0.7816164E-02  0.1312668E+00
        -11   -1    0    0    0    0  0.00000000000E+00  0.00000000000E+00  0.45593999997E+02  0.45594000000E+02  0.51100000000E-03 0. -1.
         11   -1    0    0    0    0 -0.00000000000E+00 -0.00000000000E+00 -0.45593999997E+02  0.45594000000E+02  0.51100000000E-03 0.  1.
    9900012    2    1    2    0    0 -0.37483193534E+02 -0.13343924786E+02 -0.17337073671E+02  0.47787259803E+02  0.19999948744E+02 0.  0.
         12    1    1    2    0    0  0.37483193534E+02  0.13343924786E+02  0.17337073671E+02  0.43400740197E+02  0.00000000000E+00 0. -1.
         11    1    3    3    0    0 -0.81003448022E+01  0.80013764309E+00 -0.10050185155E+01  0.82015772044E+01  0.51100000000E-03 0. -1.
        -11    1    3    3    0    0 -0.16611899051E+02 -0.15945868307E+01 -0.23179773511E+01  0.16848469263E+02  0.51100000000E-03 0.  1.
         12    1    3    3    0    0 -0.12770949681E+02 -0.12549475599E+02 -0.14014077804E+02  0.22737213335E+02  0.00000000000E+00 0. -1.
</event>
<event>
 7    1  0.2682317E-010  0.4778728E+02  0.7816164E-02  0.1312668E+00
        -11   -1    0    0    0    0  0.00000000000E+00  0.00000000000E+00  0.45593999997E+02  0.45594000000E+02  0.51100000000E-03 0. -1.
         11   -1    0    0    0    0 -0.00000000000E+00 -0.00000000000E+00 -0.45593999997E+02  0.45594000000E+02  0.51100000000E-03 0.  1.
    9900012    2    1    2    0    0  0.15359314867E+02  0.37816486494E+02 -0.14752189012E+02  0.47787282442E+02  0.20000051966E+02 0.  0.
         12    1    1    2    0    0 -0.15359314867E+02 -0.37816486494E+02  0.14752189012E+02  0.43400717558E+02  0.00000000000E+00 0. -1.
         11    1    3    3    0    0  0.36142324509E+01  0.17566830454E+02 -0.11602126730E+02  0.21360373436E+02  0.51100000000E-03 0. -1.
        -11    1    3    3    0    0 -0.10589123884E+01  0.20121576176E+01 -0.34613322541E+01  0.41413639008E+01  0.51100000000E-03 0.  1.
        -12    1    3    3    0    0  0.12803994804E+02  0.18237498422E+02  0.31126997231E+00  0.22285545105E+02  0.00000000000E+00 0.  1.
</event>
<event>
 7    1  0.2682317E-010  0.4778727E+02  0.7816164E-02  0.1312668E+00
        -11   -1    0    0    0    0  0.00000000000E+00  0.00000000000E+00  0.45593999997E+02  0.45594000000E+02  0.51100000000E-03 0.  1.
         11   -1    0    0    0    0 -0.00000000000E+00 -0.00000000000E+00 -0.45593999997E+02  0.45594000000E+02  0.51100000000E-03 0. -1.
    9900012    2    1    2    0    0 -0.19166087432E+02 -0.25750703707E+02  0.29209346733E+02  0.47787267455E+02  0.19999983633E+02 0.  0.
         12    1    1    2    0    0  0.19166087432E+02  0.25750703707E+02 -0.29209346733E+02  0.43400732545E+02  0.00000000000E+00 0. -1.
         11    1    3    3    0    0 -0.32687046021E+00 -0.62914099614E+01  0.81850854507E+01  0.10328809597E+02  0.51100000000E-03 0. -1.
        -11    1    3    3    0    0 -0.53864240083E+01 -0.11981584105E+02  0.24966264368E+01  0.13371801116E+02  0.51100000000E-03 0.  1.
        -12    1    3    3    0    0 -0.13452792964E+02 -0.74777096412E+01  0.18527634846E+02  0.24086656742E+02  0.00000000000E+00 0.  1.
</event>
<event>
 7    1  0.2682317E-010  0.4778727E+02  0.7816164E-02  0.1312668E+00
        -11   -1    0    0    0    0  0.00000000000E+00  0.00000000000E+00  0.45593999997E+02  0.45594000000E+02  0.51100000000E-03 0. -1.
         11   -1    0    0    0    0 -0.00000000000E+00 -0.00000000000E+00 -0.45593999997E+02  0.45594000000E+02  0.51100000000E-03 0.  1.
    9900012    2    1    2    0    0 -0.55112961749E+01 -0.35312505744E+02 -0.24622664533E+02  0.47787273553E+02  0.20000011436E+02 0.  0.
         12    1    1    2    0    0  0.55112961749E+01  0.35312505744E+02  0.24622664533E+02  0.43400726447E+02  0.00000000000E+00 0. -1.
         11    1    3    3    0    0  0.32695589979E+01 -0.14990462448E+01 -0.62658247648E+00  0.36509945968E+01  0.51100000000E-03 0. -1.
        -11    1    3    3    0    0 -0.11416641941E+01 -0.12582756635E+02 -0.15569418733E+02  0.20050834437E+02  0.51100000000E-03 0.  1.
         12    1    3    3    0    0 -0.76391909788E+01 -0.21230702864E+02 -0.84266633243E+01  0.24085444519E+02  0.00000000000E+00 0. -1.
</event>
<event>
 7    1  0.2682317E-010  0.4778727E+02  0.7816164E-02  0.1312668E+00
        -11   -1    0    0    0    0  0.00000000000E+00  0.00000000000E+00  0.45593999997E+02  0.45594000000E+02  0.51100000000E-03 0.  1.
         11   -1    0    0    0    0 -0.00000000000E+00 -0.00000000000E+00 -0.45593999997E+02  0.45594000000E+02  0.51100000000E-03 0. -1.
    9900012    2    1    2    0    0  0.21453879410E+02 -0.37669913322E+02 -0.20813831665E+01  0.47787268815E+02  0.19999989837E+02 0.  0.
         12    1    1    2    0    0 -0.21453879410E+02  0.37669913322E+02  0.20813831665E+01  0.43400731185E+02  0.00000000000E+00 0. -1.
         11    1    3    3    0    0  0.39824723408E+01 -0.14382789820E+02 -0.80206239471E+01  0.16942701606E+02  0.51100000000E-03 0. -1.
        -11    1    3    3    0    0  0.59204126105E+01 -0.28890175551E+01  0.29325702582E+01  0.72109414428E+01  0.51100000000E-03 0.  1.
        -12    1    3    3    0    0  0.11550994459E+02 -0.20398105947E+02  0.30066705225E+01  0.23633625766E+02  0.00000000000E+00 0.  1.
</event>
<event>
 7    1  0.2682317E-010  0.4778727E+02  0.7816164E-02  0.1312668E+00
        -11   -1    0    0    0    0  0.00000000000E+00  0.00000000000E+00  0.45593999997E+02  0.45594000000E+02  0.51100000000E-03 0.  1.
         11   -1    0    0    0    0 -0.00000000000E+00 -0.00000000000E+00 -0.45593999997E+02  0.45594000000E+02  0.51100000000E-03 0. -1.
    9900012    2    1    2    0    0 -0.11200023594E+02 -0.20055628117E+02  0.36823287983E+02  0.47787270910E+02  0.19999999389E+02 0.  0.
         12    1    1    2    0    0  0.11200023594E+02  0.20055628117E+02 -0.36823287983E+02  0.43400729090E+02  0.00000000000E+00 0. -1.
         11    1    3    3    0    0  0.24535948829E+01 -0.33962716312E+01  0.15702132292E+01  0.44744115466E+01  0.51100000000E-03 0. -1.
        -11    1    3    3    0    0  0.15903769191E+01 -0.94833211286E+00  0.87222709988E+01  0.89166498293E+01  0.51100000000E-03 0.  1.
        -12    1    3    3    0    0 -0.15243995396E+02 -0.15711024373E+02  0.26530803755E+02  0.34396209534E+02  0.00000000000E+00 0.  1.
</event>
<event>
 7    1  0.2682317E-010  0.4778727E+02  0.7816164E-02  0.1312668E+00
        -11   -1    0    0    0    0  0.00000000000E+00  0.00000000000E+00  0.45593999997E+02  0.45594000000E+02  0.51100000000E-03 0.  1.
         11   -1    0    0    0    0 -0.00000000000E+00 -0.00000000000E+00 -0.45593999997E+02  0.45594000000E+02  0.51100000000E-03 0. -1.
    9900012    2    1    2    0    0  0.27285224518E+02 -0.18365564024E+01 -0.33701141950E+02  0.47787269763E+02  0.19999994157E+02 0.  0.
         12    1    1    2    0    0 -0.27285224518E+02  0.18365564024E+01  0.33701141950E+02  0.43400730237E+02  0.00000000000E+00 0. -1.
         11    1    3    3    0    0  0.22221406207E+01  0.21495190312E+01 -0.46116495005E+01  0.55520854082E+01  0.51100000000E-03 0. -1.
        -11    1    3    3    0    0  0.20795854205E+02  0.63449025370E+00 -0.11984260673E+02  0.24010261018E+02  0.51100000000E-03 0.  1.
         12    1    3    3    0    0  0.42672296917E+01 -0.46205656873E+01 -0.17105231776E+02  0.18224923337E+02  0.00000000000E+00 0. -1.
</event>
<event>
 7    1  0.2682317E-010  0.4778726E+02  0.7816164E-02  0.1312668E+00
        -11   -1    0    0    0    0  0.00000000000E+00  0.00000000000E+00  0.45593999997E+02  0.45594000000E+02  0.51100000000E-03 0. -1.
         11   -1    0    0    0    0 -0.00000000000E+00 -0.00000000000E+00 -0.45593999997E+02  0.45594000000E+02  0.51100000000E-03 0.  1.
    9900012    2    1    2    0    0  0.43044760585E+02  0.21676141352E+01  0.51062989160E+01  0.47787259759E+02  0.19999948546E+02 0.  0.
         12    1    1    2    0    0 -0.43044760585E+02 -0.21676141352E+01 -0.51062989160E+01  0.43400740241E+02  0.00000000000E+00 0. -1.
         11    1    3    3    0    0  0.12407730913E+01 -0.74817834454E+00 -0.36515281993E+00  0.14941972903E+01  0.51100000000E-03 0. -1.
        -11    1    3    3    0    0  0.30446356485E+02  0.64869358900E+01  0.11196775072E+02  0.33082151271E+02  0.51100000000E-03 0.  1.
         12    1    3    3    0    0  0.11357631008E+02 -0.35711434103E+01 -0.57253233359E+01  0.13210911198E+02  0.00000000000E+00 0. -1.
</event>
<event>
 7    1  0.2682317E-010  0.4778727E+02  0.7816164E-02  0.1312668E+00
        -11   -1    0    0    0    0  0.00000000000E+00  0.00000000000E+00  0.45593999997E+02  0.45594000000E+02  0.51100000000E-03 0.  1.
         11   -1    0    0    0    0 -0.00000000000E+00 -0.00000000000E+00 -0.45593999997E+02  0.45594000000E+02  0.51100000000E-03 0. -1.
    9900012    2    1    2    0    0  0.29015268768E+02  0.22666545078E+02  0.22977504004E+02  0.47787265240E+02  0.19999973537E+02 0.  0.
         12    1    1    2    0    0 -0.29015268768E+02 -0.22666545078E+02 -0.22977504004E+02  0.43400734760E+02  0.00000000000E+00 0. -1.
         11    1    3    3    0    0  0.53255447340E+01  0.30073252109E+01  0.47744619378E+00  0.61346056733E+01  0.51100000000E-03 0.  1.
        -11    1    3    3    0    0  0.21855768778E+02  0.12547043578E+02  0.23226436635E+02  0.34272004471E+02  0.51100000000E-03 0. -1.
         12    1    3    3    0    0  0.18339552552E+01  0.71121762892E+01 -0.72637882543E+00  0.73806550959E+01  0.00000000000E+00 0. -1.
</event>
<event>
 7    1  0.2682317E-010  0.4778727E+02  0.7816164E-02  0.1312668E+00
        -11   -1    0    0    0    0  0.00000000000E+00  0.00000000000E+00  0.45593999997E+02  0.45594000000E+02  0.51100000000E-03 0.  1.
         11   -1    0    0    0    0 -0.00000000000E+00 -0.00000000000E+00 -0.45593999997E+02  0.45594000000E+02  0.51100000000E-03 0. -1.
    9900012    2    1    2    0    0 -0.21825939793E+02 -0.33834231344E+02  0.16201738092E+02  0.47787272176E+02  0.20000005158E+02 0.  0.
         12    1    1    2    0    0  0.21825939793E+02  0.33834231344E+02 -0.16201738092E+02  0.43400727824E+02  0.00000000000E+00 0. -1.
         11    1    3    3    0    0 -0.69576785386E+01 -0.42656276944E+01  0.32726413999E+00  0.81677397333E+01  0.51100000000E-03 0. -1.
        -11    1    3    3    0    0 -0.79826292253E+01 -0.44426549832E+01  0.86571639133E+01  0.12585946128E+02  0.51100000000E-03 0.  1.
        -12    1    3    3    0    0 -0.68856320291E+01 -0.25125948667E+02  0.72173100385E+01  0.27033586314E+02  0.00000000000E+00 0.  1.
</event>
<event>
 7    1  0.2682317E-010  0.4778727E+02  0.7816164E-02  0.1312668E+00
        -11   -1    0    0    0    0  0.00000000000E+00  0.00000000000E+00  0.45593999997E+02  0.45594000000E+02  0.51100000000E-03 0. -1.
         11   -1    0    0    0    0 -0.00000000000E+00 -0.00000000000E+00 -0.45593999997E+02  0.45594000000E+02  0.51100000000E-03 0.  1.
    9900012    2    1    2    0    0  0.32867074009E+01 -0.15510137198E+02 -0.40401195785E+02  0.47787269334E+02  0.19999992202E+02 0.  0.
         12    1    1    2    0    0 -0.32867074009E+01  0.15510137198E+02  0.40401195785E+02  0.43400730666E+02  0.00000000000E+00 0. -1.
         11    1    3    3    0    0  0.27965665168E+01 -0.32157337961E+01 -0.88982649121E+00  0.43535640085E+01  0.51100000000E-03 0. -1.
        -11    1    3    3    0    0  0.46819514513E+01 -0.10927155861E+02 -0.35625357319E+02  0.37556483980E+02  0.51100000000E-03 0.  1.
         12    1    3    3    0    0 -0.41918105672E+01 -0.13672475415E+01 -0.38860119751E+01  0.58772213453E+01  0.00000000000E+00 0. -1.
</event>
<event>
 7    1  0.2682317E-010  0.4778727E+02  0.7816164E-02  0.1312668E+00
        -11   -1    0    0    0    0  0.00000000000E+00  0.00000000000E+00  0.45593999997E+02  0.45594000000E+02  0.51100000000E-03 0.  1.
         11   -1    0    0    0    0 -0.00000000000E+00 -0.00000000000E+00 -0.45593999997E+02  0.45594000000E+02  0.51100000000E-03 0. -1.
    9900012    2    1    2    0    0 -0.45090262870E+01 -0.46730263865E+01  0.42912171621E+02  0.47787274581E+02  0.20000016125E+02 0.  0.
         12    1    1    2    0    0  0.45090262870E+01  0.46730263865E+01 -0.42912171621E+02  0.43400725419E+02  0.00000000000E+00 0. -1.
         11    1    3    3    0    0 -0.37600999085E+01 -0.16347063933E+01  0.22075260311E+02  0.22452789011E+02  0.51100000000E-03 0.  1.
        -11    1    3    3    0    0  0.32778644449E+01 -0.16777285618E+01  0.20759283575E+02  0.21083335202E+02  0.51100000000E-03 0. -1.
         12    1    3    3    0    0 -0.40267908234E+01 -0.13605914315E+01  0.77627734452E-01  0.42511503672E+01  0.00000000000E+00 0. -1.
</event>
<event>
 7    1  0.2682317E-010  0.4778725E+02  0.7816164E-02  0.1312668E+00
        -11   -1    0    0    0    0  0.00000000000E+00  0.00000000000E+00  0.45593999997E+02  0.45594000000E+02  0.51100000000E-03 0.  1.
         11   -1    0    0    0    0 -0.00000000000E+00 -0.00000000000E+00 -0.45593999997E+02  0.45594000000E+02  0.51100000000E-03 0. -1.
    9900012    2    1    2    0    0 -0.22562471475E+02 -0.12781317294E+02  0.34802274589E+02  0.47787245313E+02  0.19999882679E+02 0.  0.
         12    1    1    2    0    0  0.22562471475E+02  0.12781317294E+02 -0.34802274589E+02  0.43400754687E+02  0.00000000000E+00 0. -1.
         11    1    3    3    0    0 -0.61512091484E+01 -0.77216974957E+01  0.12549366571E+02  0.15967109563E+02  0.51100000000E-03 0. -1.
        -11    1    3    3    0    0 -0.11093819659E+02 -0.10305454288E+02  0.13237238293E+02  0.20112177917E+02  0.51100000000E-03 0.  1.
         12    1    3    3    0    0 -0.53174426675E+01  0.52458344892E+01  0.90156697260E+01  0.11707957833E+02  0.00000000000E+00 0. -1.
</event>
<event>
 7    1  0.2682317E-010  0.4778726E+02  0.7816164E-02  0.1312668E+00
        -11   -1    0    0    0    0  0.00000000000E+00  0.00000000000E+00  0.45593999997E+02  0.45594000000E+02  0.51100000000E-03 0. -1.
         11   -1    0    0    0    0 -0.00000000000E+00 -0.00000000000E+00 -0.45593999997E+02  0.45594000000E+02  0.51100000000E-03 0.  1.
    9900012    2    1    2    0    0  0.74800295934E+01  0.42732485317E+02 -0.12682163123E+01  0.47787256727E+02  0.19999934720E+02 0.  0.
         12    1    1    2    0    0 -0.74800295934E+01 -0.42732485317E+02  0.12682163123E+01  0.43400743273E+02  0.00000000000E+00 0. -1.
         11    1    3    3    0    0 -0.38933407864E+00 -0.95255675912E-01 -0.63298441277E+00  0.74921572095E+00  0.51100000000E-03 0. -1.
        -11    1    3    3    0    0  0.94014109625E+01  0.40439309534E+02  0.38869618564E+01  0.41699313620E+02  0.51100000000E-03 0.  1.
        -12    1    3    3    0    0 -0.15320472905E+01  0.23884314590E+01 -0.45221937560E+01  0.53387273859E+01  0.00000000000E+00 0.  1.
</event>
<event>
 7    1  0.2682317E-010  0.4778728E+02  0.7816164E-02  0.1312668E+00
        -11   -1    0    0    0    0  0.00000000000E+00  0.00000000000E+00  0.45593999997E+02  0.45594000000E+02  0.51100000000E-03 0. -1.
         11   -1    0    0    0    0 -0.00000000000E+00 -0.00000000000E+00 -0.45593999997E+02  0.45594000000E+02  0.51100000000E-03 0.  1.
    9900012    2    1    2    0    0  0.28612825684E+02  0.31547181819E+02 -0.83489073753E+01  0.47787277325E+02  0.20000028635E+02 0.  0.
         12    1    1    2    0    0 -0.28612825684E+02 -0.31547181819E+02  0.83489073753E+01  0.43400722675E+02  0.00000000000E+00 0. -1.
         11    1    3    3    0    0 -0.19747805514E+00  0.26867202407E+01 -0.37307749171E+01  0.46017545543E+01  0.51100000000E-03 0. -1.
        -11    1    3    3    0    0  0.90794323307E+01  0.17965188190E+02 -0.45920697659E+01  0.20646335829E+02  0.51100000000E-03 0.  1.
         12    1    3    3    0    0  0.19730871408E+02  0.10895273388E+02 -0.26062692250E-01  0.22539186942E+02  0.00000000000E+00 0. -1.
</event>
<event>
 7    1  0.2682317E-010  0.4778727E+02  0.7816164E-02  0.1312668E+00
        -11   -1    0    0    0    0  0.00000000000E+00  0.00000000000E+00  0.45593999997E+02  0.45594000000E+02  0.51100000000E-03 0.  1.
         11   -1    0    0    0    0 -0.00000000000E+00 -0.00000000000E+00 -0.45593999997E+02  0.45594000000E+02  0.51100000000E-03 0. -1.
    9900012    2    1    2    0    0  0.20377744365E+02  0.38102128716E+02  0.40741426818E+01  0.47787270551E+02  0.19999997752E+02 0.  0.
         12    1    1    2    0    0 -0.20377744365E+02 -0.38102128716E+02 -0.40741426818E+01  0.43400729449E+02  0.00000000000E+00 0. -1.
         11    1    3    3    0    0  0.12567587657E+02  0.25401309381E+02  0.72382999818E+01  0.29250021619E+02  0.51100000000E-03 0. -1.
        -11    1    3    3    0    0  0.10311500400E+02  0.10786955753E+02 -0.15635802629E+01  0.15004340652E+02  0.51100000000E-03 0.  1.
         12    1    3    3    0    0 -0.25013436910E+01  0.19138635817E+01 -0.16005770371E+01  0.35329082810E+01  0.00000000000E+00 0. -1.
</event>
<event>
 7    1  0.2682317E-010  0.4778727E+02  0.7816164E-02  0.1312668E+00
        -11   -1    0    0    0    0  0.00000000000E+00  0.00000000000E+00  0.45593999997E+02  0.45594000000E+02  0.51100000000E-03 0.  1.
         11   -1    0    0    0    0 -0.00000000000E+00 -0.00000000000E+00 -0.45593999997E+02  0.45594000000E+02  0.51100000000E-03 0. -1.
    9900012    2    1    2    0    0  0.10662348172E+02  0.19101612580E+02  0.37484210876E+02  0.47787270320E+02  0.19999996699E+02 0.  0.
         12    1    1    2    0    0 -0.10662348172E+02 -0.19101612580E+02 -0.37484210876E+02  0.43400729680E+02  0.00000000000E+00 0. -1.
         11    1    3    3    0    0 -0.52825364397E-01  0.19852700398E+00  0.30024748852E+01  0.30094948393E+01  0.51100000000E-03 0. -1.
        -11    1    3    3    0    0 -0.39940246834E+01  0.11186333331E+02  0.16025811953E+02  0.19947755152E+02  0.51100000000E-03 0.  1.
         12    1    3    3    0    0  0.14709198220E+02  0.77167522456E+01  0.18455924037E+02  0.24830020330E+02  0.00000000000E+00 0. -1.
</event>
<event>
 7    1  0.2682317E-010  0.4778727E+02  0.7816164E-02  0.1312668E+00
        -11   -1    0    0    0    0  0.00000000000E+00  0.00000000000E+00  0.45593999997E+02  0.45594000000E+02  0.51100000000E-03 0. -1.
         11   -1    0    0    0    0 -0.00000000000E+00 -0.00000000000E+00 -0.45593999997E+02  0.45594000000E+02  0.51100000000E-03 0.  1.
    9900012    2    1    2    0    0 -0.20804416120E+02  0.22315689855E+02 -0.30867615876E+02  0.47787268973E+02  0.19999990556E+02 0.  0.
         12    1    1    2    0    0  0.20804416120E+02 -0.22315689855E+02  0.30867615876E+02  0.43400731027E+02  0.00000000000E+00 0. -1.
         11    1    3    3    0    0 -0.63595627271E+01  0.26947471413E+01 -0.12361130924E+01  0.70166712958E+01  0.51100000000E-03 0. -1.
        -11    1    3    3    0    0 -0.13728837870E+02  0.77599318089E+01 -0.20033464599E+02  0.25495827797E+02  0.51100000000E-03 0.  1.
         12    1    3    3    0    0 -0.71601552328E+00  0.11861010905E+02 -0.95980381842E+01  0.15274769880E+02  0.00000000000E+00 0. -1.
</event>
<event>
 7    1  0.2682317E-010  0.4778727E+02  0.7816164E-02  0.1312668E+00
        -11   -1    0    0    0    0  0.00000000000E+00  0.00000000000E+00  0.45593999997E+02  0.45594000000E+02  0.51100000000E-03 0. -1.
         11   -1    0    0    0    0 -0.00000000000E+00 -0.00000000000E+00 -0.45593999997E+02  0.45594000000E+02  0.51100000000E-03 0.  1.
    9900012    2    1    2    0    0 -0.22814095155E+02  0.30334415158E+01 -0.36795901646E+02  0.47787273242E+02  0.20000010020E+02 0.  0.
         12    1    1    2    0    0  0.22814095155E+02 -0.30334415158E+01  0.36795901646E+02  0.43400726758E+02  0.00000000000E+00 0. -1.
         11    1    3    3    0    0 -0.12937544617E+02  0.82575624606E+01 -0.15370934316E+02  0.21721717716E+02  0.51100000000E-03 0. -1.
        -11    1    3    3    0    0 -0.19225418754E+01  0.98873634130E+00 -0.12206261262E+02  0.12396232535E+02  0.51100000000E-03 0.  1.
         12    1    3    3    0    0 -0.79540086622E+01 -0.62128572861E+01 -0.92187060680E+01  0.13669322991E+02  0.00000000000E+00 0. -1.
</event>
<event>
 7    1  0.2682317E-010  0.4778727E+02  0.7816164E-02  0.1312668E+00
        -11   -1    0    0    0    0  0.00000000000E+00  0.00000000000E+00  0.45593999997E+02  0.45594000000E+02  0.51100000000E-03 0. -1.
         11   -1    0    0    0    0 -0.00000000000E+00 -0.00000000000E+00 -0.45593999997E+02  0.45594000000E+02  0.51100000000E-03 0.  1.
    9900012    2    1    2    0    0 -0.30997741295E+02  0.28182205815E+02  0.11336951398E+02  0.47787272391E+02  0.20000006138E+02 0.  0.
         12    1    1    2    0    0  0.30997741295E+02 -0.28182205815E+02 -0.11336951398E+02  0.43400727609E+02  0.00000000000E+00 0. -1.
         11    1    3    3    0    0 -0.16772644013E+01  0.53797580161E+01  0.31163501064E+01  0.64394604146E+01  0.51100000000E-03 0. -1.
        -11    1    3    3    0    0 -0.12816860244E+02  0.50401995301E+01 -0.37982114521E+01  0.14286424616E+02  0.51100000000E-03 0.  1.
        -12    1    3    3    0    0 -0.16503616651E+02  0.17762248269E+02  0.12018812743E+02  0.27061387360E+02  0.00000000000E+00 0.  1.
</event>
<event>
 7    1  0.2682317E-010  0.4778734E+02  0.7816164E-02  0.1312667E+00
        -11   -1    0    0    0    0  0.00000000000E+00  0.00000000000E+00  0.45593999997E+02  0.45594000000E+02  0.51100000000E-03 0.  1.
         11   -1    0    0    0    0 -0.00000000000E+00 -0.00000000000E+00 -0.45593999997E+02  0.45594000000E+02  0.51100000000E-03 0. -1.
    9900012    2    1    2    0    0  0.14222066438E+01 -0.35465537292E+02  0.24975800936E+02  0.47787335955E+02  0.20000295952E+02 0.  0.
         12    1    1    2    0    0 -0.14222066438E+01  0.35465537292E+02 -0.24975800936E+02  0.43400664045E+02  0.00000000000E+00 0. -1.
         11    1    3    3    0    0 -0.41700813601E+00  0.15505302269E+00  0.50554217246E+01  0.50749607190E+01  0.51100000000E-03 0. -1.
        -11    1    3    3    0    0 -0.51841819049E+01 -0.10724796944E+02  0.65330843407E+01  0.13585956086E+02  0.51100000000E-03 0.  1.
        -12    1    3    3    0    0  0.70233966847E+01 -0.24895793370E+02  0.13387294871E+02  0.29126419150E+02  0.00000000000E+00 0.  1.
</event>
<event>
 7    1  0.2682317E-010  0.4778727E+02  0.7816164E-02  0.1312668E+00
        -11   -1    0    0    0    0  0.00000000000E+00  0.00000000000E+00  0.45593999997E+02  0.45594000000E+02  0.51100000000E-03 0.  1.
         11   -1    0    0    0    0 -0.00000000000E+00 -0.00000000000E+00 -0.45593999997E+02  0.45594000000E+02  0.51100000000E-03 0. -1.
    9900012    2    1    2    0    0 -0.73005187970E+01  0.40858176856E+01  0.42586755781E+02  0.47787271333E+02  0.20000001316E+02 0.  0.
         12    1    1    2    0    0  0.73005187970E+01 -0.40858176856E+01 -0.42586755781E+02  0.43400728667E+02  0.00000000000E+00 0. -1.
         11    1    3    3    0    0 -0.12258882619E+01  0.16443449036E+01  0.56975382075E+01  0.60554615084E+01  0.51100000000E-03 0.  1.
        -11    1    3    3    0    0 -0.11330738406E+02 -0.35303474902E+00  0.32251049802E+02  0.34185384011E+02  0.51100000000E-03 0. -1.
         12    1    3    3    0    0  0.52561078708E+01  0.27945075310E+01  0.46381677713E+01  0.75464258139E+01  0.00000000000E+00 0. -1.
</event>
<event>
 7    1  0.2682317E-010  0.4778726E+02  0.7816164E-02  0.1312668E+00
        -11   -1    0    0    0    0  0.00000000000E+00  0.00000000000E+00  0.45593999997E+02  0.45594000000E+02  0.51100000000E-03 0. -1.
         11   -1    0    0    0    0 -0.00000000000E+00 -0.00000000000E+00 -0.45593999997E+02  0.45594000000E+02  0.51100000000E-03 0.  1.
    9900012    2    1    2    0    0  0.40286791116E+02 -0.66437873018E+01 -0.14712524853E+02  0.47787264572E+02  0.19999970491E+02 0.  0.
         12    1    1    2    0    0 -0.40286791116E+02  0.66437873018E+01  0.14712524853E+02  0.43400735428E+02  0.00000000000E+00 0. -1.
         11    1    3    3    0    0 -0.59323762037E+00 -0.15290841376E+01  0.10556403386E+01  0.19504886464E+01  0.51100000000E-03 0. -1.
        -11    1    3    3    0    0  0.51758707313E+01  0.13109054001E+01 -0.64657321575E+01  0.83853326344E+01  0.51100000000E-03 0.  1.
        -12    1    3    3    0    0  0.35704158005E+02 -0.64256085642E+01 -0.93024330345E+01  0.37451443291E+02  0.00000000000E+00 0.  1.
</event>
<event>
 7    1  0.2682317E-010  0.4778728E+02  0.7816164E-02  0.1312668E+00
        -11   -1    0    0    0    0  0.00000000000E+00  0.00000000000E+00  0.45593999997E+02  0.45594000000E+02  0.51100000000E-03 0. -1.
         11   -1    0    0    0    0 -0.00000000000E+00 -0.00000000000E+00 -0.45593999997E+02  0.45594000000E+02  0.51100000000E-03 0.  1.
    9900012    2    1    2    0    0  0.20898536059E+02  0.20979786693E+02 -0.31728883934E+02  0.47787281864E+02  0.20000049329E+02 0.  0.
         12    1    1    2    0    0 -0.20898536059E+02 -0.20979786693E+02  0.31728883934E+02  0.43400718136E+02  0.00000000000E+00 0. -1.
         11    1    3    3    0    0  0.13862010915E+02  0.90631756073E+01 -0.10257452198E+02  0.19481063230E+02  0.51100000000E-03 0. -1.
        -11    1    3    3    0    0  0.81305814303E+01  0.57543698713E+01 -0.60281350723E+01  0.11642918007E+02  0.51100000000E-03 0.  1.
         12    1    3    3    0    0 -0.10940562869E+01  0.61622412143E+01 -0.15443296664E+02  0.16663300627E+02  0.00000000000E+00 0. -1.
</event>
<event>
 7    1  0.2682317E-010  0.4778727E+02  0.7816164E-02  0.1312668E+00
        -11   -1    0    0    0    0  0.00000000000E+00  0.00000000000E+00  0.45593999997E+02  0.45594000000E+02  0.51100000000E-03 0. -1.
         11   -1    0    0    0    0 -0.00000000000E+00 -0.00000000000E+00 -0.45593999997E+02  0.45594000000E+02  0.51100000000E-03 0.  1.
    9900012    2    1    2    0    0 -0.33831779957E+02 -0.11774960821E+02 -0.24502738020E+02  0.47787271805E+02  0.20000003466E+02 0.  0.
         12    1    1    2    0    0  0.33831779957E+02  0.11774960821E+02  0.24502738020E+02  0.43400728195E+02  0.00000000000E+00 0. -1.
         11    1    3    3    0    0 -0.16142503428E+01 -0.33071684483E+01 -0.55018440648E+00  0.37210039582E+01  0.51100000000E-03 0. -1.
        -11    1    3    3    0    0  0.17030898579E+01 -0.14611043607E+01 -0.70868278428E+00  0.23532047439E+01  0.51100000000E-03 0.  1.
        -12    1    3    3    0    0 -0.33920619473E+02 -0.70066880117E+01 -0.23243870829E+02  0.41713063103E+02  0.00000000000E+00 0.  1.
</event>
<event>
 7    1  0.2682317E-010  0.4778728E+02  0.7816164E-02  0.1312668E+00
        -11   -1    0    0    0    0  0.00000000000E+00  0.00000000000E+00  0.45593999997E+02  0.45594000000E+02  0.51100000000E-03 0.  1.
         11   -1    0    0    0    0 -0.00000000000E+00 -0.00000000000E+00 -0.45593999997E+02  0.45594000000E+02  0.51100000000E-03 0. -1.
    9900012    2    1    2    0    0  0.25701457706E+02  0.17569489709E+02  0.30238568486E+02  0.47787275110E+02  0.20000018539E+02 0.  0.
         12    1    1    2    0    0 -0.25701457706E+02 -0.17569489709E+02 -0.30238568486E+02  0.43400724890E+02  0.00000000000E+00 0. -1.
         11    1    3    3    0    0  0.10730638782E+02  0.13881149943E+02  0.91382782802E+01  0.19782342192E+02  0.51100000000E-03 0. -1.
        -11    1    3    3    0    0 -0.94964009419E+00 -0.93378816983E+00  0.22972662150E+00  0.13514996250E+01  0.51100000000E-03 0.  1.
        -12    1    3    3    0    0  0.15920459018E+02  0.46221279359E+01  0.20870563584E+02  0.26653433293E+02  0.00000000000E+00 0.  1.
</event>
<event>
 7    1  0.2682317E-010  0.4778727E+02  0.7816164E-02  0.1312668E+00
        -11   -1    0    0    0    0  0.00000000000E+00  0.00000000000E+00  0.45593999997E+02  0.45594000000E+02  0.51100000000E-03 0.  1.
         11   -1    0    0    0    0 -0.00000000000E+00 -0.00000000000E+00 -0.45593999997E+02  0.45594000000E+02  0.51100000000E-03 0. -1.
    9900012    2    1    2    0    0  0.39371054945E+02 -0.11537482324E+02 -0.14157315320E+02  0.47787273705E+02  0.20000012129E+02 0.  0.
         12    1    1    2    0    0 -0.39371054945E+02  0.11537482324E+02  0.14157315320E+02  0.43400726295E+02  0.00000000000E+00 0. -1.
         11    1    3    3    0    0  0.74693508484E+01  0.15944047588E+01 -0.69411638811E+01  0.10320517667E+02  0.51100000000E-03 0. -1.
        -11    1    3    3    0    0  0.12070576305E+01  0.20352384162E+01  0.38048961198E+00  0.23966551985E+01  0.51100000000E-03 0.  1.
         12    1    3    3    0    0  0.30694646466E+02 -0.15167125499E+02 -0.75966410511E+01  0.35070100839E+02  0.00000000000E+00 0. -1.
</event>
<event>
 7    1  0.2682317E-010  0.4778727E+02  0.7816164E-02  0.1312668E+00
        -11   -1    0    0    0    0  0.00000000000E+00  0.00000000000E+00  0.45593999997E+02  0.45594000000E+02  0.51100000000E-03 0.  1.
         11   -1    0    0    0    0 -0.00000000000E+00 -0.00000000000E+00 -0.45593999997E+02  0.45594000000E+02  0.51100000000E-03 0. -1.
    9900012    2    1    2    0    0 -0.28608662139E+02 -0.10989456892E+02  0.30731088693E+02  0.47787268158E+02  0.19999986841E+02 0.  0.
         12    1    1    2    0    0  0.28608662139E+02  0.10989456892E+02 -0.30731088693E+02  0.43400731842E+02  0.00000000000E+00 0. -1.
         11    1    3    3    0    0 -0.63105137600E+01 -0.58254095283E+00  0.10319358895E+02  0.12109958966E+02  0.51100000000E-03 0.  1.
        -11    1    3    3    0    0 -0.18022423341E+02 -0.13544856852E+02  0.20353626856E+02  0.30373360313E+02  0.51100000000E-03 0. -1.
         12    1    3    3    0    0 -0.42757250374E+01  0.31379409128E+01  0.58102941469E-01  0.53039488798E+01  0.00000000000E+00 0. -1.
</event>
<event>
 7    1  0.2682317E-010  0.4778727E+02  0.7816164E-02  0.1312668E+00
        -11   -1    0    0    0    0  0.00000000000E+00  0.00000000000E+00  0.45593999997E+02  0.45594000000E+02  0.51100000000E-03 0.  1.
         11   -1    0    0    0    0 -0.00000000000E+00 -0.00000000000E+00 -0.45593999997E+02  0.45594000000E+02  0.51100000000E-03 0. -1.
    9900012    2    1    2    0    0  0.25202052545E+02  0.31620601898E+02  0.15767602719E+02  0.47787271753E+02  0.20000003231E+02 0.  0.
         12    1    1    2    0    0 -0.25202052545E+02 -0.31620601898E+02 -0.15767602719E+02  0.43400728247E+02  0.00000000000E+00 0. -1.
         11    1    3    3    0    0  0.95298121597E+00  0.42395713936E+01 -0.24509798712E+01  0.49889318886E+01  0.51100000000E-03 0. -1.
        -11    1    3    3    0    0  0.59314004491E+01  0.15013590567E+02  0.11052050961E+02  0.19563671529E+02  0.51100000000E-03 0.  1.
        -12    1    3    3    0    0  0.18317670880E+02  0.12367439938E+02  0.71665316291E+01  0.23234668336E+02  0.00000000000E+00 0.  1.
</event>
<event>
 7    1  0.2682317E-010  0.4778725E+02  0.7816164E-02  0.1312668E+00
        -11   -1    0    0    0    0  0.00000000000E+00  0.00000000000E+00  0.45593999997E+02  0.45594000000E+02  0.51100000000E-03 0.  1.
         11   -1    0    0    0    0 -0.00000000000E+00 -0.00000000000E+00 -0.45593999997E+02  0.45594000000E+02  0.51100000000E-03 0. -1.
    9900012    2    1    2    0    0  0.32012750686E+02 -0.17616541338E+02  0.23419354651E+02  0.47787252224E+02  0.19999914191E+02 0.  0.
         12    1    1    2    0    0 -0.32012750686E+02  0.17616541338E+02 -0.23419354651E+02  0.43400747776E+02  0.00000000000E+00 0. -1.
         11    1    3    3    0    0  0.18864063979E+01  0.31632854717E+01  0.23389318807E+01  0.43629699377E+01  0.51100000000E-03 0. -1.
        -11    1    3    3    0    0  0.98727727012E+01 -0.42595641470E+01  0.16996084800E+01  0.10885963291E+02  0.51100000000E-03 0.  1.
        -12    1    3    3    0    0  0.20253571587E+02 -0.16520262663E+02  0.19380814290E+02  0.32538318995E+02  0.00000000000E+00 0.  1.
</event>
<event>
 7    1  0.2682317E-010  0.4778727E+02  0.7816164E-02  0.1312668E+00
        -11   -1    0    0    0    0  0.00000000000E+00  0.00000000000E+00  0.45593999997E+02  0.45594000000E+02  0.51100000000E-03 0.  1.
         11   -1    0    0    0    0 -0.00000000000E+00 -0.00000000000E+00 -0.45593999997E+02  0.45594000000E+02  0.51100000000E-03 0. -1.
    9900012    2    1    2    0    0 -0.26713532258E+02 -0.34145497686E+02  0.20236984836E+01  0.47787272201E+02  0.20000005275E+02 0.  0.
         12    1    1    2    0    0  0.26713532258E+02  0.34145497686E+02 -0.20236984836E+01  0.43400727799E+02  0.00000000000E+00 0. -1.
         11    1    3    3    0    0 -0.34410557146E+01 -0.46216361928E+00  0.44822323663E+01  0.56696443352E+01  0.51100000000E-03 0. -1.
        -11    1    3    3    0    0 -0.10110186924E+02 -0.21461667358E+02  0.13295442190E+01  0.23761033932E+02  0.51100000000E-03 0.  1.
        -12    1    3    3    0    0 -0.13162289620E+02 -0.12221666709E+02 -0.37880781017E+01  0.18356593934E+02  0.00000000000E+00 0.  1.
</event>
<event>
 7    1  0.2682317E-010  0.4778727E+02  0.7816164E-02  0.1312668E+00
        -11   -1    0    0    0    0  0.00000000000E+00  0.00000000000E+00  0.45593999997E+02  0.45594000000E+02  0.51100000000E-03 0.  1.
         11   -1    0    0    0    0 -0.00000000000E+00 -0.00000000000E+00 -0.45593999997E+02  0.45594000000E+02  0.51100000000E-03 0. -1.
    9900012    2    1    2    0    0  0.33064502499E+02 -0.67431656275E+00  0.28105289350E+02  0.47787270539E+02  0.19999997695E+02 0.  0.
         12    1    1    2    0    0 -0.33064502499E+02  0.67431656275E+00 -0.28105289350E+02  0.43400729461E+02  0.00000000000E+00 0. -1.
         11    1    3    3    0    0 -0.72251231342E+00 -0.10609641891E+01  0.11155474854E+01  0.17006220940E+01  0.51100000000E-03 0. -1.
        -11    1    3    3    0    0  0.23870283442E+02  0.71962897876E+01  0.21245506084E+02  0.32755893322E+02  0.51100000000E-03 0.  1.
        -12    1    3    3    0    0  0.99167313700E+01 -0.68096421613E+01  0.57442357806E+01  0.13330755122E+02  0.00000000000E+00 0.  1.
</event>
<event>
 7    1  0.2682317E-010  0.4778727E+02  0.7816164E-02  0.1312668E+00
        -11   -1    0    0    0    0  0.00000000000E+00  0.00000000000E+00  0.45593999997E+02  0.45594000000E+02  0.51100000000E-03 0.  1.
         11   -1    0    0    0    0 -0.00000000000E+00 -0.00000000000E+00 -0.45593999997E+02  0.45594000000E+02  0.51100000000E-03 0. -1.
    9900012    2    1    2    0    0 -0.27815634568E+02 -0.12471972147E+02  0.30892776481E+02  0.47787271269E+02  0.20000001025E+02 0.  0.
         12    1    1    2    0    0  0.27815634568E+02  0.12471972147E+02 -0.30892776481E+02  0.43400728731E+02  0.00000000000E+00 0. -1.
         11    1    3    3    0    0 -0.38908580454E+01  0.19414241771E+01  0.64744524213E+00  0.43962586102E+01  0.51100000000E-03 0. -1.
        -11    1    3    3    0    0 -0.13506804381E+02 -0.57884672427E+00  0.10435461871E+02  0.17078281319E+02  0.51100000000E-03 0.  1.
        -12    1    3    3    0    0 -0.10417972142E+02 -0.13834549600E+02  0.19809869368E+02  0.26312731340E+02  0.00000000000E+00 0.  1.
</event>
<event>
 7    1  0.2682317E-010  0.4778725E+02  0.7816164E-02  0.1312668E+00
        -11   -1    0    0    0    0  0.00000000000E+00  0.00000000000E+00  0.45593999997E+02  0.45594000000E+02  0.51100000000E-03 0. -1.
         11   -1    0    0    0    0 -0.00000000000E+00 -0.00000000000E+00 -0.45593999997E+02  0.45594000000E+02  0.51100000000E-03 0.  1.
    9900012    2    1    2    0    0 -0.12870749413E+02  0.39333734153E+02 -0.13070044583E+02  0.47787252330E+02  0.19999914674E+02 0.  0.
         12    1    1    2    0    0  0.12870749413E+02 -0.39333734153E+02  0.13070044583E+02  0.43400747670E+02  0.00000000000E+00 0. -1.
         11    1    3    3    0    0  0.24812709145E+01  0.12992475740E+02 -0.32269917429E+01  0.13615234378E+02  0.51100000000E-03 0. -1.
        -11    1    3    3    0    0 -0.10664061763E+01  0.96179502869E+01  0.85382287243E+00  0.97144842175E+01  0.51100000000E-03 0.  1.
         12    1    3    3    0    0 -0.14285614151E+02  0.16723308126E+02 -0.10696875713E+02  0.24457533734E+02  0.00000000000E+00 0. -1.
</event>
<event>
 7    1  0.2682317E-010  0.4778728E+02  0.7816164E-02  0.1312668E+00
        -11   -1    0    0    0    0  0.00000000000E+00  0.00000000000E+00  0.45593999997E+02  0.45594000000E+02  0.51100000000E-03 0. -1.
         11   -1    0    0    0    0 -0.00000000000E+00 -0.00000000000E+00 -0.45593999997E+02  0.45594000000E+02  0.51100000000E-03 0.  1.
    9900012    2    1    2    0    0 -0.39762111915E+02  0.16850764098E+02 -0.43184125032E+01  0.47787280177E+02  0.20000041638E+02 0.  0.
         12    1    1    2    0    0  0.39762111915E+02 -0.16850764098E+02  0.43184125032E+01  0.43400719823E+02  0.00000000000E+00 0. -1.
         11    1    3    3    0    0 -0.12438626038E+02  0.30629217826E+01  0.51692906681E+01  0.13813850796E+02  0.51100000000E-03 0. -1.
        -11    1    3    3    0    0 -0.24540868095E+02  0.12998565711E+02 -0.43946359811E+01  0.28116360772E+02  0.51100000000E-03 0.  1.
         12    1    3    3    0    0 -0.27826177821E+01  0.78927660471E+00 -0.50930671901E+01  0.58570686084E+01  0.00000000000E+00 0. -1.
</event>
<event>
 7    1  0.2682317E-010  0.4778728E+02  0.7816164E-02  0.1312668E+00
        -11   -1    0    0    0    0  0.00000000000E+00  0.00000000000E+00  0.45593999997E+02  0.45594000000E+02  0.51100000000E-03 0. -1.
         11   -1    0    0    0    0 -0.00000000000E+00 -0.00000000000E+00 -0.45593999997E+02  0.45594000000E+02  0.51100000000E-03 0.  1.
    9900012    2    1    2    0    0 -0.20011208846E+02  0.23141765218E+02 -0.30783645917E+02  0.47787278429E+02  0.20000033670E+02 0.  0.
         12    1    1    2    0    0  0.20011208846E+02 -0.23141765218E+02  0.30783645917E+02  0.43400721571E+02  0.00000000000E+00 0. -1.
         11    1    3    3    0    0 -0.20621099582E+01 -0.11154756518E+01 -0.38400691659E+01  0.44991904682E+01  0.51100000000E-03 0. -1.
        -11    1    3    3    0    0 -0.13805879662E+02  0.65469013322E+01 -0.89738808877E+01  0.17719897538E+02  0.51100000000E-03 0.  1.
         12    1    3    3    0    0 -0.41432192262E+01  0.17710339538E+02 -0.17969695863E+02  0.25568190423E+02  0.00000000000E+00 0. -1.
</event>
<event>
 7    1  0.2682317E-010  0.4778727E+02  0.7816164E-02  0.1312668E+00
        -11   -1    0    0    0    0  0.00000000000E+00  0.00000000000E+00  0.45593999997E+02  0.45594000000E+02  0.51100000000E-03 0. -1.
         11   -1    0    0    0    0 -0.00000000000E+00 -0.00000000000E+00 -0.45593999997E+02  0.45594000000E+02  0.51100000000E-03 0.  1.
    9900012    2    1    2    0    0  0.40351353911E+02 -0.93774053990E+01 -0.12940461463E+02  0.47787273769E+02  0.20000012422E+02 0.  0.
         12    1    1    2    0    0 -0.40351353911E+02  0.93774053990E+01  0.12940461463E+02  0.43400726231E+02  0.00000000000E+00 0. -1.
         11    1    3    3    0    0  0.79369762088E+01 -0.46237037298E-01  0.14098520547E+01  0.80613530055E+01  0.51100000000E-03 0. -1.
        -11    1    3    3    0    0  0.25080890392E+02  0.11819313533E+00 -0.98579135753E+01  0.26948905224E+02  0.51100000000E-03 0.  1.
         12    1    3    3    0    0  0.73334873105E+01 -0.94493614970E+01 -0.44923999427E+01  0.12777015539E+02  0.00000000000E+00 0. -1.
</event>
<event>
 7    1  0.2682317E-010  0.4778728E+02  0.7816164E-02  0.1312668E+00
        -11   -1    0    0    0    0  0.00000000000E+00  0.00000000000E+00  0.45593999997E+02  0.45594000000E+02  0.51100000000E-03 0.  1.
         11   -1    0    0    0    0 -0.00000000000E+00 -0.00000000000E+00 -0.45593999997E+02  0.45594000000E+02  0.51100000000E-03 0. -1.
    9900012    2    1    2    0    0 -0.95197733835E+01 -0.96511907493E+01  0.41229246978E+02  0.47787281405E+02  0.20000047239E+02 0.  0.
         12    1    1    2    0    0  0.95197733835E+01  0.96511907493E+01 -0.41229246978E+02  0.43400718595E+02  0.00000000000E+00 0. -1.
         11    1    3    3    0    0 -0.36111181825E+01  0.59218094350E+00  0.13870452724E+01  0.39134061438E+01  0.51100000000E-03 0. -1.
        -11    1    3    3    0    0 -0.92230556829E+01 -0.77389594412E+01  0.18101474625E+02  0.21739816771E+02  0.51100000000E-03 0.  1.
        -12    1    3    3    0    0  0.33144004819E+01 -0.25044122516E+01  0.21740727080E+02  0.22134058491E+02  0.00000000000E+00 0.  1.
</event>
<event>
 7    1  0.2682317E-010  0.4778727E+02  0.7816164E-02  0.1312668E+00
        -11   -1    0    0    0    0  0.00000000000E+00  0.00000000000E+00  0.45593999997E+02  0.45594000000E+02  0.51100000000E-03 0.  1.
         11   -1    0    0    0    0 -0.00000000000E+00 -0.00000000000E+00 -0.45593999997E+02  0.45594000000E+02  0.51100000000E-03 0. -1.
    9900012    2    1    2    0    0  0.19084454700E+02 -0.49722208138E+01  0.38661144009E+02  0.47787269049E+02  0.19999990902E+02 0.  0.
         12    1    1    2    0    0 -0.19084454700E+02  0.49722208138E+01 -0.38661144009E+02  0.43400730951E+02  0.00000000000E+00 0. -1.
         11    1    3    3    0    0  0.66542081361E+00  0.24078294249E+01  0.68981697649E+01  0.73365641663E+01  0.51100000000E-03 0. -1.
        -11    1    3    3    0    0 -0.26054416473E+01  0.33254027960E+00  0.27910197362E+01  0.38325840687E+01  0.51100000000E-03 0.  1.
        -12    1    3    3    0    0  0.21024475534E+02 -0.77125905183E+01  0.28971954508E+02  0.36618120814E+02  0.00000000000E+00 0.  1.
</event>
<event>
 7    1  0.2682317E-010  0.4778727E+02  0.7816164E-02  0.1312668E+00
        -11   -1    0    0    0    0  0.00000000000E+00  0.00000000000E+00  0.45593999997E+02  0.45594000000E+02  0.51100000000E-03 0.  1.
         11   -1    0    0    0    0 -0.00000000000E+00 -0.00000000000E+00 -0.45593999997E+02  0.45594000000E+02  0.51100000000E-03 0. -1.
    9900012    2    1    2    0    0  0.29828310047E+02 -0.24689414107E+02  0.19604291842E+02  0.47787268350E+02  0.19999987713E+02 0.  0.
         12    1    1    2    0    0 -0.29828310047E+02  0.24689414107E+02 -0.19604291842E+02  0.43400731650E+02  0.00000000000E+00 0. -1.
         11    1    3    3    0    0  0.56663366556E+01 -0.27480355836E+01 -0.35187627122E+01  0.72139283299E+01  0.51100000000E-03 0. -1.
        -11    1    3    3    0    0  0.20448903074E+02 -0.14981734460E+02  0.18946102623E+02  0.31647508737E+02  0.51100000000E-03 0.  1.
         12    1    3    3    0    0  0.37130703168E+01 -0.69596440628E+01  0.41769519313E+01  0.89258312831E+01  0.00000000000E+00 0. -1.
</event>
<event>
 7    1  0.2682317E-010  0.4778728E+02  0.7816164E-02  0.1312668E+00
        -11   -1    0    0    0    0  0.00000000000E+00  0.00000000000E+00  0.45593999997E+02  0.45594000000E+02  0.51100000000E-03 0.  1.
         11   -1    0    0    0    0 -0.00000000000E+00 -0.00000000000E+00 -0.45593999997E+02  0.45594000000E+02  0.51100000000E-03 0. -1.
    9900012    2    1    2    0    0 -0.46257095687E+01  0.33824468247E+02 -0.26797964435E+02  0.47787277206E+02  0.20000028094E+02 0.  0.
         12    1    1    2    0    0  0.46257095687E+01 -0.33824468247E+02  0.26797964435E+02  0.43400722794E+02  0.00000000000E+00 0. -1.
         11    1    3    3    0    0  0.58266946236E+01  0.17288504233E+02 -0.18726372382E+02  0.26144211055E+02  0.51100000000E-03 0. -1.
        -11    1    3    3    0    0 -0.15464809794E+01  0.62191528017E+01 -0.19198480459E+01  0.66899388466E+01  0.51100000000E-03 0.  1.
         12    1    3    3    0    0 -0.89059232129E+01  0.10316811212E+02 -0.61517440069E+01  0.14953127304E+02  0.00000000000E+00 0. -1.
</event>
<event>
 7    1  0.2682317E-010  0.4778727E+02  0.7816164E-02  0.1312668E+00
        -11   -1    0    0    0    0  0.00000000000E+00  0.00000000000E+00  0.45593999997E+02  0.45594000000E+02  0.51100000000E-03 0.  1.
         11   -1    0    0    0    0 -0.00000000000E+00 -0.00000000000E+00 -0.45593999997E+02  0.45594000000E+02  0.51100000000E-03 0. -1.
    9900012    2    1    2    0    0 -0.84379380745E+00  0.15477961957E+02  0.40538179378E+02  0.47787270956E+02  0.19999999595E+02 0.  0.
         12    1    1    2    0    0  0.84379380745E+00 -0.15477961957E+02 -0.40538179378E+02  0.43400729044E+02  0.00000000000E+00 0. -1.
         11    1    3    3    0    0  0.67101534344E+01  0.40831880896E+01  0.91904711371E+01  0.12089803310E+02  0.51100000000E-03 0. -1.
        -11    1    3    3    0    0  0.16880658423E+01  0.63026166200E+01  0.11856389658E+02  0.13533163656E+02  0.51100000000E-03 0.  1.
         12    1    3    3    0    0 -0.92420130841E+01  0.50921572476E+01  0.19491318582E+02  0.22164303990E+02  0.00000000000E+00 0. -1.
</event>
<event>
 7    1  0.2682317E-010  0.4778726E+02  0.7816164E-02  0.1312668E+00
        -11   -1    0    0    0    0  0.00000000000E+00  0.00000000000E+00  0.45593999997E+02  0.45594000000E+02  0.51100000000E-03 0. -1.
         11   -1    0    0    0    0 -0.00000000000E+00 -0.00000000000E+00 -0.45593999997E+02  0.45594000000E+02  0.51100000000E-03 0.  1.
    9900012    2    1    2    0    0 -0.10123207754E+02 -0.39955416118E+02 -0.13590781702E+02  0.47787263144E+02  0.19999963978E+02 0.  0.
         12    1    1    2    0    0  0.10123207754E+02  0.39955416118E+02  0.13590781702E+02  0.43400736856E+02  0.00000000000E+00 0. -1.
         11    1    3    3    0    0 -0.28805950482E+01 -0.19016499501E+01  0.12421333106E+01  0.36683778141E+01  0.51100000000E-03 0. -1.
        -11    1    3    3    0    0 -0.14332230649E-01 -0.10629792612E+01 -0.50759290301E+01  0.51860568934E+01  0.51100000000E-03 0.  1.
         12    1    3    3    0    0 -0.72282804749E+01 -0.36990786906E+02 -0.97569859829E+01  0.38932828436E+02  0.00000000000E+00 0. -1.
</event>
<event>
 7    1  0.2682317E-010  0.4778728E+02  0.7816164E-02  0.1312668E+00
        -11   -1    0    0    0    0  0.00000000000E+00  0.00000000000E+00  0.45593999997E+02  0.45594000000E+02  0.51100000000E-03 0. -1.
         11   -1    0    0    0    0 -0.00000000000E+00 -0.00000000000E+00 -0.45593999997E+02  0.45594000000E+02  0.51100000000E-03 0.  1.
    9900012    2    1    2    0    0 -0.29938917512E+02 -0.13272600888E+02 -0.28480204934E+02  0.47787276628E+02  0.20000025457E+02 0.  0.
         12    1    1    2    0    0  0.29938917512E+02  0.13272600888E+02  0.28480204934E+02  0.43400723372E+02  0.00000000000E+00 0. -1.
         11    1    3    3    0    0  0.77637949692E+00 -0.81717354444E+00  0.69955946337E+00  0.13266203032E+01  0.51100000000E-03 0. -1.
        -11    1    3    3    0    0 -0.16716239080E+02 -0.83774908209E+01 -0.70994454717E+01  0.20000428188E+02  0.51100000000E-03 0.  1.
        -12    1    3    3    0    0 -0.13999057929E+02 -0.40779365221E+01 -0.22080318926E+02  0.26460228137E+02  0.00000000000E+00 0.  1.
</event>
<event>
 7    1  0.2682317E-010  0.4778727E+02  0.7816164E-02  0.1312668E+00
        -11   -1    0    0    0    0  0.00000000000E+00  0.00000000000E+00  0.45593999997E+02  0.45594000000E+02  0.51100000000E-03 0. -1.
         11   -1    0    0    0    0 -0.00000000000E+00 -0.00000000000E+00 -0.45593999997E+02  0.45594000000E+02  0.51100000000E-03 0.  1.
    9900012    2    1    2    0    0 -0.14305122674E+02  0.28695282546E+02 -0.29250088574E+02  0.47787268938E+02  0.19999990397E+02 0.  0.
         12    1    1    2    0    0  0.14305122674E+02 -0.28695282546E+02  0.29250088574E+02  0.43400731062E+02  0.00000000000E+00 0. -1.
         11    1    3    3    0    0 -0.95039825234E+01  0.69986191305E+01 -0.11189792538E+02  0.16264003531E+02  0.51100000000E-03 0. -1.
        -11    1    3    3    0    0 -0.49555249212E+01  0.10415954460E+01 -0.48021072814E+01  0.69787092589E+01  0.51100000000E-03 0.  1.
         12    1    3    3    0    0  0.15438477097E+00  0.20655067970E+02 -0.13258188754E+02  0.24544556148E+02  0.00000000000E+00 0. -1.
</event>
<event>
 7    1  0.2682317E-010  0.4778727E+02  0.7816164E-02  0.1312668E+00
        -11   -1    0    0    0    0  0.00000000000E+00  0.00000000000E+00  0.45593999997E+02  0.45594000000E+02  0.51100000000E-03 0.  1.
         11   -1    0    0    0    0 -0.00000000000E+00 -0.00000000000E+00 -0.45593999997E+02  0.45594000000E+02  0.51100000000E-03 0. -1.
    9900012    2    1    2    0    0  0.19746101518E+02  0.34843538298E+02  0.16722509571E+02  0.47787274054E+02  0.20000013723E+02 0.  0.
         12    1    1    2    0    0 -0.19746101518E+02 -0.34843538298E+02 -0.16722509571E+02  0.43400725946E+02  0.00000000000E+00 0. -1.
         11    1    3    3    0    0  0.58979925926E+01  0.16435061315E+02  0.35224653341E+01  0.17813065973E+02  0.51100000000E-03 0.  1.
        -11    1    3    3    0    0  0.11053163916E+02  0.20573421136E+02  0.11859444459E+02  0.26193215017E+02  0.51100000000E-03 0. -1.
         12    1    3    3    0    0  0.27949450088E+01 -0.21649441531E+01  0.13405997778E+01  0.37809930644E+01  0.00000000000E+00 0. -1.
</event>
<event>
 7    1  0.2682317E-010  0.4778727E+02  0.7816164E-02  0.1312668E+00
        -11   -1    0    0    0    0  0.00000000000E+00  0.00000000000E+00  0.45593999997E+02  0.45594000000E+02  0.51100000000E-03 0. -1.
         11   -1    0    0    0    0 -0.00000000000E+00 -0.00000000000E+00 -0.45593999997E+02  0.45594000000E+02  0.51100000000E-03 0.  1.
    9900012    2    1    2    0    0 -0.18007370418E+02  0.30743228020E+02  0.24783295857E+02  0.47787271757E+02  0.20000003250E+02 0.  0.
         12    1    1    2    0    0  0.18007370418E+02 -0.30743228020E+02 -0.24783295857E+02  0.43400728243E+02  0.00000000000E+00 0. -1.
         11    1    3    3    0    0 -0.68383928629E+01  0.19892171782E+01  0.25148125217E+01  0.75528063797E+01  0.51100000000E-03 0. -1.
        -11    1    3    3    0    0 -0.41279537762E+01  0.11486177304E+02  0.14597087327E+01  0.12292396890E+02  0.51100000000E-03 0.  1.
        -12    1    3    3    0    0 -0.70410237789E+01  0.17267833538E+02  0.20808774602E+02  0.27942068488E+02  0.00000000000E+00 0.  1.
</event>
<event>
 7    1  0.2682317E-010  0.4778727E+02  0.7816164E-02  0.1312668E+00
        -11   -1    0    0    0    0  0.00000000000E+00  0.00000000000E+00  0.45593999997E+02  0.45594000000E+02  0.51100000000E-03 0.  1.
         11   -1    0    0    0    0 -0.00000000000E+00 -0.00000000000E+00 -0.45593999997E+02  0.45594000000E+02  0.51100000000E-03 0. -1.
    9900012    2    1    2    0    0  0.20783091810E+01 -0.36940314292E+02  0.22687378545E+02  0.47787270349E+02  0.19999996829E+02 0.  0.
         12    1    1    2    0    0 -0.20783091810E+01  0.36940314292E+02 -0.22687378545E+02  0.43400729651E+02  0.00000000000E+00 0. -1.
         11    1    3    3    0    0 -0.42374231794E+01 -0.16687780922E+01  0.48494707631E+00  0.45799289787E+01  0.51100000000E-03 0. -1.
        -11    1    3    3    0    0 -0.17145578529E+01 -0.16874269330E+02  0.92773604640E+01  0.19332617296E+02  0.51100000000E-03 0.  1.
        -12    1    3    3    0    0  0.80302902132E+01 -0.18397266870E+02  0.12925071004E+02  0.23874724075E+02  0.00000000000E+00 0.  1.
</event>
<event>
 7    1  0.2682317E-010  0.4778727E+02  0.7816164E-02  0.1312668E+00
        -11   -1    0    0    0    0  0.00000000000E+00  0.00000000000E+00  0.45593999997E+02  0.45594000000E+02  0.51100000000E-03 0. -1.
         11   -1    0    0    0    0 -0.00000000000E+00 -0.00000000000E+00 -0.45593999997E+02  0.45594000000E+02  0.51100000000E-03 0.  1.
    9900012    2    1    2    0    0  0.15617568379E+02 -0.85031060878E+01 -0.39590550670E+02  0.47787274688E+02  0.20000016613E+02 0.  0.
         12    1    1    2    0    0 -0.15617568379E+02  0.85031060878E+01  0.39590550670E+02  0.43400725312E+02  0.00000000000E+00 0. -1.
         11    1    3    3    0    0  0.74868367171E+01 -0.41126003452E+01 -0.77010825432E+01  0.11500994662E+02  0.51100000000E-03 0. -1.
        -11    1    3    3    0    0  0.77693919541E+01 -0.83097172867E+01 -0.29651018860E+02  0.31758428368E+02  0.51100000000E-03 0.  1.
        -12    1    3    3    0    0  0.36133970826E+00  0.39192115440E+01 -0.22384492666E+01  0.45278516573E+01  0.00000000000E+00 0.  1.
</event>
<event>
 7    1  0.2682317E-010  0.4778727E+02  0.7816164E-02  0.1312668E+00
        -11   -1    0    0    0    0  0.00000000000E+00  0.00000000000E+00  0.45593999997E+02  0.45594000000E+02  0.51100000000E-03 0.  1.
         11   -1    0    0    0    0 -0.00000000000E+00 -0.00000000000E+00 -0.45593999997E+02  0.45594000000E+02  0.51100000000E-03 0. -1.
    9900012    2    1    2    0    0 -0.31870538675E+02  0.14328692221E+02  0.25740642568E+02  0.47787270329E+02  0.19999996738E+02 0.  0.
         12    1    1    2    0    0  0.31870538675E+02 -0.14328692221E+02 -0.25740642568E+02  0.43400729671E+02  0.00000000000E+00 0. -1.
         11    1    3    3    0    0 -0.13251358440E+02 -0.13955746847E+01  0.23426226836E+01  0.13529006265E+02  0.51100000000E-03 0. -1.
        -11    1    3    3    0    0 -0.12997033964E+02  0.80069228254E+01  0.16503955581E+02  0.22481420219E+02  0.51100000000E-03 0.  1.
        -12    1    3    3    0    0 -0.56221462707E+01  0.77173440799E+01  0.68940643033E+01  0.11776843845E+02  0.00000000000E+00 0.  1.
</event>
<event>
 7    1  0.2682317E-010  0.4778726E+02  0.7816164E-02  0.1312668E+00
        -11   -1    0    0    0    0  0.00000000000E+00  0.00000000000E+00  0.45593999997E+02  0.45594000000E+02  0.51100000000E-03 0.  1.
         11   -1    0    0    0    0 -0.00000000000E+00 -0.00000000000E+00 -0.45593999997E+02  0.45594000000E+02  0.51100000000E-03 0. -1.
    9900012    2    1    2    0    0  0.22684093770E+01 -0.67822250147E+01  0.42807473086E+02  0.47787262573E+02  0.19999961374E+02 0.  0.
         12    1    1    2    0    0 -0.22684093770E+01  0.67822250147E+01 -0.42807473086E+02  0.43400737427E+02  0.00000000000E+00 0. -1.
         11    1    3    3    0    0  0.82776620923E-01 -0.22903803434E+01  0.11567957526E+02  0.11792808642E+02  0.51100000000E-03 0.  1.
        -11    1    3    3    0    0 -0.52384500664E+01 -0.78917073885E+01  0.13800474138E+02  0.16738383772E+02  0.51100000000E-03 0. -1.
         12    1    3    3    0    0  0.74240828225E+01  0.33998627173E+01  0.17439041421E+02  0.19256070158E+02  0.00000000000E+00 0. -1.
</event>
<event>
 7    1  0.2682317E-010  0.4778726E+02  0.7816164E-02  0.1312668E+00
        -11   -1    0    0    0    0  0.00000000000E+00  0.00000000000E+00  0.45593999997E+02  0.45594000000E+02  0.51100000000E-03 0.  1.
         11   -1    0    0    0    0 -0.00000000000E+00 -0.00000000000E+00 -0.45593999997E+02  0.45594000000E+02  0.51100000000E-03 0. -1.
    9900012    2    1    2    0    0  0.15315768747E+02 -0.24449525970E+02  0.32423331144E+02  0.47787256977E+02  0.19999935861E+02 0.  0.
         12    1    1    2    0    0 -0.15315768747E+02  0.24449525970E+02 -0.32423331144E+02  0.43400743023E+02  0.00000000000E+00 0. -1.
         11    1    3    3    0    0 -0.17276328540E+01 -0.13851653448E+01  0.93877875097E+00  0.24051411840E+01  0.51100000000E-03 0. -1.
        -11    1    3    3    0    0  0.15553592369E+01 -0.10760204139E+02  0.41411153335E+01  0.11634000685E+02  0.51100000000E-03 0.  1.
         12    1    3    3    0    0  0.15488042364E+02 -0.12304156486E+02  0.27343437060E+02  0.33748115108E+02  0.00000000000E+00 0. -1.
</event>
<event>
 7    1  0.2682317E-010  0.4778727E+02  0.7816164E-02  0.1312668E+00
        -11   -1    0    0    0    0  0.00000000000E+00  0.00000000000E+00  0.45593999997E+02  0.45594000000E+02  0.51100000000E-03 0. -1.
         11   -1    0    0    0    0 -0.00000000000E+00 -0.00000000000E+00 -0.45593999997E+02  0.45594000000E+02  0.51100000000E-03 0.  1.
    9900012    2    1    2    0    0 -0.33574536032E+02  0.25339680862E+02 -0.10689919711E+02  0.47787270981E+02  0.19999999710E+02 0.  0.
         12    1    1    2    0    0  0.33574536032E+02 -0.25339680862E+02  0.10689919711E+02  0.43400729019E+02  0.00000000000E+00 0. -1.
         11    1    3    3    0    0 -0.14408732857E+02  0.14196670465E+02 -0.38209401613E+01  0.20585349616E+02  0.51100000000E-03 0. -1.
        -11    1    3    3    0    0 -0.11864344006E+02  0.10179095136E+02  0.19032614833E+01  0.15747985300E+02  0.51100000000E-03 0.  1.
         12    1    3    3    0    0 -0.73014591697E+01  0.96391526165E+00 -0.87722410334E+01  0.11453936065E+02  0.00000000000E+00 0. -1.
</event>
<event>
 7    1  0.2682317E-010  0.4778726E+02  0.7816164E-02  0.1312668E+00
        -11   -1    0    0    0    0  0.00000000000E+00  0.00000000000E+00  0.45593999997E+02  0.45594000000E+02  0.51100000000E-03 0.  1.
         11   -1    0    0    0    0 -0.00000000000E+00 -0.00000000000E+00 -0.45593999997E+02  0.45594000000E+02  0.51100000000E-03 0. -1.
    9900012    2    1    2    0    0  0.26515217654E+02 -0.27237069982E+02 -0.20945383791E+02  0.47787264400E+02  0.19999969705E+02 0.  0.
         12    1    1    2    0    0 -0.26515217654E+02  0.27237069982E+02  0.20945383791E+02  0.43400735600E+02  0.00000000000E+00 0. -1.
         11    1    3    3    0    0  0.15512915999E+02 -0.10657163687E+02 -0.12434048911E+02  0.22557288694E+02  0.51100000000E-03 0. -1.
        -11    1    3    3    0    0  0.83509623001E+01 -0.13550459555E+02 -0.11975424219E+02  0.19918943521E+02  0.51100000000E-03 0.  1.
         12    1    3    3    0    0  0.26513393550E+01 -0.30294467403E+01  0.34640893386E+01  0.53110321854E+01  0.00000000000E+00 0. -1.
</event>
<event>
 7    1  0.2682317E-010  0.4778727E+02  0.7816164E-02  0.1312668E+00
        -11   -1    0    0    0    0  0.00000000000E+00  0.00000000000E+00  0.45593999997E+02  0.45594000000E+02  0.51100000000E-03 0. -1.
         11   -1    0    0    0    0 -0.00000000000E+00 -0.00000000000E+00 -0.45593999997E+02  0.45594000000E+02  0.51100000000E-03 0.  1.
    9900012    2    1    2    0    0  0.16112648232E+02  0.39696977105E+02 -0.69394414861E+01  0.47787271061E+02  0.20000000075E+02 0.  0.
         12    1    1    2    0    0 -0.16112648232E+02 -0.39696977105E+02  0.69394414861E+01  0.43400728939E+02  0.00000000000E+00 0. -1.
         11    1    3    3    0    0  0.61355986735E+01  0.13038061269E+02 -0.69066954474E+01  0.15979332120E+02  0.51100000000E-03 0.  1.
        -11    1    3    3    0    0 -0.26599555629E+01  0.88299747643E+00 -0.12640324617E+01  0.30745449200E+01  0.51100000000E-03 0. -1.
         12    1    3    3    0    0  0.12637005122E+02  0.25775918359E+02  0.12312864229E+01  0.28733394021E+02  0.00000000000E+00 0. -1.
</event>
<event>
 7    1  0.2682317E-010  0.4778727E+02  0.7816164E-02  0.1312668E+00
        -11   -1    0    0    0    0  0.00000000000E+00  0.00000000000E+00  0.45593999997E+02  0.45594000000E+02  0.51100000000E-03 0. -1.
         11   -1    0    0    0    0 -0.00000000000E+00 -0.00000000000E+00 -0.45593999997E+02  0.45594000000E+02  0.51100000000E-03 0.  1.
    9900012    2    1    2    0    0  0.52060972313E+01  0.27903224258E+02 -0.32831844541E+02  0.47787269726E+02  0.19999993987E+02 0.  0.
         12    1    1    2    0    0 -0.52060972313E+01 -0.27903224258E+02  0.32831844541E+02  0.43400730274E+02  0.00000000000E+00 0. -1.
         11    1    3    3    0    0  0.83918676132E+01  0.95291976028E+01 -0.12638428069E+02  0.17915326212E+02  0.51100000000E-03 0. -1.
        -11    1    3    3    0    0  0.14309723686E+01  0.17124284357E+02 -0.16568801531E+02  0.23870776717E+02  0.51100000000E-03 0.  1.
         12    1    3    3    0    0 -0.46167427504E+01  0.12497422984E+01 -0.36246149416E+01  0.60011667958E+01  0.00000000000E+00 0. -1.
</event>
<event>
 7    1  0.2682317E-010  0.4778730E+02  0.7816164E-02  0.1312668E+00
        -11   -1    0    0    0    0  0.00000000000E+00  0.00000000000E+00  0.45593999997E+02  0.45594000000E+02  0.51100000000E-03 0.  1.
         11   -1    0    0    0    0 -0.00000000000E+00 -0.00000000000E+00 -0.45593999997E+02  0.45594000000E+02  0.51100000000E-03 0. -1.
    9900012    2    1    2    0    0  0.27686233159E+01  0.29565270263E+02  0.31652024016E+02  0.47787296030E+02  0.20000113920E+02 0.  0.
         12    1    1    2    0    0 -0.27686233159E+01 -0.29565270263E+02 -0.31652024016E+02  0.43400703970E+02  0.00000000000E+00 0. -1.
         11    1    3    3    0    0  0.43273328308E+01  0.89637908009E+01  0.11333646425E+02  0.15083994713E+02  0.51100000000E-03 0. -1.
        -11    1    3    3    0    0  0.25181463491E+01  0.21263955711E+02  0.17957705983E+02  0.27945949222E+02  0.51100000000E-03 0.  1.
         12    1    3    3    0    0 -0.40768558639E+01 -0.66247624888E+00  0.23606716074E+01  0.47573520947E+01  0.00000000000E+00 0. -1.
</event>
<event>
 7    1  0.2682317E-010  0.4778729E+02  0.7816164E-02  0.1312668E+00
        -11   -1    0    0    0    0  0.00000000000E+00  0.00000000000E+00  0.45593999997E+02  0.45594000000E+02  0.51100000000E-03 0. -1.
         11   -1    0    0    0    0 -0.00000000000E+00 -0.00000000000E+00 -0.45593999997E+02  0.45594000000E+02  0.51100000000E-03 0.  1.
    9900012    2    1    2    0    0  0.42970526702E-01  0.76587170253E+01 -0.42719597060E+02  0.47787288417E+02  0.20000079208E+02 0.  0.
         12    1    1    2    0    0 -0.42970526702E-01 -0.76587170253E+01  0.42719597060E+02  0.43400711583E+02  0.00000000000E+00 0. -1.
         11    1    3    3    0    0  0.32417647858E+01  0.49487096072E+00 -0.53555788150E+01  0.62798217251E+01  0.51100000000E-03 0. -1.
        -11    1    3    3    0    0 -0.56993206457E+01  0.19623693611E+01 -0.34576981617E+02  0.35098444514E+02  0.51100000000E-03 0.  1.
         12    1    3    3    0    0  0.25005263866E+01  0.52014767035E+01 -0.27870366286E+01  0.64090221778E+01  0.00000000000E+00 0. -1.
</event>
<event>
 7    1  0.2682317E-010  0.4778727E+02  0.7816164E-02  0.1312668E+00
        -11   -1    0    0    0    0  0.00000000000E+00  0.00000000000E+00  0.45593999997E+02  0.45594000000E+02  0.51100000000E-03 0.  1.
         11   -1    0    0    0    0 -0.00000000000E+00 -0.00000000000E+00 -0.45593999997E+02  0.45594000000E+02  0.51100000000E-03 0. -1.
    9900012    2    1    2    0    0 -0.21876151700E+01 -0.77840897162E+00  0.43338574977E+02  0.47787266576E+02  0.19999979627E+02 0.  0.
         12    1    1    2    0    0  0.21876151700E+01  0.77840897162E+00 -0.43338574977E+02  0.43400733424E+02  0.00000000000E+00 0. -1.
         11    1    3    3    0    0  0.48807474235E+01  0.45561577788E+01  0.51754131895E+01  0.84477908983E+01  0.51100000000E-03 0. -1.
        -11    1    3    3    0    0 -0.28671373099E+01 -0.24903247018E+00  0.94596638811E+01  0.98877567996E+01  0.51100000000E-03 0.  1.
         12    1    3    3    0    0 -0.42012252837E+01 -0.50855342803E+01  0.28703497907E+02  0.29451718878E+02  0.00000000000E+00 0. -1.
</event>
<event>
 7    1  0.2682317E-010  0.4778734E+02  0.7816164E-02  0.1312667E+00
        -11   -1    0    0    0    0  0.00000000000E+00  0.00000000000E+00  0.45593999997E+02  0.45594000000E+02  0.51100000000E-03 0.  1.
         11   -1    0    0    0    0 -0.00000000000E+00 -0.00000000000E+00 -0.45593999997E+02  0.45594000000E+02  0.51100000000E-03 0. -1.
    9900012    2    1    2    0    0 -0.42457905154E+02  0.36352818414E+01 -0.82297389040E+01  0.47787336565E+02  0.20000298734E+02 0.  0.
         12    1    1    2    0    0  0.42457905154E+02 -0.36352818414E+01  0.82297389040E+01  0.43400663435E+02  0.00000000000E+00 0. -1.
         11    1    3    3    0    0 -0.11475859042E+02  0.95765026607E+00 -0.33468251107E+00  0.11520609682E+02  0.51100000000E-03 0.  1.
        -11    1    3    3    0    0  0.35685258791E+00 -0.34460295609E+01 -0.69581206052E+00  0.35336409253E+01  0.51100000000E-03 0. -1.
        -12    1    3    3    0    0 -0.31338898699E+02  0.61236611363E+01 -0.71992443324E+01  0.32733085958E+02  0.00000000000E+00 0.  1.
</event>
<event>
 7    1  0.2682317E-010  0.4778727E+02  0.7816164E-02  0.1312668E+00
        -11   -1    0    0    0    0  0.00000000000E+00  0.00000000000E+00  0.45593999997E+02  0.45594000000E+02  0.51100000000E-03 0. -1.
         11   -1    0    0    0    0 -0.00000000000E+00 -0.00000000000E+00 -0.45593999997E+02  0.45594000000E+02  0.51100000000E-03 0.  1.
    9900012    2    1    2    0    0  0.17856483722E+02 -0.34192277127E+02 -0.19891149012E+02  0.47787266883E+02  0.19999981027E+02 0.  0.
         12    1    1    2    0    0 -0.17856483722E+02  0.34192277127E+02  0.19891149012E+02  0.43400733117E+02  0.00000000000E+00 0. -1.
         11    1    3    3    0    0  0.38592506503E+00  0.23019049161E+01 -0.72999954147E+00  0.24455273440E+01  0.51100000000E-03 0. -1.
        -11    1    3    3    0    0  0.22473045433E+01 -0.62409810150E+01 -0.44829030845E+00  0.66483972657E+01  0.51100000000E-03 0.  1.
        -12    1    3    3    0    0  0.15223254113E+02 -0.30253201028E+02 -0.18712859162E+02  0.38693342273E+02  0.00000000000E+00 0.  1.
</event>
<event>
 7    1  0.2682317E-010  0.4778727E+02  0.7816164E-02  0.1312668E+00
        -11   -1    0    0    0    0  0.00000000000E+00  0.00000000000E+00  0.45593999997E+02  0.45594000000E+02  0.51100000000E-03 0.  1.
         11   -1    0    0    0    0 -0.00000000000E+00 -0.00000000000E+00 -0.45593999997E+02  0.45594000000E+02  0.51100000000E-03 0. -1.
    9900012    2    1    2    0    0 -0.15647250571E+02 -0.16876871985E+01  0.40446740509E+02  0.47787267791E+02  0.19999985165E+02 0.  0.
         12    1    1    2    0    0  0.15647250571E+02  0.16876871985E+01 -0.40446740509E+02  0.43400732209E+02  0.00000000000E+00 0. -1.
         11    1    3    3    0    0 -0.13972761656E+02 -0.55488036972E+01  0.18409832299E+02  0.23768660381E+02  0.51100000000E-03 0. -1.
        -11    1    3    3    0    0 -0.39507316045E+01  0.84250498473E+00  0.18158491525E+02  0.18602389889E+02  0.51100000000E-03 0.  1.
        -12    1    3    3    0    0  0.22762426892E+01  0.30186115140E+01  0.38784166848E+01  0.54162175209E+01  0.00000000000E+00 0.  1.
</event>
<event>
 7    1  0.2682317E-010  0.4778727E+02  0.7816164E-02  0.1312668E+00
        -11   -1    0    0    0    0  0.00000000000E+00  0.00000000000E+00  0.45593999997E+02  0.45594000000E+02  0.51100000000E-03 0.  1.
         11   -1    0    0    0    0 -0.00000000000E+00 -0.00000000000E+00 -0.45593999997E+02  0.45594000000E+02  0.51100000000E-03 0. -1.
    9900012    2    1    2    0    0  0.32481463285E+02  0.63963828000E+01  0.28065357866E+02  0.47787268644E+02  0.19999989058E+02 0.  0.
         12    1    1    2    0    0 -0.32481463285E+02 -0.63963828000E+01 -0.28065357866E+02  0.43400731356E+02  0.00000000000E+00 0. -1.
         11    1    3    3    0    0  0.38531692063E+01  0.26484966778E+01  0.24429820815E+00  0.46820005831E+01  0.51100000000E-03 0.  1.
        -11    1    3    3    0    0  0.16328509168E+02  0.17922939315E+01  0.51091985749E+01  0.17202803246E+02  0.51100000000E-03 0. -1.
         12    1    3    3    0    0  0.12299784911E+02  0.19555921907E+01  0.22711861083E+02  0.25902464816E+02  0.00000000000E+00 0. -1.
</event>
<event>
 7    1  0.2682317E-010  0.4778730E+02  0.7816164E-02  0.1312668E+00
        -11   -1    0    0    0    0  0.00000000000E+00  0.00000000000E+00  0.45593999997E+02  0.45594000000E+02  0.51100000000E-03 0.  1.
         11   -1    0    0    0    0 -0.00000000000E+00 -0.00000000000E+00 -0.45593999997E+02  0.45594000000E+02  0.51100000000E-03 0. -1.
    9900012    2    1    2    0    0 -0.12524490037E+02  0.38957242991E+02  0.14459971458E+02  0.47787304076E+02  0.20000150603E+02 0.  0.
         12    1    1    2    0    0  0.12524490037E+02 -0.38957242991E+02 -0.14459971458E+02  0.43400695924E+02  0.00000000000E+00 0. -1.
         11    1    3    3    0    0 -0.22762234761E+01  0.41670324724E+01  0.93804857137E+01  0.10513746498E+02  0.51100000000E-03 0. -1.
        -11    1    3    3    0    0 -0.12803957586E+01  0.13530630325E+02  0.40304022300E+01  0.14176089471E+02  0.51100000000E-03 0.  1.
        -12    1    3    3    0    0 -0.89678708023E+01  0.21259580194E+02  0.10490835142E+01  0.23097468107E+02  0.00000000000E+00 0.  1.
</event>
<event>
 7    1  0.2682317E-010  0.4778727E+02  0.7816164E-02  0.1312668E+00
        -11   -1    0    0    0    0  0.00000000000E+00  0.00000000000E+00  0.45593999997E+02  0.45594000000E+02  0.51100000000E-03 0.  1.
         11   -1    0    0    0    0 -0.00000000000E+00 -0.00000000000E+00 -0.45593999997E+02  0.45594000000E+02  0.51100000000E-03 0. -1.
    9900012    2    1    2    0    0 -0.98748012002E+01 -0.39430833743E+02  0.15209229420E+02  0.47787274108E+02  0.20000013966E+02 0.  0.
         12    1    1    2    0    0  0.98748012002E+01  0.39430833743E+02 -0.15209229420E+02  0.43400725892E+02  0.00000000000E+00 0. -1.
         11    1    3    3    0    0  0.99953458053E+00 -0.25625254301E+01 -0.56003456139E+00  0.28069992748E+01  0.51100000000E-03 0. -1.
        -11    1    3    3    0    0 -0.76920604361E+01 -0.25554970265E+02  0.19037564212E+02  0.32781902788E+02  0.51100000000E-03 0.  1.
        -12    1    3    3    0    0 -0.31822753446E+01 -0.11313338048E+02 -0.32683002301E+01  0.12198372045E+02  0.00000000000E+00 0.  1.
</event>
<event>
 7    1  0.2682317E-010  0.4778729E+02  0.7816164E-02  0.1312668E+00
        -11   -1    0    0    0    0  0.00000000000E+00  0.00000000000E+00  0.45593999997E+02  0.45594000000E+02  0.51100000000E-03 0.  1.
         11   -1    0    0    0    0 -0.00000000000E+00 -0.00000000000E+00 -0.45593999997E+02  0.45594000000E+02  0.51100000000E-03 0. -1.
    9900012    2    1    2    0    0 -0.21709168575E+02  0.37389147021E+02  0.37928077413E+01  0.47787289110E+02  0.20000082369E+02 0.  0.
         12    1    1    2    0    0  0.21709168575E+02 -0.37389147021E+02 -0.37928077413E+01  0.43400710890E+02  0.00000000000E+00 0. -1.
         11    1    3    3    0    0 -0.48058501082E+01  0.22851762687E+02 -0.11611319218E+01  0.23380493596E+02  0.51100000000E-03 0. -1.
        -11    1    3    3    0    0 -0.48280706926E+01  0.36328776757E+01 -0.24640939923E+01  0.65253219294E+01  0.51100000000E-03 0.  1.
        -12    1    3    3    0    0 -0.12075247774E+02  0.10904506658E+02  0.74180336554E+01  0.17881473585E+02  0.00000000000E+00 0.  1.
</event>
<event>
 7    1  0.2682317E-010  0.4778726E+02  0.7816164E-02  0.1312668E+00
        -11   -1    0    0    0    0  0.00000000000E+00  0.00000000000E+00  0.45593999997E+02  0.45594000000E+02  0.51100000000E-03 0. -1.
         11   -1    0    0    0    0 -0.00000000000E+00 -0.00000000000E+00 -0.45593999997E+02  0.45594000000E+02  0.51100000000E-03 0.  1.
    9900012    2    1    2    0    0 -0.29501315795E+01  0.33458421663E+02 -0.27485538851E+02  0.47787261499E+02  0.19999956477E+02 0.  0.
         12    1    1    2    0    0  0.29501315795E+01 -0.33458421663E+02  0.27485538851E+02  0.43400738501E+02  0.00000000000E+00 0. -1.
         11    1    3    3    0    0 -0.33392677248E+01  0.15892351866E+02 -0.62951280901E+01  0.17416836530E+02  0.51100000000E-03 0. -1.
        -11    1    3    3    0    0 -0.45426952933E+01  0.11288551575E+02 -0.68661573127E+01  0.13971814259E+02  0.51100000000E-03 0.  1.
        -12    1    3    3    0    0  0.49318314386E+01  0.62775182224E+01 -0.14324253448E+02  0.16398610710E+02  0.00000000000E+00 0.  1.
</event>
<event>
 7    1  0.2682317E-010  0.4778728E+02  0.7816164E-02  0.1312668E+00
        -11   -1    0    0    0    0  0.00000000000E+00  0.00000000000E+00  0.45593999997E+02  0.45594000000E+02  0.51100000000E-03 0.  1.
         11   -1    0    0    0    0 -0.00000000000E+00 -0.00000000000E+00 -0.45593999997E+02  0.45594000000E+02  0.51100000000E-03 0. -1.
    9900012    2    1    2    0    0  0.29556229360E+02  0.70893944209E+01  0.30980512011E+02  0.47787281899E+02  0.20000049492E+02 0.  0.
         12    1    1    2    0    0 -0.29556229360E+02 -0.70893944209E+01 -0.30980512011E+02  0.43400718101E+02  0.00000000000E+00 0. -1.
         11    1    3    3    0    0  0.30836374152E+01  0.52895548783E+01  0.13749017568E+02  0.15050704132E+02  0.51100000000E-03 0. -1.
        -11    1    3    3    0    0 -0.62224337650E+00  0.30859012871E+00  0.34476881815E+00  0.77542277902E+00  0.51100000000E-03 0.  1.
        -12    1    3    3    0    0  0.27094835321E+02  0.14912494139E+01  0.16886725625E+02  0.31961154989E+02  0.00000000000E+00 0.  1.
</event>
<event>
 7    1  0.2682317E-010  0.4778727E+02  0.7816164E-02  0.1312668E+00
        -11   -1    0    0    0    0  0.00000000000E+00  0.00000000000E+00  0.45593999997E+02  0.45594000000E+02  0.51100000000E-03 0.  1.
         11   -1    0    0    0    0 -0.00000000000E+00 -0.00000000000E+00 -0.45593999997E+02  0.45594000000E+02  0.51100000000E-03 0. -1.
    9900012    2    1    2    0    0 -0.15581241211E+02 -0.34635504414E+02  0.21005469783E+02  0.47787274148E+02  0.20000014151E+02 0.  0.
         12    1    1    2    0    0  0.15581241211E+02  0.34635504414E+02 -0.21005469783E+02  0.43400725852E+02  0.00000000000E+00 0. -1.
         11    1    3    3    0    0 -0.35839557764E+01 -0.70730502100E+01  0.69808962954E+01  0.10564359499E+02  0.51100000000E-03 0.  1.
        -11    1    3    3    0    0  0.21599456802E+01  0.71301860130E+00 -0.64497862439E+00  0.23642670226E+01  0.51100000000E-03 0. -1.
         12    1    3    3    0    0 -0.14157231115E+02 -0.28275472805E+02  0.14669552112E+02  0.34858647626E+02  0.00000000000E+00 0. -1.
</event>
<event>
 7    1  0.2682317E-010  0.4778728E+02  0.7816164E-02  0.1312668E+00
        -11   -1    0    0    0    0  0.00000000000E+00  0.00000000000E+00  0.45593999997E+02  0.45594000000E+02  0.51100000000E-03 0. -1.
         11   -1    0    0    0    0 -0.00000000000E+00 -0.00000000000E+00 -0.45593999997E+02  0.45594000000E+02  0.51100000000E-03 0.  1.
    9900012    2    1    2    0    0  0.19170614277E+02 -0.38426927627E+02 -0.62834336320E+01  0.47787277001E+02  0.20000027158E+02 0.  0.
         12    1    1    2    0    0 -0.19170614277E+02  0.38426927627E+02  0.62834336320E+01  0.43400722999E+02  0.00000000000E+00 0. -1.
         11    1    3    3    0    0 -0.14995767600E+01 -0.92997574928E+00 -0.80418510106E-01  0.17663671055E+01  0.51100000000E-03 0. -1.
        -11    1    3    3    0    0  0.55189947703E+01 -0.60061179487E+00 -0.20550455076E+01  0.59197339554E+01  0.51100000000E-03 0.  1.
        -12    1    3    3    0    0  0.15151196267E+02 -0.36896340083E+02 -0.41479696143E+01  0.40101175940E+02  0.00000000000E+00 0.  1.
</event>
<event>
 7    1  0.2682317E-010  0.4778728E+02  0.7816164E-02  0.1312668E+00
        -11   -1    0    0    0    0  0.00000000000E+00  0.00000000000E+00  0.45593999997E+02  0.45594000000E+02  0.51100000000E-03 0.  1.
         11   -1    0    0    0    0 -0.00000000000E+00 -0.00000000000E+00 -0.45593999997E+02  0.45594000000E+02  0.51100000000E-03 0. -1.
    9900012    2    1    2    0    0  0.32905468430E+02  0.18568277813E+02  0.21355829267E+02  0.47787282988E+02  0.20000054453E+02 0.  0.
         12    1    1    2    0    0 -0.32905468430E+02 -0.18568277813E+02 -0.21355829267E+02  0.43400717012E+02  0.00000000000E+00 0. -1.
         11    1    3    3    0    0  0.85416388366E+01 -0.19459167373E+01  0.75373190028E+01  0.11556702124E+02  0.51100000000E-03 0. -1.
        -11    1    3    3    0    0  0.13829013372E+02  0.78378287201E+01  0.11424124068E+02  0.19575080610E+02  0.51100000000E-03 0.  1.
        -12    1    3    3    0    0  0.10534816221E+02  0.12676365830E+02  0.23943861965E+01  0.16655500254E+02  0.00000000000E+00 0.  1.
</event>
<event>
 7    1  0.2682317E-010  0.4778726E+02  0.7816164E-02  0.1312668E+00
        -11   -1    0    0    0    0  0.00000000000E+00  0.00000000000E+00  0.45593999997E+02  0.45594000000E+02  0.51100000000E-03 0.  1.
         11   -1    0    0    0    0 -0.00000000000E+00 -0.00000000000E+00 -0.45593999997E+02  0.45594000000E+02  0.51100000000E-03 0. -1.
    9900012    2    1    2    0    0 -0.36189942195E+02 -0.99893374222E+01  0.21774412918E+02  0.47787264567E+02  0.19999970466E+02 0.  0.
         12    1    1    2    0    0  0.36189942195E+02  0.99893374222E+01 -0.21774412918E+02  0.43400735433E+02  0.00000000000E+00 0. -1.
         11    1    3    3    0    0 -0.13276844299E+00 -0.29318003651E+01  0.23168234420E+00  0.29439357686E+01  0.51100000000E-03 0. -1.
        -11    1    3    3    0    0 -0.10641446923E+02 -0.36467121676E+01  0.14304598388E+02  0.18197814087E+02  0.51100000000E-03 0.  1.
        -12    1    3    3    0    0 -0.25415726829E+02 -0.34108248895E+01  0.72381321861E+01  0.26645514711E+02  0.00000000000E+00 0.  1.
</event>
<event>
 7    1  0.2682317E-010  0.4778728E+02  0.7816164E-02  0.1312668E+00
        -11   -1    0    0    0    0  0.00000000000E+00  0.00000000000E+00  0.45593999997E+02  0.45594000000E+02  0.51100000000E-03 0.  1.
         11   -1    0    0    0    0 -0.00000000000E+00 -0.00000000000E+00 -0.45593999997E+02  0.45594000000E+02  0.51100000000E-03 0. -1.
    9900012    2    1    2    0    0  0.34265927677E+02  0.14381149221E+01  0.26596995499E+02  0.47787284065E+02  0.20000059366E+02 0.  0.
         12    1    1    2    0    0 -0.34265927677E+02 -0.14381149221E+01 -0.26596995499E+02  0.43400715935E+02  0.00000000000E+00 0. -1.
         11    1    3    3    0    0  0.13421332134E+02  0.51196029901E-01  0.18365285435E+02  0.22746834651E+02  0.51100000000E-03 0.  1.
        -11    1    3    3    0    0  0.36719704256E+01  0.31667546586E+01  0.58721061533E+01  0.76153353709E+01  0.51100000000E-03 0. -1.
         12    1    3    3    0    0  0.17172625118E+02 -0.17798357664E+01  0.23596039107E+01  0.17425114043E+02  0.00000000000E+00 0. -1.
</event>
<event>
 7    1  0.2682317E-010  0.4778728E+02  0.7816164E-02  0.1312668E+00
        -11   -1    0    0    0    0  0.00000000000E+00  0.00000000000E+00  0.45593999997E+02  0.45594000000E+02  0.51100000000E-03 0. -1.
         11   -1    0    0    0    0 -0.00000000000E+00 -0.00000000000E+00 -0.45593999997E+02  0.45594000000E+02  0.51100000000E-03 0.  1.
    9900012    2    1    2    0    0 -0.29428289800E+02  0.54718641548E+01 -0.31427009025E+02  0.47787280718E+02  0.20000044108E+02 0.  0.
         12    1    1    2    0    0  0.29428289800E+02 -0.54718641548E+01  0.31427009025E+02  0.43400719282E+02  0.00000000000E+00 0. -1.
         11    1    3    3    0    0 -0.22450428689E+00  0.29370000229E+01  0.81126995556E+00  0.30552463912E+01  0.51100000000E-03 0. -1.
        -11    1    3    3    0    0 -0.64415436952E+01  0.49428325644E+01 -0.86526048102E+01  0.11865607831E+02  0.51100000000E-03 0.  1.
        -12    1    3    3    0    0 -0.22762241818E+02 -0.24079684326E+01 -0.23585674171E+02  0.32866426496E+02  0.00000000000E+00 0.  1.
</event>
<event>
 7    1  0.2682317E-010  0.4778728E+02  0.7816164E-02  0.1312668E+00
        -11   -1    0    0    0    0  0.00000000000E+00  0.00000000000E+00  0.45593999997E+02  0.45594000000E+02  0.51100000000E-03 0. -1.
         11   -1    0    0    0    0 -0.00000000000E+00 -0.00000000000E+00 -0.45593999997E+02  0.45594000000E+02  0.51100000000E-03 0.  1.
    9900012    2    1    2    0    0  0.18023124142E+02  0.34435459826E+01 -0.39331053926E+02  0.47787276323E+02  0.20000024069E+02 0.  0.
         12    1    1    2    0    0 -0.18023124142E+02 -0.34435459826E+01  0.39331053926E+02  0.43400723677E+02  0.00000000000E+00 0. -1.
         11    1    3    3    0    0  0.24946440791E+00  0.75988346955E+00 -0.13947143577E+02  0.13970056178E+02  0.51100000000E-03 0. -1.
        -11    1    3    3    0    0  0.97522612412E+01  0.33638789590E+01 -0.23330158897E+02  0.25509186491E+02  0.51100000000E-03 0.  1.
         12    1    3    3    0    0  0.80213984927E+01 -0.68021644589E+00 -0.20537514506E+01  0.83080336550E+01  0.00000000000E+00 0. -1.
</event>
<event>
 7    1  0.2682317E-010  0.4778728E+02  0.7816164E-02  0.1312668E+00
        -11   -1    0    0    0    0  0.00000000000E+00  0.00000000000E+00  0.45593999997E+02  0.45594000000E+02  0.51100000000E-03 0.  1.
         11   -1    0    0    0    0 -0.00000000000E+00 -0.00000000000E+00 -0.45593999997E+02  0.45594000000E+02  0.51100000000E-03 0. -1.
    9900012    2    1    2    0    0 -0.26721141274E+02  0.28000844072E+02  0.19635584123E+02  0.47787276232E+02  0.20000023652E+02 0.  0.
         12    1    1    2    0    0  0.26721141274E+02 -0.28000844072E+02 -0.19635584123E+02  0.43400723768E+02  0.00000000000E+00 0. -1.
         11    1    3    3    0    0 -0.40441331957E+01  0.51916019698E+01 -0.57733621337E+00  0.66061381822E+01  0.51100000000E-03 0. -1.
        -11    1    3    3    0    0 -0.18698635921E+02  0.87132619542E+01  0.15471441498E+02  0.25786147860E+02  0.51100000000E-03 0.  1.
        -12    1    3    3    0    0 -0.39783721576E+01  0.14095980148E+02  0.47414788381E+01  0.15394990189E+02  0.00000000000E+00 0.  1.
</event>
<event>
 7    1  0.2682317E-010  0.4778727E+02  0.7816164E-02  0.1312668E+00
        -11   -1    0    0    0    0  0.00000000000E+00  0.00000000000E+00  0.45593999997E+02  0.45594000000E+02  0.51100000000E-03 0. -1.
         11   -1    0    0    0    0 -0.00000000000E+00 -0.00000000000E+00 -0.45593999997E+02  0.45594000000E+02  0.51100000000E-03 0.  1.
    9900012    2    1    2    0    0 -0.34389523846E+02 -0.26281780346E+02 -0.32018490050E+01  0.47787272293E+02  0.20000005692E+02 0.  0.
         12    1    1    2    0    0  0.34389523846E+02  0.26281780346E+02  0.32018490050E+01  0.43400727707E+02  0.00000000000E+00 0. -1.
         11    1    3    3    0    0 -0.11884536326E+02 -0.11431135855E+02  0.18312988055E+01  0.16591164100E+02  0.51100000000E-03 0. -1.
        -11    1    3    3    0    0 -0.45195726721E+01 -0.10629105411E+02 -0.53275262635E+01  0.12719550123E+02  0.51100000000E-03 0.  1.
         12    1    3    3    0    0 -0.17985414847E+02 -0.42215390797E+01  0.29437845300E+00  0.18476558070E+02  0.00000000000E+00 0. -1.
</event>
<event>
 7    1  0.2682317E-010  0.4778727E+02  0.7816164E-02  0.1312668E+00
        -11   -1    0    0    0    0  0.00000000000E+00  0.00000000000E+00  0.45593999997E+02  0.45594000000E+02  0.51100000000E-03 0.  1.
         11   -1    0    0    0    0 -0.00000000000E+00 -0.00000000000E+00 -0.45593999997E+02  0.45594000000E+02  0.51100000000E-03 0. -1.
    9900012    2    1    2    0    0 -0.31661470888E+01 -0.54693308920E+01  0.42938157721E+02  0.47787268943E+02  0.19999990418E+02 0.  0.
         12    1    1    2    0    0  0.31661470888E+01  0.54693308920E+01 -0.42938157721E+02  0.43400731057E+02  0.00000000000E+00 0. -1.
         11    1    3    3    0    0 -0.81287878721E+00 -0.73609781799E+00  0.40062471082E+01  0.41536283022E+01  0.51100000000E-03 0. -1.
        -11    1    3    3    0    0 -0.95732689151E+01 -0.18516532622E+01  0.11282099902E+02  0.14911803244E+02  0.51100000000E-03 0.  1.
         12    1    3    3    0    0  0.72200006136E+01 -0.28815798117E+01  0.27649810711E+02  0.28721837397E+02  0.00000000000E+00 0. -1.
</event>
<event>
 7    1  0.2682317E-010  0.4778730E+02  0.7816164E-02  0.1312668E+00
        -11   -1    0    0    0    0  0.00000000000E+00  0.00000000000E+00  0.45593999997E+02  0.45594000000E+02  0.51100000000E-03 0.  1.
         11   -1    0    0    0    0 -0.00000000000E+00 -0.00000000000E+00 -0.45593999997E+02  0.45594000000E+02  0.51100000000E-03 0. -1.
    9900012    2    1    2    0    0 -0.24475436289E+02 -0.15951448677E+02  0.32095567326E+02  0.47787295647E+02  0.20000112171E+02 0.  0.
         12    1    1    2    0    0  0.24475436289E+02  0.15951448677E+02 -0.32095567326E+02  0.43400704353E+02  0.00000000000E+00 0. -1.
         11    1    3    3    0    0 -0.78760964440E+01 -0.32897881889E+01  0.11263568856E+02  0.14132359505E+02  0.51100000000E-03 0.  1.
        -11    1    3    3    0    0 -0.12476580170E+02 -0.12461324791E+02  0.23008496672E+02  0.28988628592E+02  0.51100000000E-03 0. -1.
         12    1    3    3    0    0 -0.41227596742E+01 -0.20033569740E+00 -0.21764982027E+01  0.46663075498E+01  0.00000000000E+00 0. -1.
</event>
<event>
 7    1  0.2682317E-010  0.4778727E+02  0.7816164E-02  0.1312668E+00
        -11   -1    0    0    0    0  0.00000000000E+00  0.00000000000E+00  0.45593999997E+02  0.45594000000E+02  0.51100000000E-03 0.  1.
         11   -1    0    0    0    0 -0.00000000000E+00 -0.00000000000E+00 -0.45593999997E+02  0.45594000000E+02  0.51100000000E-03 0. -1.
    9900012    2    1    2    0    0 -0.15257340982E+01 -0.31339841807E+02  0.29985158261E+02  0.47787271148E+02  0.20000000471E+02 0.  0.
         12    1    1    2    0    0  0.15257340982E+01  0.31339841807E+02 -0.29985158261E+02  0.43400728852E+02  0.00000000000E+00 0. -1.
         11    1    3    3    0    0 -0.37854200393E+01 -0.10053724827E+01  0.60818392227E+00  0.39635926440E+01  0.51100000000E-03 0. -1.
        -11    1    3    3    0    0 -0.38064537259E+01 -0.48947255256E+01  0.39774103220E+01  0.73666288810E+01  0.51100000000E-03 0.  1.
        -12    1    3    3    0    0  0.60661396670E+01 -0.25439743798E+02  0.25399564016E+02  0.36457049623E+02  0.00000000000E+00 0.  1.
</event>
<event>
 7    1  0.2682317E-010  0.4778727E+02  0.7816164E-02  0.1312668E+00
        -11   -1    0    0    0    0  0.00000000000E+00  0.00000000000E+00  0.45593999997E+02  0.45594000000E+02  0.51100000000E-03 0.  1.
         11   -1    0    0    0    0 -0.00000000000E+00 -0.00000000000E+00 -0.45593999997E+02  0.45594000000E+02  0.51100000000E-03 0. -1.
    9900012    2    1    2    0    0 -0.16327577067E+01  0.17137562409E+02  0.39840450030E+02  0.47787269573E+02  0.19999993289E+02 0.  0.
         12    1    1    2    0    0  0.16327577067E+01 -0.17137562409E+02 -0.39840450030E+02  0.43400730427E+02  0.00000000000E+00 0. -1.
         11    1    3    3    0    0 -0.18748874959E+01 -0.60824157284E+00  0.68399955199E+01  0.71183354730E+01  0.51100000000E-03 0. -1.
        -11    1    3    3    0    0 -0.29388074498E+01  0.16390260719E+02  0.33266172809E+02  0.37201014627E+02  0.51100000000E-03 0.  1.
        -12    1    3    3    0    0  0.31809372389E+01  0.13555432630E+01 -0.26571829879E+00  0.34679194729E+01  0.00000000000E+00 0.  1.
</event>
<event>
 7    1  0.2682317E-010  0.4778727E+02  0.7816164E-02  0.1312668E+00
        -11   -1    0    0    0    0  0.00000000000E+00  0.00000000000E+00  0.45593999997E+02  0.45594000000E+02  0.51100000000E-03 0.  1.
         11   -1    0    0    0    0 -0.00000000000E+00 -0.00000000000E+00 -0.45593999997E+02  0.45594000000E+02  0.51100000000E-03 0. -1.
    9900012    2    1    2    0    0 -0.16270276632E+02 -0.15829125127E+02  0.36991082422E+02  0.47787270943E+02  0.19999999539E+02 0.  0.
         12    1    1    2    0    0  0.16270276632E+02  0.15829125127E+02 -0.36991082422E+02  0.43400729057E+02  0.00000000000E+00 0. -1.
         11    1    3    3    0    0 -0.33132988493E+01 -0.49837078140E+01  0.85892186303E+00  0.60459110039E+01  0.51100000000E-03 0. -1.
        -11    1    3    3    0    0 -0.12932193539E+02 -0.94327573786E+01  0.20325561021E+02  0.25871740810E+02  0.51100000000E-03 0.  1.
         12    1    3    3    0    0 -0.24784243425E-01 -0.14126599341E+01  0.15806599538E+02  0.15869619129E+02  0.00000000000E+00 0. -1.
</event>
<event>
 7    1  0.2682317E-010  0.4778727E+02  0.7816164E-02  0.1312668E+00
        -11   -1    0    0    0    0  0.00000000000E+00  0.00000000000E+00  0.45593999997E+02  0.45594000000E+02  0.51100000000E-03 0. -1.
         11   -1    0    0    0    0 -0.00000000000E+00 -0.00000000000E+00 -0.45593999997E+02  0.45594000000E+02  0.51100000000E-03 0.  1.
    9900012    2    1    2    0    0 -0.90577274281E+00  0.59463473143E+01 -0.42981904084E+02  0.47787267872E+02  0.19999985533E+02 0.  0.
         12    1    1    2    0    0  0.90577274281E+00 -0.59463473143E+01  0.42981904084E+02  0.43400732128E+02  0.00000000000E+00 0. -1.
         11    1    3    3    0    0  0.27731724680E+01  0.23238250858E+01 -0.37526277932E+01  0.52127597472E+01  0.51100000000E-03 0. -1.
        -11    1    3    3    0    0  0.31396601612E+01  0.65867379059E+01 -0.29151722604E+02  0.30051048455E+02  0.51100000000E-03 0.  1.
        -12    1    3    3    0    0 -0.68186053720E+01 -0.29642156774E+01 -0.10077553686E+02  0.12523459669E+02  0.00000000000E+00 0.  1.
</event>
<event>
 7    1  0.2682317E-010  0.4778725E+02  0.7816164E-02  0.1312668E+00
        -11   -1    0    0    0    0  0.00000000000E+00  0.00000000000E+00  0.45593999997E+02  0.45594000000E+02  0.51100000000E-03 0.  1.
         11   -1    0    0    0    0 -0.00000000000E+00 -0.00000000000E+00 -0.45593999997E+02  0.45594000000E+02  0.51100000000E-03 0. -1.
    9900012    2    1    2    0    0 -0.37601607029E+02  0.75221455596E+01  0.20326369421E+02  0.47787253245E+02  0.19999918847E+02 0.  0.
         12    1    1    2    0    0  0.37601607029E+02 -0.75221455596E+01 -0.20326369421E+02  0.43400746755E+02  0.00000000000E+00 0. -1.
         11    1    3    3    0    0 -0.52331667055E+01  0.22033139043E+01  0.74228003143E+01  0.93455117942E+01  0.51100000000E-03 0. -1.
        -11    1    3    3    0    0 -0.51195414990E+01  0.69948803670E+01  0.50596386292E+01  0.10036832161E+02  0.51100000000E-03 0.  1.
         12    1    3    3    0    0 -0.27248898825E+02 -0.16760487117E+01  0.78439304777E+01  0.28404909290E+02  0.00000000000E+00 0. -1.
</event>
<event>
 7    1  0.2682317E-010  0.4778729E+02  0.7816164E-02  0.1312668E+00
        -11   -1    0    0    0    0  0.00000000000E+00  0.00000000000E+00  0.45593999997E+02  0.45594000000E+02  0.51100000000E-03 0.  1.
         11   -1    0    0    0    0 -0.00000000000E+00 -0.00000000000E+00 -0.45593999997E+02  0.45594000000E+02  0.51100000000E-03 0. -1.
    9900012    2    1    2    0    0  0.80407924108E+01 -0.26744194499E+02  0.33222207824E+02  0.47787292923E+02  0.20000099755E+02 0.  0.
         12    1    1    2    0    0 -0.80407924108E+01  0.26744194499E+02 -0.33222207824E+02  0.43400707077E+02  0.00000000000E+00 0. -1.
         11    1    3    3    0    0 -0.41553786218E+01 -0.64138444361E+01  0.48355094844E+01  0.90436012835E+01  0.51100000000E-03 0. -1.
        -11    1    3    3    0    0 -0.22766103569E+01 -0.24039296654E+01  0.40504470552E+01  0.52314390144E+01  0.51100000000E-03 0.  1.
         12    1    3    3    0    0  0.14472781389E+02 -0.17926420398E+02  0.24336251285E+02  0.33512252626E+02  0.00000000000E+00 0. -1.
</event>
<event>
 7    1  0.2682317E-010  0.4778727E+02  0.7816164E-02  0.1312668E+00
        -11   -1    0    0    0    0  0.00000000000E+00  0.00000000000E+00  0.45593999997E+02  0.45594000000E+02  0.51100000000E-03 0.  1.
         11   -1    0    0    0    0 -0.00000000000E+00 -0.00000000000E+00 -0.45593999997E+02  0.45594000000E+02  0.51100000000E-03 0. -1.
    9900012    2    1    2    0    0 -0.36380891257E+01  0.23514611687E+02  0.36296703772E+02  0.47787270053E+02  0.19999995477E+02 0.  0.
         12    1    1    2    0    0  0.36380891257E+01 -0.23514611687E+02 -0.36296703772E+02  0.43400729947E+02  0.00000000000E+00 0. -1.
         11    1    3    3    0    0  0.45100972111E+01  0.29831945607E+00  0.75534012514E+01  0.88024906747E+01  0.51100000000E-03 0. -1.
        -11    1    3    3    0    0 -0.27547087989E+01  0.26835842492E+01  0.98186384835E+01  0.10544937502E+02  0.51100000000E-03 0.  1.
        -12    1    3    3    0    0 -0.53934775378E+01  0.20532707982E+02  0.18924664037E+02  0.28439841876E+02  0.00000000000E+00 0.  1.
</event>
<event>
 7    1  0.2682317E-010  0.4778727E+02  0.7816164E-02  0.1312668E+00
        -11   -1    0    0    0    0  0.00000000000E+00  0.00000000000E+00  0.45593999997E+02  0.45594000000E+02  0.51100000000E-03 0.  1.
         11   -1    0    0    0    0 -0.00000000000E+00 -0.00000000000E+00 -0.45593999997E+02  0.45594000000E+02  0.51100000000E-03 0. -1.
    9900012    2    1    2    0    0  0.35692704726E+02 -0.16398764131E+01  0.24636655808E+02  0.47787272187E+02  0.20000005210E+02 0.  0.
         12    1    1    2    0    0 -0.35692704726E+02  0.16398764131E+01 -0.24636655808E+02  0.43400727813E+02  0.00000000000E+00 0. -1.
         11    1    3    3    0    0  0.16999772050E+02  0.29988829123E+01  0.15762832928E+02  0.23376322436E+02  0.51100000000E-03 0. -1.
        -11    1    3    3    0    0  0.14906548590E+02  0.20499369254E+01  0.61795155826E+01  0.16266340872E+02  0.51100000000E-03 0.  1.
        -12    1    3    3    0    0  0.37863840858E+01 -0.66886962508E+01  0.26943072976E+01  0.81446088792E+01  0.00000000000E+00 0.  1.
</event>
<event>
 7    1  0.2682317E-010  0.4778727E+02  0.7816164E-02  0.1312668E+00
        -11   -1    0    0    0    0  0.00000000000E+00  0.00000000000E+00  0.45593999997E+02  0.45594000000E+02  0.51100000000E-03 0.  1.
         11   -1    0    0    0    0 -0.00000000000E+00 -0.00000000000E+00 -0.45593999997E+02  0.45594000000E+02  0.51100000000E-03 0. -1.
    9900012    2    1    2    0    0  0.10672869788E+02  0.22109966756E+02  0.35789138522E+02  0.47787271716E+02  0.20000003061E+02 0.  0.
         12    1    1    2    0    0 -0.10672869788E+02 -0.22109966756E+02 -0.35789138522E+02  0.43400728284E+02  0.00000000000E+00 0. -1.
         11    1    3    3    0    0  0.67824280102E+01  0.91349480962E+01  0.77024570206E+01  0.13739594275E+02  0.51100000000E-03 0. -1.
        -11    1    3    3    0    0  0.75260589015E+01  0.84307414548E+01  0.10148816876E+02  0.15189386041E+02  0.51100000000E-03 0.  1.
        -12    1    3    3    0    0 -0.36356171238E+01  0.45442772048E+01  0.17937864625E+02  0.18858291399E+02  0.00000000000E+00 0.  1.
</event>
<event>
 7    1  0.2682317E-010  0.4778727E+02  0.7816164E-02  0.1312668E+00
        -11   -1    0    0    0    0  0.00000000000E+00  0.00000000000E+00  0.45593999997E+02  0.45594000000E+02  0.51100000000E-03 0. -1.
         11   -1    0    0    0    0 -0.00000000000E+00 -0.00000000000E+00 -0.45593999997E+02  0.45594000000E+02  0.51100000000E-03 0.  1.
    9900012    2    1    2    0    0  0.41808983044E+01  0.35752216735E+02 -0.24247105077E+02  0.47787274007E+02  0.20000013508E+02 0.  0.
         12    1    1    2    0    0 -0.41808983044E+01 -0.35752216735E+02  0.24247105077E+02  0.43400725993E+02  0.00000000000E+00 0. -1.
         11    1    3    3    0    0  0.13333870616E+01  0.92428699116E+01 -0.67630189643E+01  0.11530264135E+02  0.51100000000E-03 0.  1.
        -11    1    3    3    0    0  0.13999341045E+01  0.22916288774E+02 -0.54252976866E+01  0.23591311153E+02  0.51100000000E-03 0. -1.
         12    1    3    3    0    0  0.14475771383E+01  0.35930580486E+01 -0.12058788426E+02  0.12665698718E+02  0.00000000000E+00 0. -1.
</event>
<event>
 7    1  0.2682317E-010  0.4778727E+02  0.7816164E-02  0.1312668E+00
        -11   -1    0    0    0    0  0.00000000000E+00  0.00000000000E+00  0.45593999997E+02  0.45594000000E+02  0.51100000000E-03 0.  1.
         11   -1    0    0    0    0 -0.00000000000E+00 -0.00000000000E+00 -0.45593999997E+02  0.45594000000E+02  0.51100000000E-03 0. -1.
    9900012    2    1    2    0    0 -0.67011638256E+01 -0.15603735674E+02  0.39940470858E+02  0.47787269869E+02  0.19999994638E+02 0.  0.
         12    1    1    2    0    0  0.67011638256E+01  0.15603735674E+02 -0.39940470858E+02  0.43400730131E+02  0.00000000000E+00 0. -1.
         11    1    3    3    0    0 -0.40609973179E+01 -0.79097544349E+01  0.27721301764E+02  0.29112308156E+02  0.51100000000E-03 0. -1.
        -11    1    3    3    0    0 -0.40083063704E+00 -0.50379651882E+01  0.13918439396E+02  0.14807589741E+02  0.51100000000E-03 0.  1.
         12    1    3    3    0    0 -0.22393358707E+01 -0.26560160509E+01 -0.16992703026E+01  0.38673719715E+01  0.00000000000E+00 0. -1.
</event>
<event>
 7    1  0.2682317E-010  0.4778728E+02  0.7816164E-02  0.1312668E+00
        -11   -1    0    0    0    0  0.00000000000E+00  0.00000000000E+00  0.45593999997E+02  0.45594000000E+02  0.51100000000E-03 0.  1.
         11   -1    0    0    0    0 -0.00000000000E+00 -0.00000000000E+00 -0.45593999997E+02  0.45594000000E+02  0.51100000000E-03 0. -1.
    9900012    2    1    2    0    0  0.14775147662E+02  0.16547556684E+02  0.37302759653E+02  0.47787279979E+02  0.20000040734E+02 0.  0.
         12    1    1    2    0    0 -0.14775147662E+02 -0.16547556684E+02 -0.37302759653E+02  0.43400720021E+02  0.00000000000E+00 0. -1.
         11    1    3    3    0    0  0.96039810632E+01  0.31715468320E+01  0.94210243689E+01  0.13822114961E+02  0.51100000000E-03 0. -1.
        -11    1    3    3    0    0  0.74643004313E+01  0.59979539720E+01  0.22768755493E+02  0.24700353434E+02  0.51100000000E-03 0.  1.
         12    1    3    3    0    0 -0.22931338329E+01  0.73780558801E+01  0.51129797913E+01  0.92648115843E+01  0.00000000000E+00 0. -1.
</event>
<event>
 7    1  0.2682317E-010  0.4778727E+02  0.7816164E-02  0.1312668E+00
        -11   -1    0    0    0    0  0.00000000000E+00  0.00000000000E+00  0.45593999997E+02  0.45594000000E+02  0.51100000000E-03 0. -1.
         11   -1    0    0    0    0 -0.00000000000E+00 -0.00000000000E+00 -0.45593999997E+02  0.45594000000E+02  0.51100000000E-03 0.  1.
    9900012    2    1    2    0    0 -0.71241725748E+01  0.12127876444E+01 -0.42794845923E+02  0.47787268136E+02  0.19999986741E+02 0.  0.
         12    1    1    2    0    0  0.71241725748E+01 -0.12127876444E+01  0.42794845923E+02  0.43400731864E+02  0.00000000000E+00 0. -1.
         11    1    3    3    0    0 -0.16128055540E+00  0.34856304775E-01  0.19923503072E+00  0.25869139552E+00  0.51100000000E-03 0. -1.
        -11    1    3    3    0    0 -0.98379185552E+01 -0.10821184002E+01 -0.42730907498E+02  0.43862125776E+02  0.51100000000E-03 0.  1.
        -12    1    3    3    0    0  0.28750265358E+01  0.22600497398E+01 -0.26317345539E+00  0.36664509646E+01  0.00000000000E+00 0.  1.
</event>
<event>
 7    1  0.2682317E-010  0.4778728E+02  0.7816164E-02  0.1312668E+00
        -11   -1    0    0    0    0  0.00000000000E+00  0.00000000000E+00  0.45593999997E+02  0.45594000000E+02  0.51100000000E-03 0.  1.
         11   -1    0    0    0    0 -0.00000000000E+00 -0.00000000000E+00 -0.45593999997E+02  0.45594000000E+02  0.51100000000E-03 0. -1.
    9900012    2    1    2    0    0 -0.30264194093E+02  0.17963473510E+02  0.25397131082E+02  0.47787284662E+02  0.20000062090E+02 0.  0.
         12    1    1    2    0    0  0.30264194093E+02 -0.17963473510E+02 -0.25397131082E+02  0.43400715338E+02  0.00000000000E+00 0. -1.
         11    1    3    3    0    0  0.20293193734E+01 -0.14337504089E+01  0.23869507372E+01  0.34454769535E+01  0.51100000000E-03 0. -1.
        -11    1    3    3    0    0 -0.16268530658E+02  0.73697524231E+01  0.10396913287E+02  0.20665772347E+02  0.51100000000E-03 0.  1.
         12    1    3    3    0    0 -0.16024982808E+02  0.12027471496E+02  0.12613267058E+02  0.23676035362E+02  0.00000000000E+00 0. -1.
</event>
<event>
 7    1  0.2682317E-010  0.4778729E+02  0.7816164E-02  0.1312668E+00
        -11   -1    0    0    0    0  0.00000000000E+00  0.00000000000E+00  0.45593999997E+02  0.45594000000E+02  0.51100000000E-03 0.  1.
         11   -1    0    0    0    0 -0.00000000000E+00 -0.00000000000E+00 -0.45593999997E+02  0.45594000000E+02  0.51100000000E-03 0. -1.
    9900012    2    1    2    0    0  0.19186948963E+02 -0.22681915680E+02  0.31638791230E+02  0.47787292403E+02  0.20000097381E+02 0.  0.
         12    1    1    2    0    0 -0.19186948963E+02  0.22681915680E+02 -0.31638791230E+02  0.43400707597E+02  0.00000000000E+00 0. -1.
         11    1    3    3    0    0  0.95221258917E+00  0.11701796323E+01 -0.64204201548E+00  0.16395875693E+01  0.51100000000E-03 0. -1.
        -11    1    3    3    0    0  0.14161296561E+02 -0.75421904598E+01  0.17755042493E+02  0.23930492920E+02  0.51100000000E-03 0.  1.
        -12    1    3    3    0    0  0.40734398128E+01 -0.16309904853E+02  0.14525790753E+02  0.22217211914E+02  0.00000000000E+00 0.  1.
</event>
<event>
 7    1  0.2682317E-010  0.4778727E+02  0.7816164E-02  0.1312668E+00
        -11   -1    0    0    0    0  0.00000000000E+00  0.00000000000E+00  0.45593999997E+02  0.45594000000E+02  0.51100000000E-03 0. -1.
         11   -1    0    0    0    0 -0.00000000000E+00 -0.00000000000E+00 -0.45593999997E+02  0.45594000000E+02  0.51100000000E-03 0.  1.
    9900012    2    1    2    0    0  0.23873244978E+02  0.36214671920E+02 -0.14795287750E+01  0.47787270819E+02  0.19999998971E+02 0.  0.
         12    1    1    2    0    0 -0.23873244978E+02 -0.36214671920E+02  0.14795287750E+01  0.43400729181E+02  0.00000000000E+00 0. -1.
         11    1    3    3    0    0  0.10230458141E+02  0.21767296392E+02 -0.99227715170E+01  0.26018048751E+02  0.51100000000E-03 0. -1.
        -11    1    3    3    0    0  0.24906469676E+01  0.12671637877E+01  0.13538557495E+01  0.31051492772E+01  0.51100000000E-03 0.  1.
         12    1    3    3    0    0  0.11152139870E+02  0.13180211740E+02  0.70893869925E+01  0.18664072790E+02  0.00000000000E+00 0. -1.
</event>
<event>
 7    1  0.2682317E-010  0.4778727E+02  0.7816164E-02  0.1312668E+00
        -11   -1    0    0    0    0  0.00000000000E+00  0.00000000000E+00  0.45593999997E+02  0.45594000000E+02  0.51100000000E-03 0.  1.
         11   -1    0    0    0    0 -0.00000000000E+00 -0.00000000000E+00 -0.45593999997E+02  0.45594000000E+02  0.51100000000E-03 0. -1.
    9900012    2    1    2    0    0  0.14506161792E+01 -0.36616746341E+02  0.23253672715E+02  0.47787266197E+02  0.19999977900E+02 0.  0.
         12    1    1    2    0    0 -0.14506161792E+01  0.36616746341E+02 -0.23253672715E+02  0.43400733803E+02  0.00000000000E+00 0. -1.
         11    1    3    3    0    0  0.42232507087E+01 -0.59823233637E+01  0.96272210295E+01  0.12095760596E+02  0.51100000000E-03 0. -1.
        -11    1    3    3    0    0 -0.10333907207E+01 -0.86261299478E+01  0.10120392126E+02  0.13337929048E+02  0.51100000000E-03 0.  1.
        -12    1    3    3    0    0 -0.17392438088E+01 -0.22008293029E+02  0.35060595596E+01  0.22353576553E+02  0.00000000000E+00 0.  1.
</event>
<event>
 7    1  0.2682317E-010  0.4778727E+02  0.7816164E-02  0.1312668E+00
        -11   -1    0    0    0    0  0.00000000000E+00  0.00000000000E+00  0.45593999997E+02  0.45594000000E+02  0.51100000000E-03 0. -1.
         11   -1    0    0    0    0 -0.00000000000E+00 -0.00000000000E+00 -0.45593999997E+02  0.45594000000E+02  0.51100000000E-03 0.  1.
    9900012    2    1    2    0    0  0.15130525288E+02 -0.38929978230E+02 -0.11796073982E+02  0.47787270030E+02  0.19999995376E+02 0.  0.
         12    1    1    2    0    0 -0.15130525288E+02  0.38929978230E+02  0.11796073982E+02  0.43400729970E+02  0.00000000000E+00 0. -1.
         11    1    3    3    0    0  0.77214147124E+01 -0.98110526672E+01 -0.48979401360E+01  0.13411443525E+02  0.51100000000E-03 0. -1.
        -11    1    3    3    0    0  0.31613272037E+00 -0.66401042415E+00 -0.49296492199E+01  0.49842041925E+01  0.51100000000E-03 0.  1.
        -12    1    3    3    0    0  0.70929778549E+01 -0.28454915139E+02 -0.19684846266E+01  0.29391622312E+02  0.00000000000E+00 0.  1.
</event>
<event>
 7    1  0.2682317E-010  0.4778727E+02  0.7816164E-02  0.1312668E+00
        -11   -1    0    0    0    0  0.00000000000E+00  0.00000000000E+00  0.45593999997E+02  0.45594000000E+02  0.51100000000E-03 0.  1.
         11   -1    0    0    0    0 -0.00000000000E+00 -0.00000000000E+00 -0.45593999997E+02  0.45594000000E+02  0.51100000000E-03 0. -1.
    9900012    2    1    2    0    0 -0.28510586167E+02  0.30829653193E+02 -0.10968226122E+02  0.47787273925E+02  0.20000013135E+02 0.  0.
         12    1    1    2    0    0  0.28510586167E+02 -0.30829653193E+02  0.10968226122E+02  0.43400726075E+02  0.00000000000E+00 0. -1.
         11    1    3    3    0    0 -0.12923471426E+02  0.19213543809E+02 -0.51666716432E+01  0.23724899905E+02  0.51100000000E-03 0. -1.
        -11    1    3    3    0    0 -0.10264260445E+02  0.13820198994E+02 -0.24255719407E+01  0.17384945851E+02  0.51100000000E-03 0.  1.
         12    1    3    3    0    0 -0.53228542955E+01 -0.22040896101E+01 -0.33759825384E+01  0.66774281696E+01  0.00000000000E+00 0. -1.
</event>
<event>
 7    1  0.2682317E-010  0.4778727E+02  0.7816164E-02  0.1312668E+00
        -11   -1    0    0    0    0  0.00000000000E+00  0.00000000000E+00  0.45593999997E+02  0.45594000000E+02  0.51100000000E-03 0.  1.
         11   -1    0    0    0    0 -0.00000000000E+00 -0.00000000000E+00 -0.45593999997E+02  0.45594000000E+02  0.51100000000E-03 0. -1.
    9900012    2    1    2    0    0  0.23303230184E+02 -0.17405389292E+02  0.32212343255E+02  0.47787272225E+02  0.20000005382E+02 0.  0.
         12    1    1    2    0    0 -0.23303230184E+02  0.17405389292E+02 -0.32212343255E+02  0.43400727775E+02  0.00000000000E+00 0. -1.
         11    1    3    3    0    0  0.62064398894E+01 -0.14994679594E+02  0.20681297596E+02  0.26288331684E+02  0.51100000000E-03 0.  1.
        -11    1    3    3    0    0  0.17280790770E+01  0.12985085452E+01  0.24471426847E+01  0.32651017318E+01  0.51100000000E-03 0. -1.
        -12    1    3    3    0    0  0.15368711217E+02 -0.37092182436E+01  0.90839029743E+01  0.18233838809E+02  0.00000000000E+00 0.  1.
</event>
<event>
 7    1  0.2682317E-010  0.4778727E+02  0.7816164E-02  0.1312668E+00
        -11   -1    0    0    0    0  0.00000000000E+00  0.00000000000E+00  0.45593999997E+02  0.45594000000E+02  0.51100000000E-03 0.  1.
         11   -1    0    0    0    0 -0.00000000000E+00 -0.00000000000E+00 -0.45593999997E+02  0.45594000000E+02  0.51100000000E-03 0. -1.
    9900012    2    1    2    0    0  0.19146373328E+02 -0.33149928110E+02  0.20448028894E+02  0.47787271539E+02  0.20000002254E+02 0.  0.
         12    1    1    2    0    0 -0.19146373328E+02  0.33149928110E+02 -0.20448028894E+02  0.43400728461E+02  0.00000000000E+00 0. -1.
         11    1    3    3    0    0  0.19033380389E+01 -0.44304010943E+00  0.52547894706E+00  0.20236374709E+01  0.51100000000E-03 0. -1.
        -11    1    3    3    0    0  0.10295470145E+02 -0.32595533183E+02  0.17523055478E+02  0.38412536529E+02  0.51100000000E-03 0.  1.
        -12    1    3    3    0    0  0.69475651442E+01 -0.11135481726E+00  0.23994944686E+01  0.73510975393E+01  0.00000000000E+00 0.  1.
</event>
<event>
 7    1  0.2682317E-010  0.4778727E+02  0.7816164E-02  0.1312668E+00
        -11   -1    0    0    0    0  0.00000000000E+00  0.00000000000E+00  0.45593999997E+02  0.45594000000E+02  0.51100000000E-03 0. -1.
         11   -1    0    0    0    0 -0.00000000000E+00 -0.00000000000E+00 -0.45593999997E+02  0.45594000000E+02  0.51100000000E-03 0.  1.
    9900012    2    1    2    0    0  0.15246836888E+02 -0.39427789307E+02 -0.98288634073E+01  0.47787272349E+02  0.20000005947E+02 0.  0.
         12    1    1    2    0    0 -0.15246836888E+02  0.39427789307E+02  0.98288634073E+01  0.43400727651E+02  0.00000000000E+00 0. -1.
         11    1    3    3    0    0  0.14645056426E+02 -0.13342410122E+02 -0.54173620473E+01  0.20538875271E+02  0.51100000000E-03 0.  1.
        -11    1    3    3    0    0 -0.97262404114E-01  0.31840815378E+00 -0.41923291364E+00  0.53535056239E+00  0.51100000000E-03 0. -1.
        -12    1    3    3    0    0  0.69904286640E+00 -0.26403787339E+02 -0.39922684463E+01  0.26713046515E+02  0.00000000000E+00 0.  1.
</event>
<event>
 7    1  0.2682317E-010  0.4778727E+02  0.7816164E-02  0.1312668E+00
        -11   -1    0    0    0    0  0.00000000000E+00  0.00000000000E+00  0.45593999997E+02  0.45594000000E+02  0.51100000000E-03 0. -1.
         11   -1    0    0    0    0 -0.00000000000E+00 -0.00000000000E+00 -0.45593999997E+02  0.45594000000E+02  0.51100000000E-03 0.  1.
    9900012    2    1    2    0    0 -0.27837118980E+02  0.11392575545E+02 -0.31287812944E+02  0.47787271786E+02  0.20000003383E+02 0.  0.
         12    1    1    2    0    0  0.27837118980E+02 -0.11392575545E+02  0.31287812944E+02  0.43400728214E+02  0.00000000000E+00 0. -1.
         11    1    3    3    0    0  0.58466740828E+00 -0.30343980239E+01 -0.36398538830E+01  0.47747192479E+01  0.51100000000E-03 0. -1.
        -11    1    3    3    0    0 -0.94792845523E+01  0.12117877922E+01 -0.55705775428E+01  0.11061491748E+02  0.51100000000E-03 0.  1.
        -12    1    3    3    0    0 -0.18942501836E+02  0.13215185777E+02 -0.22077381518E+02  0.31951060790E+02  0.00000000000E+00 0.  1.
</event>
<event>
 7    1  0.2682317E-010  0.4778728E+02  0.7816164E-02  0.1312668E+00
        -11   -1    0    0    0    0  0.00000000000E+00  0.00000000000E+00  0.45593999997E+02  0.45594000000E+02  0.51100000000E-03 0. -1.
         11   -1    0    0    0    0 -0.00000000000E+00 -0.00000000000E+00 -0.45593999997E+02  0.45594000000E+02  0.51100000000E-03 0.  1.
    9900012    2    1    2    0    0 -0.29724650090E+02  0.16968616968E+02 -0.26685841506E+02  0.47787275102E+02  0.20000018501E+02 0.  0.
         12    1    1    2    0    0  0.29724650090E+02 -0.16968616968E+02  0.26685841506E+02  0.43400724898E+02  0.00000000000E+00 0. -1.
         11    1    3    3    0    0 -0.10123034556E+02  0.80813422276E+01 -0.13143880874E+01  0.13019659640E+02  0.51100000000E-03 0. -1.
        -11    1    3    3    0    0 -0.89071618662E+01  0.39439353313E+01 -0.43471888333E+01  0.10667249384E+02  0.51100000000E-03 0.  1.
        -12    1    3    3    0    0 -0.10694453667E+02  0.49433394086E+01 -0.21024264586E+02  0.24100366078E+02  0.00000000000E+00 0.  1.
</event>
<event>
 7    1  0.2682317E-010  0.4778727E+02  0.7816164E-02  0.1312668E+00
        -11   -1    0    0    0    0  0.00000000000E+00  0.00000000000E+00  0.45593999997E+02  0.45594000000E+02  0.51100000000E-03 0.  1.
         11   -1    0    0    0    0 -0.00000000000E+00 -0.00000000000E+00 -0.45593999997E+02  0.45594000000E+02  0.51100000000E-03 0. -1.
    9900012    2    1    2    0    0  0.35443198536E+02  0.15549877779E+02  0.19636804876E+02  0.47787272735E+02  0.20000007707E+02 0.  0.
         12    1    1    2    0    0 -0.35443198536E+02 -0.15549877779E+02 -0.19636804876E+02  0.43400727265E+02  0.00000000000E+00 0. -1.
         11    1    3    3    0    0  0.25923569855E+02  0.81722040778E+01  0.13135129161E+02  0.30188541069E+02  0.51100000000E-03 0. -1.
        -11    1    3    3    0    0  0.57072011180E+01 -0.18070529403E+01  0.44130082149E+01  0.74372190163E+01  0.51100000000E-03 0.  1.
         12    1    3    3    0    0  0.38124275629E+01  0.91847266418E+01  0.20886675003E+01  0.10161512650E+02  0.00000000000E+00 0. -1.
</event>
<event>
 7    1  0.2682317E-010  0.4778727E+02  0.7816164E-02  0.1312668E+00
        -11   -1    0    0    0    0  0.00000000000E+00  0.00000000000E+00  0.45593999997E+02  0.45594000000E+02  0.51100000000E-03 0. -1.
         11   -1    0    0    0    0 -0.00000000000E+00 -0.00000000000E+00 -0.45593999997E+02  0.45594000000E+02  0.51100000000E-03 0.  1.
    9900012    2    1    2    0    0  0.41753953629E+02 -0.75863599500E+01  0.90927168187E+01  0.47787274198E+02  0.20000014380E+02 0.  0.
         12    1    1    2    0    0 -0.41753953629E+02  0.75863599500E+01 -0.90927168187E+01  0.43400725802E+02  0.00000000000E+00 0. -1.
         11    1    3    3    0    0  0.12770122413E+02  0.15356094241E+01  0.61730463000E+01  0.14266766404E+02  0.51100000000E-03 0. -1.
        -11    1    3    3    0    0  0.28865935795E+02 -0.96468174681E+01 -0.11811628541E+00  0.30435461033E+02  0.51100000000E-03 0.  1.
        -12    1    3    3    0    0  0.11789542128E+00  0.52484809396E+00  0.30377868041E+01  0.30850467613E+01  0.00000000000E+00 0.  1.
</event>
<event>
 7    1  0.2682317E-010  0.4778726E+02  0.7816164E-02  0.1312668E+00
        -11   -1    0    0    0    0  0.00000000000E+00  0.00000000000E+00  0.45593999997E+02  0.45594000000E+02  0.51100000000E-03 0. -1.
         11   -1    0    0    0    0 -0.00000000000E+00 -0.00000000000E+00 -0.45593999997E+02  0.45594000000E+02  0.51100000000E-03 0.  1.
    9900012    2    1    2    0    0 -0.34795468959E+01 -0.20995140392E+02 -0.37824878661E+02  0.47787255624E+02  0.19999929692E+02 0.  0.
         12    1    1    2    0    0  0.34795468959E+01  0.20995140392E+02  0.37824878661E+02  0.43400744376E+02  0.00000000000E+00 0. -1.
         11    1    3    3    0    0 -0.18564541555E+01 -0.48952752093E+01 -0.11917305088E+01  0.53693913317E+01  0.51100000000E-03 0. -1.
        -11    1    3    3    0    0 -0.68932251319E+01 -0.66539799078E+01 -0.10948934628E+02  0.14548923365E+02  0.51100000000E-03 0.  1.
        -12    1    3    3    0    0  0.52701323916E+01 -0.94458852746E+01 -0.25684213524E+02  0.27868940927E+02  0.00000000000E+00 0.  1.
</event>
<event>
 7    1  0.2682317E-010  0.4778727E+02  0.7816164E-02  0.1312668E+00
        -11   -1    0    0    0    0  0.00000000000E+00  0.00000000000E+00  0.45593999997E+02  0.45594000000E+02  0.51100000000E-03 0. -1.
         11   -1    0    0    0    0 -0.00000000000E+00 -0.00000000000E+00 -0.45593999997E+02  0.45594000000E+02  0.51100000000E-03 0.  1.
    9900012    2    1    2    0    0  0.41120657209E+02  0.79055324247E+01 -0.11411285237E+02  0.47787270479E+02  0.19999997422E+02 0.  0.
         12    1    1    2    0    0 -0.41120657209E+02 -0.79055324247E+01  0.11411285237E+02  0.43400729521E+02  0.00000000000E+00 0. -1.
         11    1    3    3    0    0  0.12129245631E+02  0.44658198722E+01 -0.59724313740E+01  0.14238401718E+02  0.51100000000E-03 0. -1.
        -11    1    3    3    0    0  0.29256122977E+02  0.56717358385E+01 -0.72410256149E+01  0.30667927405E+02  0.51100000000E-03 0.  1.
         12    1    3    3    0    0 -0.26471139960E+00 -0.22320232860E+01  0.18021717518E+01  0.28809413561E+01  0.00000000000E+00 0. -1.
</event>
<event>
 7    1  0.2682317E-010  0.4778727E+02  0.7816164E-02  0.1312668E+00
        -11   -1    0    0    0    0  0.00000000000E+00  0.00000000000E+00  0.45593999997E+02  0.45594000000E+02  0.51100000000E-03 0. -1.
         11   -1    0    0    0    0 -0.00000000000E+00 -0.00000000000E+00 -0.45593999997E+02  0.45594000000E+02  0.51100000000E-03 0.  1.
    9900012    2    1    2    0    0 -0.22395654604E+00  0.40209863960E+02  0.16332171417E+02  0.47787272593E+02  0.20000007062E+02 0.  0.
         12    1    1    2    0    0  0.22395654604E+00 -0.40209863960E+02 -0.16332171417E+02  0.43400727407E+02  0.00000000000E+00 0. -1.
         11    1    3    3    0    0 -0.13136281123E+01  0.24308943906E+02  0.11167174125E+02  0.26783505201E+02  0.51100000000E-03 0. -1.
        -11    1    3    3    0    0  0.55509803536E+01  0.14449690867E+02  0.27302214001E+01  0.15718176045E+02  0.51100000000E-03 0.  1.
        -12    1    3    3    0    0 -0.44613087874E+01  0.14512291875E+01  0.24347758913E+01  0.52855913474E+01  0.00000000000E+00 0.  1.
</event>
<event>
 7    1  0.2682317E-010  0.4778727E+02  0.7816164E-02  0.1312668E+00
        -11   -1    0    0    0    0  0.00000000000E+00  0.00000000000E+00  0.45593999997E+02  0.45594000000E+02  0.51100000000E-03 0.  1.
         11   -1    0    0    0    0 -0.00000000000E+00 -0.00000000000E+00 -0.45593999997E+02  0.45594000000E+02  0.51100000000E-03 0. -1.
    9900012    2    1    2    0    0  0.17929508443E+02 -0.38786626043E+02  0.75995942305E+01  0.47787268839E+02  0.19999989945E+02 0.  0.
         12    1    1    2    0    0 -0.17929508443E+02  0.38786626043E+02 -0.75995942305E+01  0.43400731161E+02  0.00000000000E+00 0. -1.
         11    1    3    3    0    0 -0.24561590304E+01 -0.24814466065E+01  0.23443561053E+01  0.42055083228E+01  0.51100000000E-03 0. -1.
        -11    1    3    3    0    0  0.72464387572E+01 -0.40921001251E+01  0.24696213071E+01  0.86807365908E+01  0.51100000000E-03 0.  1.
         12    1    3    3    0    0  0.13139228716E+02 -0.32213079312E+02  0.27856168181E+01  0.34901023926E+02  0.00000000000E+00 0. -1.
</event>
<event>
 7    1  0.2682317E-010  0.4778727E+02  0.7816164E-02  0.1312668E+00
        -11   -1    0    0    0    0  0.00000000000E+00  0.00000000000E+00  0.45593999997E+02  0.45594000000E+02  0.51100000000E-03 0.  1.
         11   -1    0    0    0    0 -0.00000000000E+00 -0.00000000000E+00 -0.45593999997E+02  0.45594000000E+02  0.51100000000E-03 0. -1.
    9900012    2    1    2    0    0 -0.22332609834E+02  0.33706084244E+02  0.15772698695E+02  0.47787267274E+02  0.19999982808E+02 0.  0.
         12    1    1    2    0    0  0.22332609834E+02 -0.33706084244E+02 -0.15772698695E+02  0.43400732726E+02  0.00000000000E+00 0. -1.
         11    1    3    3    0    0 -0.18021704693E+01  0.63070389870E+01 -0.24426321030E+01  0.69995007704E+01  0.51100000000E-03 0. -1.
        -11    1    3    3    0    0 -0.15937988018E+02  0.19440770830E+02  0.66249504564E+01  0.25997172949E+02  0.51100000000E-03 0.  1.
         12    1    3    3    0    0 -0.45924513467E+01  0.79582744267E+01  0.11590380341E+02  0.14790593554E+02  0.00000000000E+00 0. -1.
</event>
<event>
 7    1  0.2682317E-010  0.4778727E+02  0.7816164E-02  0.1312668E+00
        -11   -1    0    0    0    0  0.00000000000E+00  0.00000000000E+00  0.45593999997E+02  0.45594000000E+02  0.51100000000E-03 0.  1.
         11   -1    0    0    0    0 -0.00000000000E+00 -0.00000000000E+00 -0.45593999997E+02  0.45594000000E+02  0.51100000000E-03 0. -1.
    9900012    2    1    2    0    0  0.30327162978E+01  0.10021893087E+01  0.43283040136E+02  0.47787270571E+02  0.19999997840E+02 0.  0.
         12    1    1    2    0    0 -0.30327162978E+01 -0.10021893087E+01 -0.43283040136E+02  0.43400729429E+02  0.00000000000E+00 0. -1.
         11    1    3    3    0    0 -0.15682634248E+01 -0.18827755311E+01 -0.63404875676E+00  0.25310693307E+01  0.51100000000E-03 0. -1.
        -11    1    3    3    0    0  0.18272148064E+01  0.31416043931E+01  0.47045573615E+01  0.59448509098E+01  0.51100000000E-03 0.  1.
        -12    1    3    3    0    0  0.27737649162E+01 -0.25663955337E+00  0.39212531532E+02  0.39311350330E+02  0.00000000000E+00 0.  1.
</event>
<event>
 7    1  0.2682317E-010  0.4778727E+02  0.7816164E-02  0.1312668E+00
        -11   -1    0    0    0    0  0.00000000000E+00  0.00000000000E+00  0.45593999997E+02  0.45594000000E+02  0.51100000000E-03 0.  1.
         11   -1    0    0    0    0 -0.00000000000E+00 -0.00000000000E+00 -0.45593999997E+02  0.45594000000E+02  0.51100000000E-03 0. -1.
    9900012    2    1    2    0    0  0.21219056448E+02 -0.36535774148E+02  0.99253316822E+01  0.47787270074E+02  0.19999995576E+02 0.  0.
         12    1    1    2    0    0 -0.21219056448E+02  0.36535774148E+02 -0.99253316822E+01  0.43400729926E+02  0.00000000000E+00 0. -1.
         11    1    3    3    0    0 -0.63942262005E+00 -0.37080795109E+01 -0.64631574956E+00  0.38179103258E+01  0.51100000000E-03 0. -1.
        -11    1    3    3    0    0 -0.71125062254E+00 -0.10017584105E+02  0.55971826174E+01  0.11497231069E+02  0.51100000000E-03 0.  1.
         12    1    3    3    0    0  0.22569729690E+02 -0.22810110532E+02  0.49744648143E+01  0.32472128679E+02  0.00000000000E+00 0. -1.
</event>
<event>
 7    1  0.2682317E-010  0.4778726E+02  0.7816164E-02  0.1312668E+00
        -11   -1    0    0    0    0  0.00000000000E+00  0.00000000000E+00  0.45593999997E+02  0.45594000000E+02  0.51100000000E-03 0. -1.
         11   -1    0    0    0    0 -0.00000000000E+00 -0.00000000000E+00 -0.45593999997E+02  0.45594000000E+02  0.51100000000E-03 0.  1.
    9900012    2    1    2    0    0 -0.42099163850E+02 -0.10548998425E+02  0.53392007154E-01  0.47787264806E+02  0.19999971556E+02 0.  0.
         12    1    1    2    0    0  0.42099163850E+02  0.10548998425E+02 -0.53392007154E-01  0.43400735194E+02  0.00000000000E+00 0. -1.
         11    1    3    3    0    0 -0.50854700149E+01 -0.15067691989E+01  0.35689009073E+00  0.53159881010E+01  0.51100000000E-03 0. -1.
        -11    1    3    3    0    0 -0.39184477502E+02 -0.80452236900E+01 -0.88915121701E+00  0.40011741920E+02  0.51100000000E-03 0.  1.
         12    1    3    3    0    0  0.21707836664E+01 -0.99700553647E+00  0.58565313343E+00  0.24595347850E+01  0.00000000000E+00 0. -1.
</event>
<event>
 7    1  0.2682317E-010  0.4778723E+02  0.7816164E-02  0.1312668E+00
        -11   -1    0    0    0    0  0.00000000000E+00  0.00000000000E+00  0.45593999997E+02  0.45594000000E+02  0.51100000000E-03 0.  1.
         11   -1    0    0    0    0 -0.00000000000E+00 -0.00000000000E+00 -0.45593999997E+02  0.45594000000E+02  0.51100000000E-03 0. -1.
    9900012    2    1    2    0    0 -0.84847447692E+01 -0.28225650093E+02  0.31858255656E+02  0.47787231914E+02  0.19999821589E+02 0.  0.
         12    1    1    2    0    0  0.84847447692E+01  0.28225650093E+02 -0.31858255656E+02  0.43400768086E+02  0.00000000000E+00 0. -1.
         11    1    3    3    0    0  0.17084626858E+01 -0.72613364634E+01  0.19063780804E+01  0.76993590402E+01  0.51100000000E-03 0. -1.
        -11    1    3    3    0    0 -0.11856740315E+01 -0.51828338649E+01  0.31773817818E+00  0.53262132507E+01  0.51100000000E-03 0.  1.
        -12    1    3    3    0    0 -0.90075334235E+01 -0.15781479765E+02  0.29634139398E+02  0.34761659623E+02  0.00000000000E+00 0.  1.
</event>
<event>
 7    1  0.2682317E-010  0.4778727E+02  0.7816164E-02  0.1312668E+00
        -11   -1    0    0    0    0  0.00000000000E+00  0.00000000000E+00  0.45593999997E+02  0.45594000000E+02  0.51100000000E-03 0. -1.
         11   -1    0    0    0    0 -0.00000000000E+00 -0.00000000000E+00 -0.45593999997E+02  0.45594000000E+02  0.51100000000E-03 0.  1.
    9900012    2    1    2    0    0 -0.45498949401E+01 -0.38296812485E+02 -0.19906678453E+02  0.47787271464E+02  0.20000001911E+02 0.  0.
         12    1    1    2    0    0  0.45498949401E+01  0.38296812485E+02  0.19906678453E+02  0.43400728536E+02  0.00000000000E+00 0. -1.
         11    1    3    3    0    0  0.71720097671E+00 -0.12471930329E+02 -0.11767362814E+02  0.17162000211E+02  0.51100000000E-03 0. -1.
        -11    1    3    3    0    0  0.24711894860E+01 -0.18774170342E+02 -0.39160261474E+01  0.19336791630E+02  0.51100000000E-03 0.  1.
         12    1    3    3    0    0 -0.77382854028E+01 -0.70507118133E+01 -0.42232894915E+01  0.11288479622E+02  0.00000000000E+00 0. -1.
</event>
<event>
 7    1  0.2682317E-010  0.4778728E+02  0.7816164E-02  0.1312668E+00
        -11   -1    0    0    0    0  0.00000000000E+00  0.00000000000E+00  0.45593999997E+02  0.45594000000E+02  0.51100000000E-03 0.  1.
         11   -1    0    0    0    0 -0.00000000000E+00 -0.00000000000E+00 -0.45593999997E+02  0.45594000000E+02  0.51100000000E-03 0. -1.
    9900012    2    1    2    0    0  0.40362467801E+02  0.40080915939E+01  0.15441138834E+02  0.47787281415E+02  0.20000047284E+02 0.  0.
         12    1    1    2    0    0 -0.40362467801E+02 -0.40080915939E+01 -0.15441138834E+02  0.43400718585E+02  0.00000000000E+00 0. -1.
         11    1    3    3    0    0  0.87268416273E+00  0.33839783655E+01  0.16112281757E+01  0.38482390417E+01  0.51100000000E-03 0. -1.
        -11    1    3    3    0    0  0.82106348920E+01 -0.47104642789E+00  0.91331618730E+01  0.12290282996E+02  0.51100000000E-03 0.  1.
        -12    1    3    3    0    0  0.31279148746E+02  0.10951596563E+01  0.46967487847E+01  0.31648759377E+02  0.00000000000E+00 0.  1.
</event>
<event>
 7    1  0.2682317E-010  0.4778727E+02  0.7816164E-02  0.1312668E+00
        -11   -1    0    0    0    0  0.00000000000E+00  0.00000000000E+00  0.45593999997E+02  0.45594000000E+02  0.51100000000E-03 0.  1.
         11   -1    0    0    0    0 -0.00000000000E+00 -0.00000000000E+00 -0.45593999997E+02  0.45594000000E+02  0.51100000000E-03 0. -1.
    9900012    2    1    2    0    0 -0.16761345350E+02  0.32916516692E+02  0.22785601277E+02  0.47787269653E+02  0.19999993654E+02 0.  0.
         12    1    1    2    0    0  0.16761345350E+02 -0.32916516692E+02 -0.22785601277E+02  0.43400730347E+02  0.00000000000E+00 0. -1.
         11    1    3    3    0    0 -0.41556558384E+00 -0.18663680628E+01  0.13292074440E+01  0.23286943103E+01  0.51100000000E-03 0. -1.
        -11    1    3    3    0    0  0.15714925906E+01  0.25803824934E+01  0.49148611467E+00  0.30609674347E+01  0.51100000000E-03 0.  1.
        -12    1    3    3    0    0 -0.17917272357E+02  0.32202502262E+02  0.20964907719E+02  0.42397607908E+02  0.00000000000E+00 0.  1.
</event>
<event>
 7    1  0.2682317E-010  0.4778727E+02  0.7816164E-02  0.1312668E+00
        -11   -1    0    0    0    0  0.00000000000E+00  0.00000000000E+00  0.45593999997E+02  0.45594000000E+02  0.51100000000E-03 0.  1.
         11   -1    0    0    0    0 -0.00000000000E+00 -0.00000000000E+00 -0.45593999997E+02  0.45594000000E+02  0.51100000000E-03 0. -1.
    9900012    2    1    2    0    0 -0.19467018734E+02  0.18104140313E+02  0.34305959442E+02  0.47787267655E+02  0.19999984545E+02 0.  0.
         12    1    1    2    0    0  0.19467018734E+02 -0.18104140313E+02 -0.34305959442E+02  0.43400732345E+02  0.00000000000E+00 0. -1.
         11    1    3    3    0    0 -0.52881700019E+01  0.26394054047E+01  0.15108745602E+02  0.16223606158E+02  0.51100000000E-03 0. -1.
        -11    1    3    3    0    0 -0.49661617998E+01  0.23118853989E+01  0.13424647166E+02  0.14499266496E+02  0.51100000000E-03 0.  1.
         12    1    3    3    0    0 -0.92126869321E+01  0.13152849510E+02  0.57725666741E+01  0.17064395001E+02  0.00000000000E+00 0. -1.
</event>
<event>
 7    1  0.2682317E-010  0.4778728E+02  0.7816164E-02  0.1312668E+00
        -11   -1    0    0    0    0  0.00000000000E+00  0.00000000000E+00  0.45593999997E+02  0.45594000000E+02  0.51100000000E-03 0.  1.
         11   -1    0    0    0    0 -0.00000000000E+00 -0.00000000000E+00 -0.45593999997E+02  0.45594000000E+02  0.51100000000E-03 0. -1.
    9900012    2    1    2    0    0  0.23892601804E+02  0.81064854695E+01  0.35313614475E+02  0.47787275410E+02  0.20000019904E+02 0.  0.
         12    1    1    2    0    0 -0.23892601804E+02 -0.81064854695E+01 -0.35313614475E+02  0.43400724590E+02  0.00000000000E+00 0. -1.
         11    1    3    3    0    0 -0.70223709089E+00  0.21414495604E+01  0.71748384151E+01  0.75204554181E+01  0.51100000000E-03 0. -1.
        -11    1    3    3    0    0  0.41408655055E+01  0.68790286071E+01  0.10665879162E+02  0.13350235214E+02  0.51100000000E-03 0.  1.
        -12    1    3    3    0    0  0.20453973390E+02 -0.91399269797E+00  0.17472896898E+02  0.26916584777E+02  0.00000000000E+00 0.  1.
</event>
<event>
 7    1  0.2682317E-010  0.4778727E+02  0.7816164E-02  0.1312668E+00
        -11   -1    0    0    0    0  0.00000000000E+00  0.00000000000E+00  0.45593999997E+02  0.45594000000E+02  0.51100000000E-03 0.  1.
         11   -1    0    0    0    0 -0.00000000000E+00 -0.00000000000E+00 -0.45593999997E+02  0.45594000000E+02  0.51100000000E-03 0. -1.
    9900012    2    1    2    0    0 -0.14991276571E+02 -0.40341283049E+02  0.56094254737E+01  0.47787272524E+02  0.20000006747E+02 0.  0.
         12    1    1    2    0    0  0.14991276571E+02  0.40341283049E+02 -0.56094254737E+01  0.43400727476E+02  0.00000000000E+00 0. -1.
         11    1    3    3    0    0 -0.72536650526E+01 -0.30776870333E+02  0.55693237655E+01  0.32106833723E+02  0.51100000000E-03 0.  1.
        -11    1    3    3    0    0 -0.40159563338E+01 -0.77440218954E+01  0.43107638639E+01  0.97303887765E+01  0.51100000000E-03 0. -1.
         12    1    3    3    0    0 -0.37216551849E+01 -0.18203908203E+01 -0.42706621556E+01  0.59500500251E+01  0.00000000000E+00 0. -1.
</event>
<event>
 7    1  0.2682317E-010  0.4778727E+02  0.7816164E-02  0.1312668E+00
        -11   -1    0    0    0    0  0.00000000000E+00  0.00000000000E+00  0.45593999997E+02  0.45594000000E+02  0.51100000000E-03 0.  1.
         11   -1    0    0    0    0 -0.00000000000E+00 -0.00000000000E+00 -0.45593999997E+02  0.45594000000E+02  0.51100000000E-03 0. -1.
    9900012    2    1    2    0    0  0.10921229155E+02 -0.19932001272E+02  0.36973846177E+02  0.47787271641E+02  0.20000002718E+02 0.  0.
         12    1    1    2    0    0 -0.10921229155E+02  0.19932001272E+02 -0.36973846177E+02  0.43400728359E+02  0.00000000000E+00 0. -1.
         11    1    3    3    0    0  0.51572900219E+01 -0.51753894812E+01  0.35059649775E+01  0.81039550429E+01  0.51100000000E-03 0. -1.
        -11    1    3    3    0    0 -0.66432745876E+00 -0.13242736741E+02  0.14745512503E+02  0.19830318872E+02  0.51100000000E-03 0.  1.
         12    1    3    3    0    0  0.64282665923E+01 -0.15138750501E+01  0.18722368697E+02  0.19852997726E+02  0.00000000000E+00 0. -1.
</event>
<event>
 7    1  0.2682317E-010  0.4778728E+02  0.7816164E-02  0.1312668E+00
        -11   -1    0    0    0    0  0.00000000000E+00  0.00000000000E+00  0.45593999997E+02  0.45594000000E+02  0.51100000000E-03 0. -1.
         11   -1    0    0    0    0 -0.00000000000E+00 -0.00000000000E+00 -0.45593999997E+02  0.45594000000E+02  0.51100000000E-03 0.  1.
    9900012    2    1    2    0    0  0.46404924781E+01  0.43131169290E+02 -0.13381944528E+01  0.47787277666E+02  0.20000030190E+02 0.  0.
         12    1    1    2    0    0 -0.46404924781E+01 -0.43131169290E+02  0.13381944528E+01  0.43400722334E+02  0.00000000000E+00 0. -1.
         11    1    3    3    0    0  0.27772216793E+01  0.26038016237E+02  0.53827777473E+01  0.26733229254E+02  0.51100000000E-03 0. -1.
        -11    1    3    3    0    0  0.18901457146E+01  0.17908175434E+02 -0.78640541754E+01  0.19649904492E+02  0.51100000000E-03 0.  1.
         12    1    3    3    0    0 -0.26874915739E-01 -0.81502238205E+00  0.11430819754E+01  0.14041439195E+01  0.00000000000E+00 0. -1.
</event>
<event>
 7    1  0.2682317E-010  0.4778727E+02  0.7816164E-02  0.1312668E+00
        -11   -1    0    0    0    0  0.00000000000E+00  0.00000000000E+00  0.45593999997E+02  0.45594000000E+02  0.51100000000E-03 0.  1.
         11   -1    0    0    0    0 -0.00000000000E+00 -0.00000000000E+00 -0.45593999997E+02  0.45594000000E+02  0.51100000000E-03 0. -1.
    9900012    2    1    2    0    0  0.27683148765E+02  0.17072385249E+02  0.28736738351E+02  0.47787271957E+02  0.20000004159E+02 0.  0.
         12    1    1    2    0    0 -0.27683148765E+02 -0.17072385249E+02 -0.28736738351E+02  0.43400728043E+02  0.00000000000E+00 0. -1.
         11    1    3    3    0    0  0.57963866171E+01  0.58211996554E+00  0.83066899712E+01  0.10145839542E+02  0.51100000000E-03 0. -1.
        -11    1    3    3    0    0  0.20397009624E+02  0.15595985619E+02  0.10798868924E+02  0.27854772290E+02  0.51100000000E-03 0.  1.
        -12    1    3    3    0    0  0.14897525246E+01  0.89427966457E+00  0.96311794551E+01  0.97866601249E+01  0.00000000000E+00 0.  1.
</event>
<event>
 7    1  0.2682317E-010  0.4778727E+02  0.7816164E-02  0.1312668E+00
        -11   -1    0    0    0    0  0.00000000000E+00  0.00000000000E+00  0.45593999997E+02  0.45594000000E+02  0.51100000000E-03 0. -1.
         11   -1    0    0    0    0 -0.00000000000E+00 -0.00000000000E+00 -0.45593999997E+02  0.45594000000E+02  0.51100000000E-03 0.  1.
    9900012    2    1    2    0    0  0.27538344854E+02  0.10773156260E+01 -0.33527634318E+02  0.47787270637E+02  0.19999998144E+02 0.  0.
         12    1    1    2    0    0 -0.27538344854E+02 -0.10773156260E+01  0.33527634318E+02  0.43400729363E+02  0.00000000000E+00 0. -1.
         11    1    3    3    0    0  0.76293676539E+00  0.38913081383E+01 -0.13530272670E+01  0.41898728599E+01  0.51100000000E-03 0. -1.
        -11    1    3    3    0    0  0.72241838036E+01 -0.33505508215E+01 -0.30766390538E+01  0.85370211763E+01  0.51100000000E-03 0.  1.
        -12    1    3    3    0    0  0.19551224285E+02  0.53655830912E+00 -0.29097967997E+02  0.35060376601E+02  0.00000000000E+00 0.  1.
</event>
<event>
 7    1  0.2682317E-010  0.4778727E+02  0.7816164E-02  0.1312668E+00
        -11   -1    0    0    0    0  0.00000000000E+00  0.00000000000E+00  0.45593999997E+02  0.45594000000E+02  0.51100000000E-03 0.  1.
         11   -1    0    0    0    0 -0.00000000000E+00 -0.00000000000E+00 -0.45593999997E+02  0.45594000000E+02  0.51100000000E-03 0. -1.
    9900012    2    1    2    0    0  0.39174407561E+02  0.18572446637E+02 -0.20132661489E+01  0.47787271637E+02  0.20000002702E+02 0.  0.
         12    1    1    2    0    0 -0.39174407561E+02 -0.18572446637E+02  0.20132661489E+01  0.43400728363E+02  0.00000000000E+00 0. -1.
         11    1    3    3    0    0  0.15646399455E+02  0.43861796149E+01 -0.38628358252E+01  0.16702391697E+02  0.51100000000E-03 0. -1.
        -11    1    3    3    0    0  0.23779270165E+02  0.10084577997E+02  0.44670075750E+01  0.26212717522E+02  0.51100000000E-03 0.  1.
         12    1    3    3    0    0 -0.25126205878E+00  0.41016890244E+01 -0.26174378987E+01  0.48721624181E+01  0.00000000000E+00 0. -1.
</event>
<event>
 7    1  0.2682317E-010  0.4778727E+02  0.7816164E-02  0.1312668E+00
        -11   -1    0    0    0    0  0.00000000000E+00  0.00000000000E+00  0.45593999997E+02  0.45594000000E+02  0.51100000000E-03 0.  1.
         11   -1    0    0    0    0 -0.00000000000E+00 -0.00000000000E+00 -0.45593999997E+02  0.45594000000E+02  0.51100000000E-03 0. -1.
    9900012    2    1    2    0    0 -0.40761296403E+02  0.10837326077E+02  0.10231947922E+02  0.47787266375E+02  0.19999978708E+02 0.  0.
         12    1    1    2    0    0  0.40761296403E+02 -0.10837326077E+02 -0.10231947922E+02  0.43400733625E+02  0.00000000000E+00 0. -1.
         11    1    3    3    0    0 -0.47351346496E+01 -0.40409585488E+00  0.63375942533E+01  0.79214831181E+01  0.51100000000E-03 0. -1.
        -11    1    3    3    0    0 -0.15443103606E+02  0.10395357788E+02  0.48695237321E+01  0.19242275701E+02  0.51100000000E-03 0.  1.
        -12    1    3    3    0    0 -0.20583058147E+02  0.84606414439E+00 -0.97517006357E+00  0.20623507555E+02  0.00000000000E+00 0.  1.
</event>
<event>
 7    1  0.2682317E-010  0.4778727E+02  0.7816164E-02  0.1312668E+00
        -11   -1    0    0    0    0  0.00000000000E+00  0.00000000000E+00  0.45593999997E+02  0.45594000000E+02  0.51100000000E-03 0.  1.
         11   -1    0    0    0    0 -0.00000000000E+00 -0.00000000000E+00 -0.45593999997E+02  0.45594000000E+02  0.51100000000E-03 0. -1.
    9900012    2    1    2    0    0 -0.12748800482E+02  0.81669612326E+01  0.40674218162E+02  0.47787271981E+02  0.20000004268E+02 0.  0.
         12    1    1    2    0    0  0.12748800482E+02 -0.81669612326E+01 -0.40674218162E+02  0.43400728019E+02  0.00000000000E+00 0. -1.
         11    1    3    3    0    0 -0.31632275162E+01 -0.33181628274E+01  0.12435936266E+02  0.13254007844E+02  0.51100000000E-03 0. -1.
        -11    1    3    3    0    0 -0.64160477901E+01 -0.35355872594E+00  0.15869070635E+02  0.17120691461E+02  0.51100000000E-03 0.  1.
         12    1    3    3    0    0 -0.31695251756E+01  0.11838682786E+02  0.12369211262E+02  0.17412572676E+02  0.00000000000E+00 0. -1.
</event>
<event>
 7    1  0.2682317E-010  0.4778732E+02  0.7816164E-02  0.1312668E+00
        -11   -1    0    0    0    0  0.00000000000E+00  0.00000000000E+00  0.45593999997E+02  0.45594000000E+02  0.51100000000E-03 0.  1.
         11   -1    0    0    0    0 -0.00000000000E+00 -0.00000000000E+00 -0.45593999997E+02  0.45594000000E+02  0.51100000000E-03 0. -1.
    9900012    2    1    2    0    0  0.21131579830E+02  0.15430621116E+02  0.34626166779E+02  0.47787318440E+02  0.20000216093E+02 0.  0.
         12    1    1    2    0    0 -0.21131579830E+02 -0.15430621116E+02 -0.34626166779E+02  0.43400681560E+02  0.00000000000E+00 0. -1.
         11    1    3    3    0    0 -0.12757794330E+01  0.14912716903E+00  0.65761035193E+01  0.67003723651E+01  0.51100000000E-03 0.  1.
        -11    1    3    3    0    0  0.30085684070E+01  0.85670502233E+01  0.56068588675E+01  0.10671583763E+02  0.51100000000E-03 0. -1.
        -12    1    3    3    0    0  0.19398790856E+02  0.67144437238E+01  0.22443204392E+02  0.30415362312E+02  0.00000000000E+00 0.  1.
</event>
<event>
 7    1  0.2682317E-010  0.4778727E+02  0.7816164E-02  0.1312668E+00
        -11   -1    0    0    0    0  0.00000000000E+00  0.00000000000E+00  0.45593999997E+02  0.45594000000E+02  0.51100000000E-03 0. -1.
         11   -1    0    0    0    0 -0.00000000000E+00 -0.00000000000E+00 -0.45593999997E+02  0.45594000000E+02  0.51100000000E-03 0.  1.
    9900012    2    1    2    0    0 -0.11574726491E+02  0.31734493061E+02  0.27250155496E+02  0.47787270539E+02  0.19999997698E+02 0.  0.
         12    1    1    2    0    0  0.11574726491E+02 -0.31734493061E+02 -0.27250155496E+02  0.43400729461E+02  0.00000000000E+00 0. -1.
         11    1    3    3    0    0  0.10272432210E+01  0.30203620888E+01  0.19209153077E+01  0.37239403410E+01  0.51100000000E-03 0. -1.
        -11    1    3    3    0    0 -0.17081472340E+02  0.20371745407E+02  0.18517426701E+02  0.32398762324E+02  0.51100000000E-03 0.  1.
         12    1    3    3    0    0  0.44795026286E+01  0.83423855647E+01  0.68118134869E+01  0.11664567874E+02  0.00000000000E+00 0. -1.
</event>
<event>
 7    1  0.2682317E-010  0.4778726E+02  0.7816164E-02  0.1312668E+00
        -11   -1    0    0    0    0  0.00000000000E+00  0.00000000000E+00  0.45593999997E+02  0.45594000000E+02  0.51100000000E-03 0. -1.
         11   -1    0    0    0    0 -0.00000000000E+00 -0.00000000000E+00 -0.45593999997E+02  0.45594000000E+02  0.51100000000E-03 0.  1.
    9900012    2    1    2    0    0  0.63734501380E+01 -0.41414641750E+02 -0.11306227061E+02  0.47787260510E+02  0.19999951970E+02 0.  0.
         12    1    1    2    0    0 -0.63734501380E+01  0.41414641750E+02  0.11306227061E+02  0.43400739490E+02  0.00000000000E+00 0. -1.
         11    1    3    3    0    0  0.36922344419E+00 -0.11816999069E+02 -0.37714227768E+01  0.12409730979E+02  0.51100000000E-03 0. -1.
        -11    1    3    3    0    0  0.11499405613E+02 -0.24100882016E+02 -0.47603122922E+01  0.27124701229E+02  0.51100000000E-03 0.  1.
         12    1    3    3    0    0 -0.54951789196E+01 -0.54967606644E+01 -0.27744919916E+01  0.82528283013E+01  0.00000000000E+00 0. -1.
</event>
<event>
 7    1  0.2682317E-010  0.4778727E+02  0.7816164E-02  0.1312668E+00
        -11   -1    0    0    0    0  0.00000000000E+00  0.00000000000E+00  0.45593999997E+02  0.45594000000E+02  0.51100000000E-03 0. -1.
         11   -1    0    0    0    0 -0.00000000000E+00 -0.00000000000E+00 -0.45593999997E+02  0.45594000000E+02  0.51100000000E-03 0.  1.
    9900012    2    1    2    0    0  0.42409308968E+02 -0.48243135876E+01 -0.78612865838E+01  0.47787270565E+02  0.19999997815E+02 0.  0.
         12    1    1    2    0    0 -0.42409308968E+02  0.48243135876E+01  0.78612865838E+01  0.43400729435E+02  0.00000000000E+00 0. -1.
         11    1    3    3    0    0  0.96627700616E+01  0.10442125376E+01  0.23769649026E+01  0.10005471878E+02  0.51100000000E-03 0. -1.
        -11    1    3    3    0    0  0.12823678751E+02  0.29218491252E+00  0.28784365141E+01  0.13146007217E+02  0.51100000000E-03 0.  1.
        -12    1    3    3    0    0  0.19922860156E+02 -0.61607110377E+01 -0.13116688000E+02  0.24635791470E+02  0.00000000000E+00 0.  1.
</event>
<event>
 7    1  0.2682317E-010  0.4778727E+02  0.7816164E-02  0.1312668E+00
        -11   -1    0    0    0    0  0.00000000000E+00  0.00000000000E+00  0.45593999997E+02  0.45594000000E+02  0.51100000000E-03 0. -1.
         11   -1    0    0    0    0 -0.00000000000E+00 -0.00000000000E+00 -0.45593999997E+02  0.45594000000E+02  0.51100000000E-03 0.  1.
    9900012    2    1    2    0    0  0.37381340618E+02 -0.76012471870E+01 -0.20699743326E+02  0.47787274672E+02  0.20000016540E+02 0.  0.
         12    1    1    2    0    0 -0.37381340618E+02  0.76012471870E+01  0.20699743326E+02  0.43400725328E+02  0.00000000000E+00 0. -1.
         11    1    3    3    0    0  0.19588712789E+00  0.63530615164E+00  0.64026857650E+00  0.92300042490E+00  0.51100000000E-03 0. -1.
        -11    1    3    3    0    0  0.28274654010E+02  0.10502432437E+01 -0.18113871907E+02  0.33595705469E+02  0.51100000000E-03 0.  1.
        -12    1    3    3    0    0  0.89107994803E+01 -0.92867965823E+01 -0.32261399957E+01  0.13268568778E+02  0.00000000000E+00 0.  1.
</event>
<event>
 7    1  0.2682317E-010  0.4778727E+02  0.7816164E-02  0.1312668E+00
        -11   -1    0    0    0    0  0.00000000000E+00  0.00000000000E+00  0.45593999997E+02  0.45594000000E+02  0.51100000000E-03 0. -1.
         11   -1    0    0    0    0 -0.00000000000E+00 -0.00000000000E+00 -0.45593999997E+02  0.45594000000E+02  0.51100000000E-03 0.  1.
    9900012    2    1    2    0    0  0.31544899225E+02  0.25729890390E+02  0.15050432883E+02  0.47787268939E+02  0.19999990402E+02 0.  0.
         12    1    1    2    0    0 -0.31544899225E+02 -0.25729890390E+02 -0.15050432883E+02  0.43400731061E+02  0.00000000000E+00 0. -1.
         11    1    3    3    0    0  0.83353946017E+01  0.57748835535E+01  0.10079063018E+02  0.14297398183E+02  0.51100000000E-03 0. -1.
        -11    1    3    3    0    0  0.82985332755E+01  0.99921296784E+01  0.80691870574E+01  0.15291176870E+02  0.51100000000E-03 0.  1.
        -12    1    3    3    0    0  0.14910971348E+02  0.99628771582E+01 -0.30978171923E+01  0.18198693886E+02  0.00000000000E+00 0.  1.
</event>
<event>
 7    1  0.2682317E-010  0.4778727E+02  0.7816164E-02  0.1312668E+00
        -11   -1    0    0    0    0  0.00000000000E+00  0.00000000000E+00  0.45593999997E+02  0.45594000000E+02  0.51100000000E-03 0.  1.
         11   -1    0    0    0    0 -0.00000000000E+00 -0.00000000000E+00 -0.45593999997E+02  0.45594000000E+02  0.51100000000E-03 0. -1.
    9900012    2    1    2    0    0 -0.33734443581E+02  0.22059679813E+02  0.16092887553E+02  0.47787272046E+02  0.20000004565E+02 0.  0.
         12    1    1    2    0    0  0.33734443581E+02 -0.22059679813E+02 -0.16092887553E+02  0.43400727954E+02  0.00000000000E+00 0. -1.
         11    1    3    3    0    0  0.17390255465E+01  0.12319759495E+01  0.13079257321E+01  0.25005288588E+01  0.51100000000E-03 0. -1.
        -11    1    3    3    0    0 -0.74395371095E+01 -0.52979800889E+00  0.38074276051E+01  0.83740016458E+01  0.51100000000E-03 0.  1.
        -12    1    3    3    0    0 -0.28033932018E+02  0.21357501872E+02  0.10977534216E+02  0.36912741541E+02  0.00000000000E+00 0.  1.
</event>
<event>
 7    1  0.2682317E-010  0.4778727E+02  0.7816164E-02  0.1312668E+00
        -11   -1    0    0    0    0  0.00000000000E+00  0.00000000000E+00  0.45593999997E+02  0.45594000000E+02  0.51100000000E-03 0. -1.
         11   -1    0    0    0    0 -0.00000000000E+00 -0.00000000000E+00 -0.45593999997E+02  0.45594000000E+02  0.51100000000E-03 0.  1.
    9900012    2    1    2    0    0  0.10534791106E+01  0.18116990643E+02 -0.39424464318E+02  0.47787267806E+02  0.19999985236E+02 0.  0.
         12    1    1    2    0    0 -0.10534791106E+01 -0.18116990643E+02  0.39424464318E+02  0.43400732194E+02  0.00000000000E+00 0. -1.
         11    1    3    3    0    0 -0.72627499751E+00 -0.42579427289E+00 -0.10914238337E+02  0.10946660444E+02  0.51100000000E-03 0.  1.
        -11    1    3    3    0    0 -0.28297961123E+01  0.11577357655E+02 -0.25162177270E+02  0.27842020788E+02  0.51100000000E-03 0. -1.
         12    1    3    3    0    0  0.46095502205E+01  0.69654272611E+01 -0.33480487099E+01  0.89985865739E+01  0.00000000000E+00 0. -1.
</event>
<event>
 7    1  0.2682317E-010  0.4778727E+02  0.7816164E-02  0.1312668E+00
        -11   -1    0    0    0    0  0.00000000000E+00  0.00000000000E+00  0.45593999997E+02  0.45594000000E+02  0.51100000000E-03 0. -1.
         11   -1    0    0    0    0 -0.00000000000E+00 -0.00000000000E+00 -0.45593999997E+02  0.45594000000E+02  0.51100000000E-03 0.  1.
    9900012    2    1    2    0    0 -0.18414759379E+02 -0.17677837415E+02 -0.35100053039E+02  0.47787273946E+02  0.20000013229E+02 0.  0.
         12    1    1    2    0    0  0.18414759379E+02  0.17677837415E+02  0.35100053039E+02  0.43400726054E+02  0.00000000000E+00 0. -1.
         11    1    3    3    0    0 -0.50402031771E+01 -0.57420864067E+01 -0.16948115133E+02  0.18590691520E+02  0.51100000000E-03 0. -1.
        -11    1    3    3    0    0 -0.11640795134E+02 -0.15105030759E+02 -0.16528247116E+02  0.25235946952E+02  0.51100000000E-03 0.  1.
         12    1    3    3    0    0 -0.17337610680E+01  0.31692797502E+01 -0.16236907903E+01  0.39606354741E+01  0.00000000000E+00 0. -1.
</event>
<event>
 7    1  0.2682317E-010  0.4778727E+02  0.7816164E-02  0.1312668E+00
        -11   -1    0    0    0    0  0.00000000000E+00  0.00000000000E+00  0.45593999997E+02  0.45594000000E+02  0.51100000000E-03 0.  1.
         11   -1    0    0    0    0 -0.00000000000E+00 -0.00000000000E+00 -0.45593999997E+02  0.45594000000E+02  0.51100000000E-03 0. -1.
    9900012    2    1    2    0    0 -0.14664807319E+02 -0.85594825072E+01  0.39941231368E+02  0.47787271001E+02  0.19999999801E+02 0.  0.
         12    1    1    2    0    0  0.14664807319E+02  0.85594825072E+01 -0.39941231368E+02  0.43400728999E+02  0.00000000000E+00 0. -1.
         11    1    3    3    0    0 -0.19373162588E+02 -0.63279460820E+01  0.30137166712E+02  0.36381467095E+02  0.51100000000E-03 0. -1.
        -11    1    3    3    0    0  0.62145678659E+00 -0.14029912588E+01  0.37766856680E+01  0.40765117326E+01  0.51100000000E-03 0.  1.
         12    1    3    3    0    0  0.40868984825E+01 -0.82854516629E+00  0.60273789881E+01  0.73292921735E+01  0.00000000000E+00 0. -1.
</event>
<event>
 7    1  0.2682317E-010  0.4778727E+02  0.7816164E-02  0.1312668E+00
        -11   -1    0    0    0    0  0.00000000000E+00  0.00000000000E+00  0.45593999997E+02  0.45594000000E+02  0.51100000000E-03 0.  1.
         11   -1    0    0    0    0 -0.00000000000E+00 -0.00000000000E+00 -0.45593999997E+02  0.45594000000E+02  0.51100000000E-03 0. -1.
    9900012    2    1    2    0    0  0.33571552853E+01  0.17419461284E+02  0.39609532049E+02  0.47787272447E+02  0.20000006393E+02 0.  0.
         12    1    1    2    0    0 -0.33571552853E+01 -0.17419461284E+02 -0.39609532049E+02  0.43400727553E+02  0.00000000000E+00 0. -1.
         11    1    3    3    0    0 -0.18091661025E+01  0.56213909815E+00  0.97291276666E+01  0.99118619727E+01  0.51100000000E-03 0. -1.
        -11    1    3    3    0    0  0.43314537003E+01 -0.10061368785E+01  0.23042297404E+01  0.50083208298E+01  0.51100000000E-03 0.  1.
         12    1    3    3    0    0  0.83486768751E+00  0.17863459064E+02  0.27576174642E+02  0.32867089644E+02  0.00000000000E+00 0. -1.
</event>
<event>
 7    1  0.2682317E-010  0.4778727E+02  0.7816164E-02  0.1312668E+00
        -11   -1    0    0    0    0  0.00000000000E+00  0.00000000000E+00  0.45593999997E+02  0.45594000000E+02  0.51100000000E-03 0.  1.
         11   -1    0    0    0    0 -0.00000000000E+00 -0.00000000000E+00 -0.45593999997E+02  0.45594000000E+02  0.51100000000E-03 0. -1.
    9900012    2    1    2    0    0 -0.15642367157E+02  0.40426484944E+02  0.21538048879E+01  0.47787271772E+02  0.20000003318E+02 0.  0.
         12    1    1    2    0    0  0.15642367157E+02 -0.40426484944E+02 -0.21538048879E+01  0.43400728228E+02  0.00000000000E+00 0. -1.
         11    1    3    3    0    0 -0.36372405369E+01  0.46290223569E+01 -0.63863249513E+01  0.86857649835E+01  0.51100000000E-03 0. -1.
        -11    1    3    3    0    0 -0.39026126533E+01  0.13670872333E+02  0.57641989188E+00  0.14228682160E+02  0.51100000000E-03 0.  1.
         12    1    3    3    0    0 -0.81025139672E+01  0.22126590254E+02  0.79637099473E+01  0.24872824629E+02  0.00000000000E+00 0. -1.
</event>
<event>
 7    1  0.2682317E-010  0.4778727E+02  0.7816164E-02  0.1312668E+00
        -11   -1    0    0    0    0  0.00000000000E+00  0.00000000000E+00  0.45593999997E+02  0.45594000000E+02  0.51100000000E-03 0.  1.
         11   -1    0    0    0    0 -0.00000000000E+00 -0.00000000000E+00 -0.45593999997E+02  0.45594000000E+02  0.51100000000E-03 0. -1.
    9900012    2    1    2    0    0 -0.31827616038E+02 -0.29473560538E+02  0.13911772068E+01  0.47787270888E+02  0.19999999286E+02 0.  0.
         12    1    1    2    0    0  0.31827616038E+02  0.29473560538E+02 -0.13911772068E+01  0.43400729112E+02  0.00000000000E+00 0. -1.
         11    1    3    3    0    0 -0.16748383004E+02 -0.96047402229E+01 -0.82165305823E+01  0.20982629555E+02  0.51100000000E-03 0. -1.
        -11    1    3    3    0    0 -0.20815477758E+01 -0.27209956999E+01  0.20844592975E+01  0.40101907144E+01  0.51100000000E-03 0.  1.
         12    1    3    3    0    0 -0.12997685259E+02 -0.17147824615E+02  0.75232484916E+01  0.22794450618E+02  0.00000000000E+00 0. -1.
</event>
<event>
 7    1  0.2682317E-010  0.4778727E+02  0.7816164E-02  0.1312668E+00
        -11   -1    0    0    0    0  0.00000000000E+00  0.00000000000E+00  0.45593999997E+02  0.45594000000E+02  0.51100000000E-03 0. -1.
         11   -1    0    0    0    0 -0.00000000000E+00 -0.00000000000E+00 -0.45593999997E+02  0.45594000000E+02  0.51100000000E-03 0.  1.
    9900012    2    1    2    0    0 -0.32136229197E+02  0.25795317546E+02 -0.13619386436E+02  0.47787270500E+02  0.19999997516E+02 0.  0.
         12    1    1    2    0    0  0.32136229197E+02 -0.25795317546E+02  0.13619386436E+02  0.43400729500E+02  0.00000000000E+00 0. -1.
         11    1    3    3    0    0 -0.15616822748E+01  0.29370525087E+01 -0.99013231693E+00  0.34706614978E+01  0.51100000000E-03 0. -1.
        -11    1    3    3    0    0 -0.82485506924E+01  0.13767426112E+02  0.19146571043E+01  0.16163122296E+02  0.51100000000E-03 0.  1.
        -12    1    3    3    0    0 -0.22325996230E+02  0.90908389252E+01 -0.14543911223E+02  0.28153486705E+02  0.00000000000E+00 0.  1.
</event>
<event>
 7    1  0.2682317E-010  0.4778727E+02  0.7816164E-02  0.1312668E+00
        -11   -1    0    0    0    0  0.00000000000E+00  0.00000000000E+00  0.45593999997E+02  0.45594000000E+02  0.51100000000E-03 0. -1.
         11   -1    0    0    0    0 -0.00000000000E+00 -0.00000000000E+00 -0.45593999997E+02  0.45594000000E+02  0.51100000000E-03 0.  1.
    9900012    2    1    2    0    0 -0.24396587268E+02 -0.15726920060E+02 -0.32265992541E+02  0.47787265449E+02  0.19999974489E+02 0.  0.
         12    1    1    2    0    0  0.24396587268E+02  0.15726920060E+02  0.32265992541E+02  0.43400734551E+02  0.00000000000E+00 0. -1.
         11    1    3    3    0    0 -0.36372698052E+01 -0.36170543245E+01 -0.70602624781E+01  0.87269765752E+01  0.51100000000E-03 0. -1.
        -11    1    3    3    0    0 -0.64564330717E+01 -0.10305704766E+01  0.15899384684E+01  0.67287077593E+01  0.51100000000E-03 0.  1.
        -12    1    3    3    0    0 -0.14302884391E+02 -0.11079295259E+02 -0.26795668531E+02  0.32331581115E+02  0.00000000000E+00 0.  1.
</event>
<event>
 7    1  0.2682317E-010  0.4778728E+02  0.7816164E-02  0.1312668E+00
        -11   -1    0    0    0    0  0.00000000000E+00  0.00000000000E+00  0.45593999997E+02  0.45594000000E+02  0.51100000000E-03 0.  1.
         11   -1    0    0    0    0 -0.00000000000E+00 -0.00000000000E+00 -0.45593999997E+02  0.45594000000E+02  0.51100000000E-03 0. -1.
    9900012    2    1    2    0    0  0.14771999211E+02 -0.26432327027E+02  0.31092491878E+02  0.47787275076E+02  0.20000018382E+02 0.  0.
         12    1    1    2    0    0 -0.14771999211E+02  0.26432327027E+02 -0.31092491878E+02  0.43400724924E+02  0.00000000000E+00 0. -1.
         11    1    3    3    0    0  0.40288761093E+01 -0.28662700302E+01  0.78175894901E+01  0.92499757993E+01  0.51100000000E-03 0.  1.
        -11    1    3    3    0    0  0.43084950687E+01 -0.61276109393E+01 -0.14246424424E+01  0.76249820937E+01  0.51100000000E-03 0. -1.
         12    1    3    3    0    0  0.64346280327E+01 -0.17438446057E+02  0.24699544830E+02  0.30912317183E+02  0.00000000000E+00 0. -1.
</event>
<event>
 7    1  0.2682317E-010  0.4778727E+02  0.7816164E-02  0.1312668E+00
        -11   -1    0    0    0    0  0.00000000000E+00  0.00000000000E+00  0.45593999997E+02  0.45594000000E+02  0.51100000000E-03 0.  1.
         11   -1    0    0    0    0 -0.00000000000E+00 -0.00000000000E+00 -0.45593999997E+02  0.45594000000E+02  0.51100000000E-03 0. -1.
    9900012    2    1    2    0    0  0.26644159404E+02  0.58088416409E+01  0.33763432562E+02  0.47787271320E+02  0.20000001256E+02 0.  0.
         12    1    1    2    0    0 -0.26644159404E+02 -0.58088416409E+01 -0.33763432562E+02  0.43400728680E+02  0.00000000000E+00 0. -1.
         11    1    3    3    0    0  0.11664835896E+02  0.22867086122E+01  0.12341727865E+02  0.17135217527E+02  0.51100000000E-03 0.  1.
        -11    1    3    3    0    0  0.12128410036E+02  0.87189871256E+01  0.19190382370E+02  0.24318508225E+02  0.51100000000E-03 0. -1.
         12    1    3    3    0    0  0.28509134725E+01 -0.51968540968E+01  0.22313223268E+01  0.63335455676E+01  0.00000000000E+00 0. -1.
</event>
<event>
 7    1  0.2682317E-010  0.4778727E+02  0.7816164E-02  0.1312668E+00
        -11   -1    0    0    0    0  0.00000000000E+00  0.00000000000E+00  0.45593999997E+02  0.45594000000E+02  0.51100000000E-03 0.  1.
         11   -1    0    0    0    0 -0.00000000000E+00 -0.00000000000E+00 -0.45593999997E+02  0.45594000000E+02  0.51100000000E-03 0. -1.
    9900012    2    1    2    0    0  0.56848413722E+01 -0.31507687115E+02  0.29301390782E+02  0.47787271083E+02  0.20000000175E+02 0.  0.
         12    1    1    2    0    0 -0.56848413722E+01  0.31507687115E+02 -0.29301390782E+02  0.43400728917E+02  0.00000000000E+00 0. -1.
         11    1    3    3    0    0 -0.26792899742E+01 -0.15969080149E+02  0.12936702759E+02  0.20725549308E+02  0.51100000000E-03 0. -1.
        -11    1    3    3    0    0 -0.19524255230E+01 -0.34435841721E+01  0.83887981618E+01  0.92758919913E+01  0.51100000000E-03 0.  1.
         12    1    3    3    0    0  0.10316556869E+02 -0.12095022794E+02  0.79758898615E+01  0.17785829784E+02  0.00000000000E+00 0. -1.
</event>
<event>
 7    1  0.3246805E-010  0.4778728E+02  0.7816164E-02  0.1312668E+00
        -11   -1    0    0    0    0  0.00000000000E+00  0.00000000000E+00  0.45593999997E+02  0.45594000000E+02  0.51100000000E-03 0.  1.
         11   -1    0    0    0    0 -0.00000000000E+00 -0.00000000000E+00 -0.45593999997E+02  0.45594000000E+02  0.51100000000E-03 0. -1.
    9900012    2    1    2    0    0  0.40916742249E+02  0.11459715198E+01 -0.14426684138E+02  0.47787282699E+02  0.20000053138E+02 0.  0.
         12    1    1    2    0    0 -0.40916742249E+02 -0.11459715198E+01  0.14426684138E+02  0.43400717301E+02  0.00000000000E+00 0. -1.
         11    1    3    3    0    0  0.14174251180E+01  0.27040439803E+01  0.60280901733E+00  0.31119651002E+01  0.51100000000E-03 0. -1.
        -11    1    3    3    0    0  0.83487069508E+01 -0.61614201125E+01 -0.56732163608E+01  0.11825793406E+02  0.51100000000E-03 0.  1.
        -12    1    3    3    0    0  0.31150610180E+02  0.46033476520E+01 -0.93562767944E+01  0.32849524192E+02  0.00000000000E+00 0.  1.
</event>
<event>
 7    1  0.2682317E-010  0.4778727E+02  0.7816164E-02  0.1312668E+00
        -11   -1    0    0    0    0  0.00000000000E+00  0.00000000000E+00  0.45593999997E+02  0.45594000000E+02  0.51100000000E-03 0.  1.
         11   -1    0    0    0    0 -0.00000000000E+00 -0.00000000000E+00 -0.45593999997E+02  0.45594000000E+02  0.51100000000E-03 0. -1.
    9900012    2    1    2    0    0 -0.32748230009E+02  0.14573916255E+01  0.28443854315E+02  0.47787269507E+02  0.19999992989E+02 0.  0.
         12    1    1    2    0    0  0.32748230009E+02 -0.14573916255E+01 -0.28443854315E+02  0.43400730493E+02  0.00000000000E+00 0. -1.
         11    1    3    3    0    0 -0.10866153735E+02  0.49802877622E+01  0.50174356084E+00  0.11963624452E+02  0.51100000000E-03 0. -1.
        -11    1    3    3    0    0 -0.78200737210E+01 -0.42607188508E+00  0.77022881291E+01  0.10984549738E+02  0.51100000000E-03 0.  1.
         12    1    3    3    0    0 -0.14062002553E+02 -0.30968242516E+01  0.20239822625E+02  0.24839095317E+02  0.00000000000E+00 0. -1.
</event>
<event>
 7    1  0.2682317E-010  0.4778727E+02  0.7816164E-02  0.1312668E+00
        -11   -1    0    0    0    0  0.00000000000E+00  0.00000000000E+00  0.45593999997E+02  0.45594000000E+02  0.51100000000E-03 0. -1.
         11   -1    0    0    0    0 -0.00000000000E+00 -0.00000000000E+00 -0.45593999997E+02  0.45594000000E+02  0.51100000000E-03 0.  1.
    9900012    2    1    2    0    0  0.23066432377E+02  0.76915707534E+01 -0.35950005956E+02  0.47787268538E+02  0.19999988571E+02 0.  0.
         12    1    1    2    0    0 -0.23066432377E+02 -0.76915707534E+01  0.35950005956E+02  0.43400731462E+02  0.00000000000E+00 0. -1.
         11    1    3    3    0    0  0.97800844121E+01 -0.14325219100E+01 -0.13122219360E+02  0.16428475624E+02  0.51100000000E-03 0. -1.
        -11    1    3    3    0    0  0.15562027692E+02  0.95602446744E+01 -0.22559892050E+02  0.29026259037E+02  0.51100000000E-03 0.  1.
         12    1    3    3    0    0 -0.22756797274E+01 -0.43615201105E+00 -0.26789454547E+00  0.23325338767E+01  0.00000000000E+00 0. -1.
</event>
<event>
 7    1  0.2682317E-010  0.4778727E+02  0.7816164E-02  0.1312668E+00
        -11   -1    0    0    0    0  0.00000000000E+00  0.00000000000E+00  0.45593999997E+02  0.45594000000E+02  0.51100000000E-03 0.  1.
         11   -1    0    0    0    0 -0.00000000000E+00 -0.00000000000E+00 -0.45593999997E+02  0.45594000000E+02  0.51100000000E-03 0. -1.
    9900012    2    1    2    0    0 -0.14090466386E+02 -0.21718237018E+02  0.34833893600E+02  0.47787271832E+02  0.20000003593E+02 0.  0.
         12    1    1    2    0    0  0.14090466386E+02  0.21718237018E+02 -0.34833893600E+02  0.43400728168E+02  0.00000000000E+00 0. -1.
         11    1    3    3    0    0 -0.11579664374E+02 -0.20340374108E+01  0.10546462394E+02  0.15794106638E+02  0.51100000000E-03 0. -1.
        -11    1    3    3    0    0  0.66489803690E+00 -0.10031834851E+02  0.82399899990E+01  0.12999124406E+02  0.51100000000E-03 0.  1.
        -12    1    3    3    0    0 -0.31757000496E+01 -0.96523647562E+01  0.16047441206E+02  0.18994040788E+02  0.00000000000E+00 0.  1.
</event>
<event>
 7    1  0.2682317E-010  0.4778727E+02  0.7816164E-02  0.1312668E+00
        -11   -1    0    0    0    0  0.00000000000E+00  0.00000000000E+00  0.45593999997E+02  0.45594000000E+02  0.51100000000E-03 0. -1.
         11   -1    0    0    0    0 -0.00000000000E+00 -0.00000000000E+00 -0.45593999997E+02  0.45594000000E+02  0.51100000000E-03 0.  1.
    9900012    2    1    2    0    0  0.32079347975E+02 -0.27099336271E+02 -0.10961964572E+02  0.47787271203E+02  0.20000000723E+02 0.  0.
         12    1    1    2    0    0 -0.32079347975E+02  0.27099336271E+02  0.10961964572E+02  0.43400728797E+02  0.00000000000E+00 0. -1.
         11    1    3    3    0    0 -0.33936942183E+00 -0.27034102630E+01 -0.21081660606E+01  0.34449910094E+01  0.51100000000E-03 0. -1.
        -11    1    3    3    0    0  0.24229127534E+02 -0.17224196943E+02 -0.13320716749E+02  0.32575528796E+02  0.51100000000E-03 0.  1.
         12    1    3    3    0    0  0.81895898630E+01 -0.71717290649E+01  0.44669182374E+01  0.11766751397E+02  0.00000000000E+00 0. -1.
</event>
<event>
 7    1  0.2682317E-010  0.4778727E+02  0.7816164E-02  0.1312668E+00
        -11   -1    0    0    0    0  0.00000000000E+00  0.00000000000E+00  0.45593999997E+02  0.45594000000E+02  0.51100000000E-03 0.  1.
         11   -1    0    0    0    0 -0.00000000000E+00 -0.00000000000E+00 -0.45593999997E+02  0.45594000000E+02  0.51100000000E-03 0. -1.
    9900012    2    1    2    0    0 -0.10410215446E+02 -0.60157688833E+01  0.41702050615E+02  0.47787273204E+02  0.20000009848E+02 0.  0.
         12    1    1    2    0    0  0.10410215446E+02  0.60157688833E+01 -0.41702050615E+02  0.43400726796E+02  0.00000000000E+00 0. -1.
         11    1    3    3    0    0 -0.12220415836E+02  0.87946916457E+00  0.17711524117E+02  0.21536251206E+02  0.51100000000E-03 0. -1.
        -11    1    3    3    0    0 -0.24698358910E+01 -0.47966364547E+01  0.87229265256E+01  0.10256571456E+02  0.51100000000E-03 0.  1.
        -12    1    3    3    0    0  0.42800362807E+01 -0.20986015931E+01  0.15267599973E+02  0.15994450542E+02  0.00000000000E+00 0.  1.
</event>
<event>
 7    1  0.2682317E-010  0.4778727E+02  0.7816164E-02  0.1312668E+00
        -11   -1    0    0    0    0  0.00000000000E+00  0.00000000000E+00  0.45593999997E+02  0.45594000000E+02  0.51100000000E-03 0.  1.
         11   -1    0    0    0    0 -0.00000000000E+00 -0.00000000000E+00 -0.45593999997E+02  0.45594000000E+02  0.51100000000E-03 0. -1.
    9900012    2    1    2    0    0 -0.97140269682E+01  0.20568416389E+02  0.36962156843E+02  0.47787272919E+02  0.20000008546E+02 0.  0.
         12    1    1    2    0    0  0.97140269682E+01 -0.20568416389E+02 -0.36962156843E+02  0.43400727081E+02  0.00000000000E+00 0. -1.
         11    1    3    3    0    0 -0.33123495561E+01  0.94531631339E+01  0.80781834870E+01  0.12868216719E+02  0.51100000000E-03 0. -1.
        -11    1    3    3    0    0 -0.55485441995E+01 -0.63672425187E-01  0.21885265724E+01  0.59649011501E+01  0.51100000000E-03 0.  1.
         12    1    3    3    0    0 -0.85313321251E+00  0.11178925680E+02  0.26695446784E+02  0.28954155049E+02  0.00000000000E+00 0. -1.
</event>
<event>
 7    1  0.2682317E-010  0.4778727E+02  0.7816164E-02  0.1312668E+00
        -11   -1    0    0    0    0  0.00000000000E+00  0.00000000000E+00  0.45593999997E+02  0.45594000000E+02  0.51100000000E-03 0. -1.
         11   -1    0    0    0    0 -0.00000000000E+00 -0.00000000000E+00 -0.45593999997E+02  0.45594000000E+02  0.51100000000E-03 0.  1.
    9900012    2    1    2    0    0 -0.39469718130E+02  0.17939510122E+02 -0.19846187305E+01  0.47787269774E+02  0.19999994206E+02 0.  0.
         12    1    1    2    0    0  0.39469718130E+02 -0.17939510122E+02  0.19846187305E+01  0.43400730226E+02  0.00000000000E+00 0. -1.
         11    1    3    3    0    0 -0.13875174910E+02  0.45832576587E-01 -0.35725990001E+01  0.14327806646E+02  0.51100000000E-03 0. -1.
        -11    1    3    3    0    0 -0.22195011414E+02  0.91660727538E+01  0.18970174023E+01  0.24088048835E+02  0.51100000000E-03 0.  1.
         12    1    3    3    0    0 -0.33995318064E+01  0.87276047913E+01 -0.30903713276E+00  0.93714142927E+01  0.00000000000E+00 0. -1.
</event>
<event>
 7    1  0.2682317E-010  0.4778727E+02  0.7816164E-02  0.1312668E+00
        -11   -1    0    0    0    0  0.00000000000E+00  0.00000000000E+00  0.45593999997E+02  0.45594000000E+02  0.51100000000E-03 0. -1.
         11   -1    0    0    0    0 -0.00000000000E+00 -0.00000000000E+00 -0.45593999997E+02  0.45594000000E+02  0.51100000000E-03 0.  1.
    9900012    2    1    2    0    0 -0.30733153923E+02 -0.25872238565E+02 -0.16423284747E+02  0.47787265441E+02  0.19999974451E+02 0.  0.
         12    1    1    2    0    0  0.30733153923E+02  0.25872238565E+02  0.16423284747E+02  0.43400734559E+02  0.00000000000E+00 0. -1.
         11    1    3    3    0    0 -0.16896301535E+02 -0.10428884932E+02 -0.11166870212E+02  0.22780378335E+02  0.51100000000E-03 0. -1.
        -11    1    3    3    0    0 -0.30975987379E+01 -0.13033390757E+02 -0.36429034641E+01  0.13882908142E+02  0.51100000000E-03 0.  1.
         12    1    3    3    0    0 -0.10739253650E+02 -0.24099628755E+01 -0.16135110705E+01  0.11123978964E+02  0.00000000000E+00 0. -1.
</event>
<event>
 7    1  0.2682317E-010  0.4778726E+02  0.7816164E-02  0.1312668E+00
        -11   -1    0    0    0    0  0.00000000000E+00  0.00000000000E+00  0.45593999997E+02  0.45594000000E+02  0.51100000000E-03 0.  1.
         11   -1    0    0    0    0 -0.00000000000E+00 -0.00000000000E+00 -0.45593999997E+02  0.45594000000E+02  0.51100000000E-03 0. -1.
    9900012    2    1    2    0    0  0.38452334224E+02  0.10734115197E+02  0.17024131848E+02  0.47787259206E+02  0.19999946022E+02 0.  0.
         12    1    1    2    0    0 -0.38452334224E+02 -0.10734115197E+02 -0.17024131848E+02  0.43400740794E+02  0.00000000000E+00 0. -1.
         11    1    3    3    0    0  0.23474690913E+02  0.14968393846E+02  0.86097457381E+01  0.29141750972E+02  0.51100000000E-03 0. -1.
        -11    1    3    3    0    0  0.56428890085E+01 -0.28401689303E+01  0.51601324794E+00  0.63383772251E+01  0.51100000000E-03 0.  1.
        -12    1    3    3    0    0  0.93347543025E+01 -0.13941097184E+01  0.78983728620E+01  0.12307131009E+02  0.00000000000E+00 0.  1.
</event>
<event>
 7    1  0.2682317E-010  0.4778727E+02  0.7816164E-02  0.1312668E+00
        -11   -1    0    0    0    0  0.00000000000E+00  0.00000000000E+00  0.45593999997E+02  0.45594000000E+02  0.51100000000E-03 0.  1.
         11   -1    0    0    0    0 -0.00000000000E+00 -0.00000000000E+00 -0.45593999997E+02  0.45594000000E+02  0.51100000000E-03 0. -1.
    9900012    2    1    2    0    0  0.91092638369E+00  0.18621081885E+02  0.39192462821E+02  0.47787267063E+02  0.19999981848E+02 0.  0.
         12    1    1    2    0    0 -0.91092638369E+00 -0.18621081885E+02 -0.39192462821E+02  0.43400732937E+02  0.00000000000E+00 0. -1.
         11    1    3    3    0    0  0.95491585737E+00  0.11753564902E+02  0.18375426710E+02  0.21833791683E+02  0.51100000000E-03 0. -1.
        -11    1    3    3    0    0 -0.26574270260E+01  0.10191256930E+02  0.18057529394E+02  0.20904497226E+02  0.51100000000E-03 0.  1.
         12    1    3    3    0    0  0.26134375523E+01 -0.33237399473E+01  0.27595067176E+01  0.50489781542E+01  0.00000000000E+00 0. -1.
</event>
<event>
 7    1  0.2682317E-010  0.4778727E+02  0.7816164E-02  0.1312668E+00
        -11   -1    0    0    0    0  0.00000000000E+00  0.00000000000E+00  0.45593999997E+02  0.45594000000E+02  0.51100000000E-03 0.  1.
         11   -1    0    0    0    0 -0.00000000000E+00 -0.00000000000E+00 -0.45593999997E+02  0.45594000000E+02  0.51100000000E-03 0. -1.
    9900012    2    1    2    0    0 -0.27974488837E+02  0.75680716049E+01  0.32307514819E+02  0.47787271350E+02  0.20000001394E+02 0.  0.
         12    1    1    2    0    0  0.27974488837E+02 -0.75680716049E+01 -0.32307514819E+02  0.43400728650E+02  0.00000000000E+00 0. -1.
         11    1    3    3    0    0 -0.32253578331E+00  0.82376634906E+00  0.82539340030E+01  0.83012075697E+01  0.51100000000E-03 0. -1.
        -11    1    3    3    0    0 -0.81517330051E+01 -0.36718501139E+01  0.46836746480E+01  0.10093069043E+02  0.51100000000E-03 0.  1.
        -12    1    3    3    0    0 -0.19500220049E+02  0.10416155370E+02  0.19369906168E+02  0.29392994737E+02  0.00000000000E+00 0.  1.
</event>
<event>
 7    1  0.2682317E-010  0.4778727E+02  0.7816164E-02  0.1312668E+00
        -11   -1    0    0    0    0  0.00000000000E+00  0.00000000000E+00  0.45593999997E+02  0.45594000000E+02  0.51100000000E-03 0.  1.
         11   -1    0    0    0    0 -0.00000000000E+00 -0.00000000000E+00 -0.45593999997E+02  0.45594000000E+02  0.51100000000E-03 0. -1.
    9900012    2    1    2    0    0 -0.34174628567E+02 -0.30319404681E+01  0.26580544397E+02  0.47787271422E+02  0.20000001720E+02 0.  0.
         12    1    1    2    0    0  0.34174628567E+02  0.30319404681E+01 -0.26580544397E+02  0.43400728578E+02  0.00000000000E+00 0. -1.
         11    1    3    3    0    0 -0.66622521869E+01  0.39010214512E+01  0.84632165663E+01  0.11455549200E+02  0.51100000000E-03 0. -1.
        -11    1    3    3    0    0 -0.22162107332E+02 -0.24849706486E+01  0.19026899003E+02  0.29314790917E+02  0.51100000000E-03 0.  1.
        -12    1    3    3    0    0 -0.53502690472E+01 -0.44479912707E+01 -0.90957117238E+00  0.70169313050E+01  0.00000000000E+00 0.  1.
</event>
<event>
 7    1  0.2682317E-010  0.4778727E+02  0.7816164E-02  0.1312668E+00
        -11   -1    0    0    0    0  0.00000000000E+00  0.00000000000E+00  0.45593999997E+02  0.45594000000E+02  0.51100000000E-03 0.  1.
         11   -1    0    0    0    0 -0.00000000000E+00 -0.00000000000E+00 -0.45593999997E+02  0.45594000000E+02  0.51100000000E-03 0. -1.
    9900012    2    1    2    0    0 -0.12356450682E+02  0.23721730421E+02  0.34179247390E+02  0.47787270516E+02  0.19999997592E+02 0.  0.
         12    1    1    2    0    0  0.12356450682E+02 -0.23721730421E+02 -0.34179247390E+02  0.43400729484E+02  0.00000000000E+00 0. -1.
         11    1    3    3    0    0 -0.11931244647E+02  0.13171920606E+02  0.16419284377E+02  0.24196011882E+02  0.51100000000E-03 0. -1.
        -11    1    3    3    0    0 -0.47208405672E+01  0.37429124176E+01  0.12773152753E+02  0.14122647080E+02  0.51100000000E-03 0.  1.
         12    1    3    3    0    0  0.42956345323E+01  0.68068973967E+01  0.49868102591E+01  0.94686115543E+01  0.00000000000E+00 0. -1.
</event>
<event>
 7    1  0.2682317E-010  0.4778727E+02  0.7816164E-02  0.1312668E+00
        -11   -1    0    0    0    0  0.00000000000E+00  0.00000000000E+00  0.45593999997E+02  0.45594000000E+02  0.51100000000E-03 0. -1.
         11   -1    0    0    0    0 -0.00000000000E+00 -0.00000000000E+00 -0.45593999997E+02  0.45594000000E+02  0.51100000000E-03 0.  1.
    9900012    2    1    2    0    0 -0.24147216918E+02 -0.32049294646E+01 -0.35920237343E+02  0.47787272949E+02  0.20000008683E+02 0.  0.
         12    1    1    2    0    0  0.24147216918E+02  0.32049294646E+01  0.35920237343E+02  0.43400727051E+02  0.00000000000E+00 0. -1.
         11    1    3    3    0    0  0.44530861826E+00 -0.12597447560E+01  0.64493494109E+00  0.14836434730E+01  0.51100000000E-03 0. -1.
        -11    1    3    3    0    0 -0.18415678009E+02 -0.82545941620E+00 -0.35409582320E+02  0.39920635016E+02  0.51100000000E-03 0.  1.
         12    1    3    3    0    0 -0.61768475270E+01 -0.11197252924E+01 -0.11555899647E+01  0.63829944594E+01  0.00000000000E+00 0. -1.
</event>
<event>
 7    1  0.2682317E-010  0.4778727E+02  0.7816164E-02  0.1312668E+00
        -11   -1    0    0    0    0  0.00000000000E+00  0.00000000000E+00  0.45593999997E+02  0.45594000000E+02  0.51100000000E-03 0. -1.
         11   -1    0    0    0    0 -0.00000000000E+00 -0.00000000000E+00 -0.45593999997E+02  0.45594000000E+02  0.51100000000E-03 0.  1.
    9900012    2    1    2    0    0  0.42190444476E+02 -0.57600381336E+01 -0.83911666686E+01  0.47787270485E+02  0.19999997451E+02 0.  0.
         12    1    1    2    0    0 -0.42190444476E+02  0.57600381336E+01  0.83911666686E+01  0.43400729515E+02  0.00000000000E+00 0. -1.
         11    1    3    3    0    0  0.14708477222E+02 -0.48323314848E+01 -0.43573470102E+01  0.16083444998E+02  0.51100000000E-03 0. -1.
        -11    1    3    3    0    0  0.17131791621E+02 -0.52135456646E+01 -0.82729446861E+01  0.19726149056E+02  0.51100000000E-03 0.  1.
         12    1    3    3    0    0  0.10350175632E+02  0.42858390158E+01  0.42391250277E+01  0.11977676431E+02  0.00000000000E+00 0. -1.
</event>
<event>
 7    1  0.2682317E-010  0.4778727E+02  0.7816164E-02  0.1312668E+00
        -11   -1    0    0    0    0  0.00000000000E+00  0.00000000000E+00  0.45593999997E+02  0.45594000000E+02  0.51100000000E-03 0.  1.
         11   -1    0    0    0    0 -0.00000000000E+00 -0.00000000000E+00 -0.45593999997E+02  0.45594000000E+02  0.51100000000E-03 0. -1.
    9900012    2    1    2    0    0 -0.24267145927E+01 -0.40851925554E+02  0.14451788185E+02  0.47787274811E+02  0.20000017174E+02 0.  0.
         12    1    1    2    0    0  0.24267145927E+01  0.40851925554E+02 -0.14451788185E+02  0.43400725189E+02  0.00000000000E+00 0. -1.
         11    1    3    3    0    0  0.23244494442E+01 -0.13322370531E+02  0.12304029432E+02  0.18283264542E+02  0.51100000000E-03 0. -1.
        -11    1    3    3    0    0  0.15226679263E+01 -0.11623619047E+02  0.38059309630E+01  0.12325264627E+02  0.51100000000E-03 0.  1.
        -12    1    3    3    0    0 -0.62738319632E+01 -0.15905935976E+02 -0.16581722098E+01  0.17178745642E+02  0.00000000000E+00 0.  1.
</event>
<event>
 7    1  0.2682317E-010  0.4778727E+02  0.7816164E-02  0.1312668E+00
        -11   -1    0    0    0    0  0.00000000000E+00  0.00000000000E+00  0.45593999997E+02  0.45594000000E+02  0.51100000000E-03 0. -1.
         11   -1    0    0    0    0 -0.00000000000E+00 -0.00000000000E+00 -0.45593999997E+02  0.45594000000E+02  0.51100000000E-03 0.  1.
    9900012    2    1    2    0    0 -0.20367585862E+02 -0.16859040804E+02 -0.34417396024E+02  0.47787274663E+02  0.20000016499E+02 0.  0.
         12    1    1    2    0    0  0.20367585862E+02  0.16859040804E+02  0.34417396024E+02  0.43400725337E+02  0.00000000000E+00 0. -1.
         11    1    3    3    0    0 -0.48826948974E+01 -0.14748585344E+02 -0.99013524091E+01  0.18422764692E+02  0.51100000000E-03 0. -1.
        -11    1    3    3    0    0 -0.20127484145E-01 -0.62536857893E+00 -0.10216922243E+01  0.11980593631E+01  0.51100000000E-03 0.  1.
         12    1    3    3    0    0 -0.15464763481E+02 -0.14850868808E+01 -0.23494351391E+02  0.28166450608E+02  0.00000000000E+00 0. -1.
</event>
<event>
 7    1  0.2682317E-010  0.4778726E+02  0.7816164E-02  0.1312668E+00
        -11   -1    0    0    0    0  0.00000000000E+00  0.00000000000E+00  0.45593999997E+02  0.45594000000E+02  0.51100000000E-03 0.  1.
         11   -1    0    0    0    0 -0.00000000000E+00 -0.00000000000E+00 -0.45593999997E+02  0.45594000000E+02  0.51100000000E-03 0. -1.
    9900012    2    1    2    0    0  0.16885970815E+02 -0.36881643594E+02 -0.15434783029E+02  0.47787260701E+02  0.19999952839E+02 0.  0.
         12    1    1    2    0    0 -0.16885970815E+02  0.36881643594E+02  0.15434783029E+02  0.43400739299E+02  0.00000000000E+00 0. -1.
         11    1    3    3    0    0 -0.28100532542E+01 -0.74911437592E+01  0.79072098066E-01  0.80012428266E+01  0.51100000000E-03 0. -1.
        -11    1    3    3    0    0 -0.83375621420E+00 -0.26017911424E+00  0.97677816682E-01  0.87885369271E+00  0.51100000000E-03 0.  1.
        -12    1    3    3    0    0  0.20529780284E+02 -0.29130320720E+02 -0.15611532944E+02  0.38907164181E+02  0.00000000000E+00 0.  1.
</event>
<event>
 7    1  0.2682317E-010  0.4778728E+02  0.7816164E-02  0.1312668E+00
        -11   -1    0    0    0    0  0.00000000000E+00  0.00000000000E+00  0.45593999997E+02  0.45594000000E+02  0.51100000000E-03 0.  1.
         11   -1    0    0    0    0 -0.00000000000E+00 -0.00000000000E+00 -0.45593999997E+02  0.45594000000E+02  0.51100000000E-03 0. -1.
    9900012    2    1    2    0    0 -0.42863829728E+02 -0.28602312868E+01  0.61752656316E+01  0.47787277338E+02  0.20000028696E+02 0.  0.
         12    1    1    2    0    0  0.42863829728E+02  0.28602312868E+01 -0.61752656316E+01  0.43400722662E+02  0.00000000000E+00 0. -1.
         11    1    3    3    0    0 -0.79007219722E+01  0.10117980169E+01  0.21253261408E+01  0.82439162038E+01  0.51100000000E-03 0. -1.
        -11    1    3    3    0    0 -0.36809557680E+02 -0.23318027676E+01  0.33298801138E+01  0.37033349060E+02  0.51100000000E-03 0.  1.
         12    1    3    3    0    0  0.18464499249E+01 -0.15402265362E+01  0.72005937700E+00  0.25100120745E+01  0.00000000000E+00 0. -1.
</event>
<event>
 7    1  0.2682317E-010  0.4778727E+02  0.7816164E-02  0.1312668E+00
        -11   -1    0    0    0    0  0.00000000000E+00  0.00000000000E+00  0.45593999997E+02  0.45594000000E+02  0.51100000000E-03 0.  1.
         11   -1    0    0    0    0 -0.00000000000E+00 -0.00000000000E+00 -0.45593999997E+02  0.45594000000E+02  0.51100000000E-03 0. -1.
    9900012    2    1    2    0    0 -0.55688904997E+01 -0.37013333714E+01  0.42882525867E+02  0.47787269190E+02  0.19999991543E+02 0.  0.
         12    1    1    2    0    0  0.55688904997E+01  0.37013333714E+01 -0.42882525867E+02  0.43400730810E+02  0.00000000000E+00 0. -1.
         11    1    3    3    0    0 -0.39292625965E+01 -0.34720224956E+01  0.65776179894E+01  0.84118430465E+01  0.51100000000E-03 0. -1.
        -11    1    3    3    0    0 -0.51454902352E+01 -0.61695792066E-01  0.31461578153E+01  0.60314331126E+01  0.51100000000E-03 0.  1.
        -12    1    3    3    0    0  0.35058623320E+01 -0.16761508369E+00  0.33158750063E+02  0.33343993030E+02  0.00000000000E+00 0.  1.
</event>
<event>
 7    1  0.2682317E-010  0.4778727E+02  0.7816164E-02  0.1312668E+00
        -11   -1    0    0    0    0  0.00000000000E+00  0.00000000000E+00  0.45593999997E+02  0.45594000000E+02  0.51100000000E-03 0. -1.
         11   -1    0    0    0    0 -0.00000000000E+00 -0.00000000000E+00 -0.45593999997E+02  0.45594000000E+02  0.51100000000E-03 0.  1.
    9900012    2    1    2    0    0 -0.17852488124E+01  0.37840310011E+02 -0.21178933085E+02  0.47787269803E+02  0.19999994338E+02 0.  0.
         12    1    1    2    0    0  0.17852488124E+01 -0.37840310011E+02  0.21178933085E+02  0.43400730197E+02  0.00000000000E+00 0. -1.
         11    1    3    3    0    0 -0.30103083772E+00  0.22066321898E+01  0.95605144162E+00  0.24236088394E+01  0.51100000000E-03 0. -1.
        -11    1    3    3    0    0 -0.95920300670E+00  0.36797031903E+02 -0.17881813261E+02  0.40923109279E+02  0.51100000000E-03 0.  1.
        -12    1    3    3    0    0 -0.52501496798E+00 -0.11633540825E+01 -0.42531712666E+01  0.44405516843E+01  0.00000000000E+00 0.  1.
</event>
<event>
 7    1  0.2682317E-010  0.4778727E+02  0.7816164E-02  0.1312668E+00
        -11   -1    0    0    0    0  0.00000000000E+00  0.00000000000E+00  0.45593999997E+02  0.45594000000E+02  0.51100000000E-03 0.  1.
         11   -1    0    0    0    0 -0.00000000000E+00 -0.00000000000E+00 -0.45593999997E+02  0.45594000000E+02  0.51100000000E-03 0. -1.
    9900012    2    1    2    0    0 -0.33207327795E+02 -0.26655136259E+02 -0.83905015285E+01  0.47787269313E+02  0.19999992104E+02 0.  0.
         12    1    1    2    0    0  0.33207327795E+02  0.26655136259E+02  0.83905015285E+01  0.43400730687E+02  0.00000000000E+00 0. -1.
         11    1    3    3    0    0 -0.96283226911E+01 -0.58383792886E+01 -0.10343440458E+02  0.15289801547E+02  0.51100000000E-03 0. -1.
        -11    1    3    3    0    0 -0.12339027658E+02 -0.11197543636E+02 -0.29305157556E+01  0.16918170997E+02  0.51100000000E-03 0.  1.
        -12    1    3    3    0    0 -0.11239977446E+02 -0.96192133347E+01  0.48834546851E+01  0.15579296769E+02  0.00000000000E+00 0.  1.
</event>
<event>
 7    1  0.2682317E-010  0.4778727E+02  0.7816164E-02  0.1312668E+00
        -11   -1    0    0    0    0  0.00000000000E+00  0.00000000000E+00  0.45593999997E+02  0.45594000000E+02  0.51100000000E-03 0.  1.
         11   -1    0    0    0    0 -0.00000000000E+00 -0.00000000000E+00 -0.45593999997E+02  0.45594000000E+02  0.51100000000E-03 0. -1.
    9900012    2    1    2    0    0  0.69739577770E+01  0.21760710830E+02  0.36897951270E+02  0.47787269236E+02  0.19999991756E+02 0.  0.
         12    1    1    2    0    0 -0.69739577770E+01 -0.21760710830E+02 -0.36897951270E+02  0.43400730764E+02  0.00000000000E+00 0. -1.
         11    1    3    3    0    0  0.61863254639E+01  0.38635843648E+00  0.11032633052E+02  0.12654599476E+02  0.51100000000E-03 0. -1.
        -11    1    3    3    0    0  0.22358034227E+01  0.25691046092E+00  0.46386439822E+01  0.51557577702E+01  0.51100000000E-03 0.  1.
        -12    1    3    3    0    0 -0.14481711096E+01  0.21117441933E+02  0.21226674236E+02  0.29976911990E+02  0.00000000000E+00 0.  1.
</event>
<event>
 7    1  0.2682317E-010  0.4778727E+02  0.7816164E-02  0.1312668E+00
        -11   -1    0    0    0    0  0.00000000000E+00  0.00000000000E+00  0.45593999997E+02  0.45594000000E+02  0.51100000000E-03 0. -1.
         11   -1    0    0    0    0 -0.00000000000E+00 -0.00000000000E+00 -0.45593999997E+02  0.45594000000E+02  0.51100000000E-03 0.  1.
    9900012    2    1    2    0    0 -0.19371427553E+01  0.43074077046E+02 -0.49491819788E+01  0.47787273766E+02  0.20000012409E+02 0.  0.
         12    1    1    2    0    0  0.19371427553E+01 -0.43074077046E+02  0.49491819788E+01  0.43400726234E+02  0.00000000000E+00 0. -1.
         11    1    3    3    0    0  0.10811070192E+01  0.22120695402E+00  0.66331567657E+00  0.12875219809E+01  0.51100000000E-03 0. -1.
        -11    1    3    3    0    0 -0.78968474719E+01  0.36037263205E+02 -0.94146314644E+00  0.36904347880E+02  0.51100000000E-03 0.  1.
        -12    1    3    3    0    0  0.48785976975E+01  0.68156068864E+01 -0.46710345090E+01  0.95954039054E+01  0.00000000000E+00 0.  1.
</event>
<event>
 7    1  0.2682317E-010  0.4778728E+02  0.7816164E-02  0.1312668E+00
        -11   -1    0    0    0    0  0.00000000000E+00  0.00000000000E+00  0.45593999997E+02  0.45594000000E+02  0.51100000000E-03 0. -1.
         11   -1    0    0    0    0 -0.00000000000E+00 -0.00000000000E+00 -0.45593999997E+02  0.45594000000E+02  0.51100000000E-03 0.  1.
    9900012    2    1    2    0    0 -0.31876000969E+02 -0.27597800268E+02 -0.10291000712E+02  0.47787277506E+02  0.20000029460E+02 0.  0.
         12    1    1    2    0    0  0.31876000969E+02  0.27597800268E+02  0.10291000712E+02  0.43400722494E+02  0.00000000000E+00 0. -1.
         11    1    3    3    0    0 -0.30708199739E+01 -0.47708866612E+01  0.25824004153E+01  0.62337859293E+01  0.51100000000E-03 0. -1.
        -11    1    3    3    0    0 -0.19336228175E+02 -0.13641189316E+02 -0.81070229603E+00  0.23677605547E+02  0.51100000000E-03 0.  1.
         12    1    3    3    0    0 -0.94689528197E+01 -0.91857242907E+01 -0.12062698831E+02  0.17875886029E+02  0.00000000000E+00 0. -1.
</event>
<event>
 7    1  0.2682317E-010  0.4778727E+02  0.7816164E-02  0.1312668E+00
        -11   -1    0    0    0    0  0.00000000000E+00  0.00000000000E+00  0.45593999997E+02  0.45594000000E+02  0.51100000000E-03 0.  1.
         11   -1    0    0    0    0 -0.00000000000E+00 -0.00000000000E+00 -0.45593999997E+02  0.45594000000E+02  0.51100000000E-03 0. -1.
    9900012    2    1    2    0    0 -0.25861758449E+02 -0.18038427929E+02  0.29822942595E+02  0.47787270314E+02  0.19999996672E+02 0.  0.
         12    1    1    2    0    0  0.25861758449E+02  0.18038427929E+02 -0.29822942595E+02  0.43400729686E+02  0.00000000000E+00 0. -1.
         11    1    3    3    0    0 -0.67557676639E+01 -0.45297276118E+01  0.54921131902E+01  0.98143841641E+01  0.51100000000E-03 0. -1.
        -11    1    3    3    0    0 -0.20252021418E+02 -0.15134716900E+02  0.17221763860E+02  0.30590736798E+02  0.51100000000E-03 0.  1.
         12    1    3    3    0    0  0.11460306331E+01  0.16260165823E+01  0.71090655445E+01  0.73821493519E+01  0.00000000000E+00 0. -1.
</event>
<event>
 7    1  0.2682317E-010  0.4778724E+02  0.7816164E-02  0.1312668E+00
        -11   -1    0    0    0    0  0.00000000000E+00  0.00000000000E+00  0.45593999997E+02  0.45594000000E+02  0.51100000000E-03 0. -1.
         11   -1    0    0    0    0 -0.00000000000E+00 -0.00000000000E+00 -0.45593999997E+02  0.45594000000E+02  0.51100000000E-03 0.  1.
    9900012    2    1    2    0    0 -0.20126738961E+02 -0.11824102127E+02 -0.36588671635E+02  0.47787240740E+02  0.19999861830E+02 0.  0.
         12    1    1    2    0    0  0.20126738961E+02  0.11824102127E+02  0.36588671635E+02  0.43400759260E+02  0.00000000000E+00 0. -1.
         11    1    3    3    0    0 -0.23908266397E+01  0.22540785358E+01 -0.89634745141E+01  0.95467689661E+01  0.51100000000E-03 0. -1.
        -11    1    3    3    0    0 -0.23409388951E+01 -0.17991714298E+01  0.13181751314E+01  0.32333571845E+01  0.51100000000E-03 0.  1.
        -12    1    3    3    0    0 -0.15394973426E+02 -0.12279009233E+02 -0.28943372253E+02  0.35007114590E+02  0.00000000000E+00 0.  1.
</event>
<event>
 7    1  0.2682317E-010  0.4778727E+02  0.7816164E-02  0.1312668E+00
        -11   -1    0    0    0    0  0.00000000000E+00  0.00000000000E+00  0.45593999997E+02  0.45594000000E+02  0.51100000000E-03 0.  1.
         11   -1    0    0    0    0 -0.00000000000E+00 -0.00000000000E+00 -0.45593999997E+02  0.45594000000E+02  0.51100000000E-03 0. -1.
    9900012    2    1    2    0    0  0.14390790704E+02  0.31697522201E+02  0.25919020188E+02  0.47787269842E+02  0.19999994517E+02 0.  0.
         12    1    1    2    0    0 -0.14390790704E+02 -0.31697522201E+02 -0.25919020188E+02  0.43400730158E+02  0.00000000000E+00 0. -1.
         11    1    3    3    0    0  0.30653381303E+01  0.22567501330E+01  0.52688981982E+01  0.65000390383E+01  0.51100000000E-03 0. -1.
        -11    1    3    3    0    0 -0.10507849426E+01  0.38735765967E+01 -0.24261406925E+01  0.46898724467E+01  0.51100000000E-03 0.  1.
        -12    1    3    3    0    0  0.12376237516E+02  0.25567195471E+02  0.23076262682E+02  0.36597358357E+02  0.00000000000E+00 0.  1.
</event>
<event>
 7    1  0.2682317E-010  0.4778727E+02  0.7816164E-02  0.1312668E+00
        -11   -1    0    0    0    0  0.00000000000E+00  0.00000000000E+00  0.45593999997E+02  0.45594000000E+02  0.51100000000E-03 0.  1.
         11   -1    0    0    0    0 -0.00000000000E+00 -0.00000000000E+00 -0.45593999997E+02  0.45594000000E+02  0.51100000000E-03 0. -1.
    9900012    2    1    2    0    0 -0.26659477414E+01  0.34175623956E+02  0.26618464456E+02  0.47787271894E+02  0.20000003874E+02 0.  0.
         12    1    1    2    0    0  0.26659477414E+01 -0.34175623956E+02 -0.26618464456E+02  0.43400728106E+02  0.00000000000E+00 0. -1.
         11    1    3    3    0    0 -0.47735731548E+00  0.37459415693E+01  0.94893140829E+01  0.10213081331E+02  0.51100000000E-03 0. -1.
        -11    1    3    3    0    0 -0.45130661457E+01  0.48595804664E+01  0.78426406363E+01  0.10270847129E+02  0.51100000000E-03 0.  1.
         12    1    3    3    0    0  0.23244757198E+01  0.25570101920E+02  0.92865097371E+01  0.27303343434E+02  0.00000000000E+00 0. -1.
</event>
<event>
 7    1  0.2682317E-010  0.4778727E+02  0.7816164E-02  0.1312668E+00
        -11   -1    0    0    0    0  0.00000000000E+00  0.00000000000E+00  0.45593999997E+02  0.45594000000E+02  0.51100000000E-03 0.  1.
         11   -1    0    0    0    0 -0.00000000000E+00 -0.00000000000E+00 -0.45593999997E+02  0.45594000000E+02  0.51100000000E-03 0. -1.
    9900012    2    1    2    0    0  0.12890989268E+01 -0.43340556208E+02  0.18861718589E+01  0.47787271518E+02  0.20000002159E+02 0.  0.
         12    1    1    2    0    0 -0.12890989268E+01  0.43340556208E+02 -0.18861718589E+01  0.43400728482E+02  0.00000000000E+00 0. -1.
         11    1    3    3    0    0  0.59950760146E+00  0.30008278360E+00 -0.12084986576E+00  0.68122242505E+00  0.51100000000E-03 0. -1.
        -11    1    3    3    0    0 -0.57230711067E+01 -0.30228479903E+02  0.67580540562E+01  0.31498981492E+02  0.51100000000E-03 0.  1.
        -12    1    3    3    0    0  0.64126624321E+01 -0.13412159089E+02 -0.47510323315E+01  0.15607067601E+02  0.00000000000E+00 0.  1.
</event>
<event>
 7    1  0.2682317E-010  0.4778727E+02  0.7816164E-02  0.1312668E+00
        -11   -1    0    0    0    0  0.00000000000E+00  0.00000000000E+00  0.45593999997E+02  0.45594000000E+02  0.51100000000E-03 0.  1.
         11   -1    0    0    0    0 -0.00000000000E+00 -0.00000000000E+00 -0.45593999997E+02  0.45594000000E+02  0.51100000000E-03 0. -1.
    9900012    2    1    2    0    0 -0.14073035556E+02  0.19214205048E+02  0.36282053115E+02  0.47787269780E+02  0.19999994235E+02 0.  0.
         12    1    1    2    0    0  0.14073035556E+02 -0.19214205048E+02 -0.36282053115E+02  0.43400730220E+02  0.00000000000E+00 0. -1.
         11    1    3    3    0    0 -0.13186024543E+02  0.10495497231E+02  0.18664086788E+02  0.25147064268E+02  0.51100000000E-03 0. -1.
        -11    1    3    3    0    0 -0.58392549581E+01  0.57711901038E+01  0.12364829568E+02  0.14842255361E+02  0.51100000000E-03 0.  1.
         12    1    3    3    0    0  0.49522439451E+01  0.29475177126E+01  0.52531367584E+01  0.77979501512E+01  0.00000000000E+00 0. -1.
</event>
