<event>
 7    1  0.9930326E-013  0.5052886E+02  0.7816164E-02  0.1300439E+00
        -11   -1    0    0    0    0  0.00000000000E+00  0.00000000000E+00  0.45593999997E+02  0.45594000000E+02  0.51100000000E-03 0.  1.
         11   -1    0    0    0    0 -0.00000000000E+00 -0.00000000000E+00 -0.45593999997E+02  0.45594000000E+02  0.51100000000E-03 0. -1.
    9900012    2    1    2    0    0  0.63595561169E+01  0.27838274455E+02 -0.28943953267E+02  0.50528857002E+02  0.29999991343E+02 0.  0.
        -12    1    1    2    0    0 -0.63595561169E+01 -0.27838274455E+02  0.28943953267E+02  0.40659142998E+02  0.00000000000E+00 0.  1.
         11    1    3    3    0    0  0.10226109102E+02  0.87451718330E+01 -0.11676795510E+02  0.17815692280E+02  0.51100000000E-03 0. -1.
        -11    1    3    3    0    0 -0.96556884824E+01  0.84592286642E+01 -0.16038760766E+02  0.20543434884E+02  0.51100000000E-03 0.  1.
        -12    1    3    3    0    0  0.57891354970E+01  0.10633873958E+02 -0.12283969898E+01  0.12169729838E+02  0.00000000000E+00 0.  1.
</event>
<event>
 7    1  0.9930326E-013  0.5052889E+02  0.7816164E-02  0.1300439E+00
        -11   -1    0    0    0    0  0.00000000000E+00  0.00000000000E+00  0.45593999997E+02  0.45594000000E+02  0.51100000000E-03 0.  1.
         11   -1    0    0    0    0 -0.00000000000E+00 -0.00000000000E+00 -0.45593999997E+02  0.45594000000E+02  0.51100000000E-03 0. -1.
    9900012    2    1    2    0    0  0.20694739440E+02  0.34688299695E+02 -0.46489684013E+01  0.50528889294E+02  0.30000089497E+02 0.  0.
        -12    1    1    2    0    0 -0.20694739440E+02 -0.34688299695E+02  0.46489684013E+01  0.40659110706E+02  0.00000000000E+00 0.  1.
         11    1    3    3    0    0  0.11357716745E+02  0.44376519897E+01 -0.65647833180E+01  0.13848713482E+02  0.51100000000E-03 0. -1.
        -11    1    3    3    0    0 -0.23210185374E+01  0.22121143044E+02 -0.57969028831E+00  0.22250126690E+02  0.51100000000E-03 0.  1.
        -12    1    3    3    0    0  0.11658041233E+02  0.81295046616E+01  0.24955052050E+01  0.14430049122E+02  0.00000000000E+00 0.  1.
</event>
<event>
 7    1  0.9930326E-013  0.5052885E+02  0.7816164E-02  0.1300439E+00
        -11   -1    0    0    0    0  0.00000000000E+00  0.00000000000E+00  0.45593999997E+02  0.45594000000E+02  0.51100000000E-03 0.  1.
         11   -1    0    0    0    0 -0.00000000000E+00 -0.00000000000E+00 -0.45593999997E+02  0.45594000000E+02  0.51100000000E-03 0. -1.
    9900012    2    1    2    0    0  0.12912519742E+02  0.36896670243E+02 -0.11183437096E+02  0.50528847200E+02  0.29999961549E+02 0.  0.
        -12    1    1    2    0    0 -0.12912519742E+02 -0.36896670243E+02  0.11183437096E+02  0.40659152800E+02  0.00000000000E+00 0.  1.
         11    1    3    3    0    0  0.12883051005E+02  0.50935004904E+01 -0.60141936472E+01  0.15102558589E+02  0.51100000000E-03 0. -1.
        -11    1    3    3    0    0  0.51489871745E+01  0.28323853266E+02 -0.33978737432E+01  0.28987898837E+02  0.51100000000E-03 0.  1.
         12    1    3    3    0    0 -0.51195184377E+01  0.34793164870E+01 -0.17713697051E+01  0.64383897740E+01  0.00000000000E+00 0. -1.
</event>
<event>
 7    1  0.9930326E-013  0.5052887E+02  0.7816164E-02  0.1300439E+00
        -11   -1    0    0    0    0  0.00000000000E+00  0.00000000000E+00  0.45593999997E+02  0.45594000000E+02  0.51100000000E-03 0.  1.
         11   -1    0    0    0    0 -0.00000000000E+00 -0.00000000000E+00 -0.45593999997E+02  0.45594000000E+02  0.51100000000E-03 0. -1.
    9900012    2    1    2    0    0  0.18181596948E+02  0.12425012876E+02 -0.34179135316E+02  0.50528871830E+02  0.30000036416E+02 0.  0.
        -12    1    1    2    0    0 -0.18181596948E+02 -0.12425012876E+02  0.34179135316E+02  0.40659128170E+02  0.00000000000E+00 0.  1.
         11    1    3    3    0    0  0.12274408530E+02  0.19279826959E+02 -0.20431495045E+02  0.30656464609E+02  0.51100000000E-03 0. -1.
        -11    1    3    3    0    0  0.45131307164E+01 -0.73899302322E+01 -0.15386244622E+02  0.17655479079E+02  0.51100000000E-03 0.  1.
         12    1    3    3    0    0  0.13940577024E+01  0.53511614864E+00  0.16386043500E+01  0.22169281418E+01  0.00000000000E+00 0. -1.
</event>
<event>
 7    1  0.9930326E-013  0.5052890E+02  0.7816164E-02  0.1300439E+00
        -11   -1    0    0    0    0  0.00000000000E+00  0.00000000000E+00  0.45593999997E+02  0.45594000000E+02  0.51100000000E-03 0. -1.
         11   -1    0    0    0    0 -0.00000000000E+00 -0.00000000000E+00 -0.45593999997E+02  0.45594000000E+02  0.51100000000E-03 0.  1.
    9900012    2    1    2    0    0 -0.21651536924E+02 -0.11907338000E+02  0.32289143647E+02  0.50528898352E+02  0.30000117030E+02 0.  0.
        -12    1    1    2    0    0  0.21651536924E+02  0.11907338000E+02 -0.32289143647E+02  0.40659101648E+02  0.00000000000E+00 0.  1.
         11    1    3    3    0    0 -0.15151507274E+02 -0.98022584121E+01  0.26434796852E+02  0.32007044967E+02  0.51100000000E-03 0. -1.
        -11    1    3    3    0    0 -0.37257366421E+01 -0.79760400043E+01 -0.12561940148E+01  0.88924884785E+01  0.51100000000E-03 0.  1.
        -12    1    3    3    0    0 -0.27742930074E+01  0.58709604159E+01  0.71105408092E+01  0.96293649062E+01  0.00000000000E+00 0.  1.
</event>
<event>
 7    1  0.9930326E-013  0.5052880E+02  0.7816164E-02  0.1300439E+00
        -11   -1    0    0    0    0  0.00000000000E+00  0.00000000000E+00  0.45593999997E+02  0.45594000000E+02  0.51100000000E-03 0.  1.
         11   -1    0    0    0    0 -0.00000000000E+00 -0.00000000000E+00 -0.45593999997E+02  0.45594000000E+02  0.51100000000E-03 0. -1.
    9900012    2    1    2    0    0 -0.12263143658E+02 -0.27867347267E+02 -0.26948039130E+02  0.50528799945E+02  0.29999817914E+02 0.  0.
        -12    1    1    2    0    0  0.12263143658E+02  0.27867347267E+02  0.26948039130E+02  0.40659200055E+02  0.00000000000E+00 0.  1.
         11    1    3    3    0    0 -0.16340371014E+01 -0.80040407159E+01 -0.25665798573E+01  0.85628311589E+01  0.51100000000E-03 0. -1.
        -11    1    3    3    0    0  0.71715097391E+01  0.28488019849E+00 -0.39024822815E+01  0.81695212151E+01  0.51100000000E-03 0.  1.
        -12    1    3    3    0    0 -0.17800616296E+02 -0.20148186750E+02 -0.20478976991E+02  0.33796447571E+02  0.00000000000E+00 0.  1.
</event>
<event>
 7    1  0.9930326E-013  0.5052892E+02  0.7816164E-02  0.1300439E+00
        -11   -1    0    0    0    0  0.00000000000E+00  0.00000000000E+00  0.45593999997E+02  0.45594000000E+02  0.51100000000E-03 0. -1.
         11   -1    0    0    0    0 -0.00000000000E+00 -0.00000000000E+00 -0.45593999997E+02  0.45594000000E+02  0.51100000000E-03 0.  1.
    9900012    2    1    2    0    0 -0.10296265959E+02  0.76832044950E+01  0.38576111407E+02  0.50528916202E+02  0.30000171287E+02 0.  0.
        -12    1    1    2    0    0  0.10296265959E+02 -0.76832044950E+01 -0.38576111407E+02  0.40659083798E+02  0.00000000000E+00 0.  1.
         11    1    3    3    0    0 -0.67730282781E+01 -0.81890352767E+01  0.26674888179E+02  0.28713827164E+02  0.51100000000E-03 0. -1.
        -11    1    3    3    0    0 -0.33330996097E+01  0.33471264064E+01  0.28628983907E+00  0.47323113086E+01  0.51100000000E-03 0.  1.
         12    1    3    3    0    0 -0.19013807136E+00  0.12525113365E+02  0.11614933389E+02  0.17082777729E+02  0.00000000000E+00 0. -1.
</event>
<event>
 7    1  0.9930326E-013  0.5052886E+02  0.7816164E-02  0.1300439E+00
        -11   -1    0    0    0    0  0.00000000000E+00  0.00000000000E+00  0.45593999997E+02  0.45594000000E+02  0.51100000000E-03 0. -1.
         11   -1    0    0    0    0 -0.00000000000E+00 -0.00000000000E+00 -0.45593999997E+02  0.45594000000E+02  0.51100000000E-03 0.  1.
    9900012    2    1    2    0    0  0.12360036711E+02 -0.28334303493E+01  0.38631159965E+02  0.50528863815E+02  0.30000012053E+02 0.  0.
        -12    1    1    2    0    0 -0.12360036711E+02  0.28334303493E+01 -0.38631159965E+02  0.40659136185E+02  0.00000000000E+00 0.  1.
         11    1    3    3    0    0  0.71820781627E+01 -0.31674434384E+01  0.36645969807E+02  0.37477220388E+02  0.51100000000E-03 0. -1.
        -11    1    3    3    0    0  0.50680964848E+01 -0.37927730625E+01 -0.26342198020E+01  0.68563724891E+01  0.51100000000E-03 0.  1.
        -12    1    3    3    0    0  0.10986206375E+00  0.41267861516E+01  0.46194099605E+01  0.61952709382E+01  0.00000000000E+00 0.  1.
</event>
<event>
 7    1  0.9930326E-013  0.5052887E+02  0.7816164E-02  0.1300439E+00
        -11   -1    0    0    0    0  0.00000000000E+00  0.00000000000E+00  0.45593999997E+02  0.45594000000E+02  0.51100000000E-03 0.  1.
         11   -1    0    0    0    0 -0.00000000000E+00 -0.00000000000E+00 -0.45593999997E+02  0.45594000000E+02  0.51100000000E-03 0. -1.
    9900012    2    1    2    0    0 -0.93680026170E+01 -0.17835247709E+02 -0.35317267910E+02  0.50528868842E+02  0.30000027332E+02 0.  0.
        -12    1    1    2    0    0  0.93680026170E+01  0.17835247709E+02  0.35317267910E+02  0.40659131158E+02  0.00000000000E+00 0.  1.
         11    1    3    3    0    0 -0.12736701440E+02 -0.27823660513E+01 -0.59299380657E+01  0.14322335360E+02  0.51100000000E-03 0. -1.
        -11    1    3    3    0    0  0.20655057316E+01 -0.78327011062E+01 -0.27447076311E+02  0.28617468770E+02  0.51100000000E-03 0.  1.
         12    1    3    3    0    0  0.13031930919E+01 -0.72201805518E+01 -0.19402535338E+01  0.75890647125E+01  0.00000000000E+00 0. -1.
</event>
<event>
 7    1  0.9930326E-013  0.5052886E+02  0.7816164E-02  0.1300439E+00
        -11   -1    0    0    0    0  0.00000000000E+00  0.00000000000E+00  0.45593999997E+02  0.45594000000E+02  0.51100000000E-03 0.  1.
         11   -1    0    0    0    0 -0.00000000000E+00 -0.00000000000E+00 -0.45593999997E+02  0.45594000000E+02  0.51100000000E-03 0. -1.
    9900012    2    1    2    0    0 -0.85147861653E+01  0.33880570623E+02 -0.20803146764E+02  0.50528861243E+02  0.30000004234E+02 0.  0.
        -12    1    1    2    0    0  0.85147861653E+01 -0.33880570623E+02  0.20803146764E+02  0.40659138757E+02  0.00000000000E+00 0.  1.
         11    1    3    3    0    0 -0.78792831168E+01  0.15688595225E+02 -0.96771126820E+01  0.20046486791E+02  0.51100000000E-03 0. -1.
        -11    1    3    3    0    0  0.20758466988E+01  0.26327322766E-01  0.53935935056E+01  0.57793324709E+01  0.51100000000E-03 0.  1.
        -12    1    3    3    0    0 -0.27113497473E+01  0.18165648076E+02 -0.16519627587E+02  0.24703041981E+02  0.00000000000E+00 0.  1.
</event>
<event>
 7    1  0.9930326E-013  0.5052881E+02  0.7816164E-02  0.1300439E+00
        -11   -1    0    0    0    0  0.00000000000E+00  0.00000000000E+00  0.45593999997E+02  0.45594000000E+02  0.51100000000E-03 0.  1.
         11   -1    0    0    0    0 -0.00000000000E+00 -0.00000000000E+00 -0.45593999997E+02  0.45594000000E+02  0.51100000000E-03 0. -1.
    9900012    2    1    2    0    0 -0.35228885398E+02 -0.19034628339E+01 -0.20210686675E+02  0.50528814162E+02  0.29999861127E+02 0.  0.
        -12    1    1    2    0    0  0.35228885398E+02  0.19034628339E+01  0.20210686675E+02  0.40659185838E+02  0.00000000000E+00 0.  1.
         11    1    3    3    0    0 -0.19692332026E+02  0.66781140802E+01 -0.18079277862E+02  0.27554408659E+02  0.51100000000E-03 0. -1.
        -11    1    3    3    0    0 -0.10446326277E+02 -0.52503886482E+01  0.57413277086E+01  0.13025174001E+02  0.51100000000E-03 0.  1.
         12    1    3    3    0    0 -0.50902270944E+01 -0.33311882659E+01 -0.78727365218E+01  0.99492315018E+01  0.00000000000E+00 0. -1.
</event>
<event>
 7    1  0.9930326E-013  0.5052886E+02  0.7816164E-02  0.1300439E+00
        -11   -1    0    0    0    0  0.00000000000E+00  0.00000000000E+00  0.45593999997E+02  0.45594000000E+02  0.51100000000E-03 0.  1.
         11   -1    0    0    0    0 -0.00000000000E+00 -0.00000000000E+00 -0.45593999997E+02  0.45594000000E+02  0.51100000000E-03 0. -1.
    9900012    2    1    2    0    0  0.21908040136E+02  0.82099859965E+01 -0.33253564525E+02  0.50528860237E+02  0.30000001176E+02 0.  0.
        -12    1    1    2    0    0 -0.21908040136E+02 -0.82099859965E+01  0.33253564525E+02  0.40659139763E+02  0.00000000000E+00 0.  1.
         11    1    3    3    0    0  0.19708183075E+02  0.15304914756E+02 -0.27152189566E+02  0.36876744627E+02  0.51100000000E-03 0. -1.
        -11    1    3    3    0    0 -0.12084862309E+01 -0.49131120533E+01 -0.77721554671E+01  0.92739155638E+01  0.51100000000E-03 0.  1.
        -12    1    3    3    0    0  0.34083432916E+01 -0.21818167064E+01  0.16707805079E+01  0.43782000456E+01  0.00000000000E+00 0.  1.
</event>
<event>
 7    1  0.9930326E-013  0.5052886E+02  0.7816164E-02  0.1300439E+00
        -11   -1    0    0    0    0  0.00000000000E+00  0.00000000000E+00  0.45593999997E+02  0.45594000000E+02  0.51100000000E-03 0.  1.
         11   -1    0    0    0    0 -0.00000000000E+00 -0.00000000000E+00 -0.45593999997E+02  0.45594000000E+02  0.51100000000E-03 0. -1.
    9900012    2    1    2    0    0 -0.51991043488E+01  0.11983691856E+02 -0.38503582206E+02  0.50528863275E+02  0.30000010411E+02 0.  0.
        -12    1    1    2    0    0  0.51991043488E+01 -0.11983691856E+02  0.38503582206E+02  0.40659136725E+02  0.00000000000E+00 0.  1.
         11    1    3    3    0    0  0.72287447001E+01 -0.50579298523E+01 -0.21736974730E+02  0.23459187433E+02  0.51100000000E-03 0. -1.
        -11    1    3    3    0    0 -0.93319273367E+01  0.10718446022E+02 -0.11213220732E+02  0.18102659263E+02  0.51100000000E-03 0.  1.
         12    1    3    3    0    0 -0.30959217122E+01  0.63231756858E+01 -0.55533867435E+01  0.89670165788E+01  0.00000000000E+00 0. -1.
</event>
<event>
 7    1  0.9930326E-013  0.5052886E+02  0.7816164E-02  0.1300439E+00
        -11   -1    0    0    0    0  0.00000000000E+00  0.00000000000E+00  0.45593999997E+02  0.45594000000E+02  0.51100000000E-03 0.  1.
         11   -1    0    0    0    0 -0.00000000000E+00 -0.00000000000E+00 -0.45593999997E+02  0.45594000000E+02  0.51100000000E-03 0. -1.
    9900012    2    1    2    0    0  0.87269569890E+01 -0.85414008046E+01 -0.38782084050E+02  0.50528863890E+02  0.30000012280E+02 0.  0.
        -12    1    1    2    0    0 -0.87269569890E+01  0.85414008046E+01  0.38782084050E+02  0.40659136110E+02  0.00000000000E+00 0.  1.
         11    1    3    3    0    0  0.81588917257E+01  0.18577664122E+01 -0.17956650852E+02  0.19810606258E+02  0.51100000000E-03 0. -1.
        -11    1    3    3    0    0 -0.94457919527E+00 -0.64826404241E+01  0.25045285735E+01  0.70135241042E+01  0.51100000000E-03 0.  1.
        -12    1    3    3    0    0  0.15126444586E+01 -0.39165267927E+01 -0.23329961771E+02  0.23704733528E+02  0.00000000000E+00 0.  1.
</event>
<event>
 7    1  0.9930326E-013  0.5052884E+02  0.7816164E-02  0.1300439E+00
        -11   -1    0    0    0    0  0.00000000000E+00  0.00000000000E+00  0.45593999997E+02  0.45594000000E+02  0.51100000000E-03 0. -1.
         11   -1    0    0    0    0 -0.00000000000E+00 -0.00000000000E+00 -0.45593999997E+02  0.45594000000E+02  0.51100000000E-03 0.  1.
    9900012    2    1    2    0    0  0.17911153879E+02 -0.36892457427E+01  0.36314559683E+02  0.50528840977E+02  0.29999942634E+02 0.  0.
        -12    1    1    2    0    0 -0.17911153879E+02  0.36892457427E+01 -0.36314559683E+02  0.40659159023E+02  0.00000000000E+00 0.  1.
         11    1    3    3    0    0  0.17113135149E+02  0.37688995277E+01  0.34139218984E+02  0.38373822736E+02  0.51100000000E-03 0. -1.
        -11    1    3    3    0    0 -0.61631550320E+00 -0.24761748792E+01 -0.35904725534E+01  0.44048587094E+01  0.51100000000E-03 0.  1.
        -12    1    3    3    0    0  0.14143342338E+01 -0.49819703912E+01  0.57658132528E+01  0.77501595319E+01  0.00000000000E+00 0.  1.
</event>
<event>
 7    1  0.9930326E-013  0.5052885E+02  0.7816164E-02  0.1300439E+00
        -11   -1    0    0    0    0  0.00000000000E+00  0.00000000000E+00  0.45593999997E+02  0.45594000000E+02  0.51100000000E-03 0.  1.
         11   -1    0    0    0    0 -0.00000000000E+00 -0.00000000000E+00 -0.45593999997E+02  0.45594000000E+02  0.51100000000E-03 0. -1.
    9900012    2    1    2    0    0  0.17594041482E+02  0.91797677254E+01 -0.35487294646E+02  0.50528849585E+02  0.29999968798E+02 0.  0.
        -12    1    1    2    0    0 -0.17594041482E+02 -0.91797677254E+01  0.35487294646E+02  0.40659150415E+02  0.00000000000E+00 0.  1.
         11    1    3    3    0    0  0.31687020039E+01  0.36041924756E+01 -0.24870684553E+02  0.25329465572E+02  0.51100000000E-03 0. -1.
        -11    1    3    3    0    0  0.16347042407E+02  0.85904567095E+01 -0.11169061317E+02  0.21581697637E+02  0.51100000000E-03 0.  1.
         12    1    3    3    0    0 -0.19217029283E+01 -0.30148814598E+01  0.55245122313E+00  0.36176863760E+01  0.00000000000E+00 0. -1.
</event>
<event>
 7    1  0.9930326E-013  0.5052889E+02  0.7816164E-02  0.1300439E+00
        -11   -1    0    0    0    0  0.00000000000E+00  0.00000000000E+00  0.45593999997E+02  0.45594000000E+02  0.51100000000E-03 0.  1.
         11   -1    0    0    0    0 -0.00000000000E+00 -0.00000000000E+00 -0.45593999997E+02  0.45594000000E+02  0.51100000000E-03 0. -1.
    9900012    2    1    2    0    0  0.94002148428E+01 -0.84836722056E+01 -0.38637117266E+02  0.50528885845E+02  0.30000079015E+02 0.  0.
        -12    1    1    2    0    0 -0.94002148428E+01  0.84836722056E+01  0.38637117266E+02  0.40659114155E+02  0.00000000000E+00 0.  1.
         11    1    3    3    0    0  0.11868943205E+02 -0.70341884106E+01 -0.11482407972E+02  0.17949855501E+02  0.51100000000E-03 0. -1.
        -11    1    3    3    0    0  0.24951552136E+01  0.72884685727E+01 -0.14499743193E+02  0.16419199938E+02  0.51100000000E-03 0.  1.
        -12    1    3    3    0    0 -0.49638835761E+01 -0.87379523677E+01 -0.12654966101E+02  0.16159830406E+02  0.00000000000E+00 0.  1.
</event>
<event>
 7    1  0.9930326E-013  0.5052888E+02  0.7816164E-02  0.1300439E+00
        -11   -1    0    0    0    0  0.00000000000E+00  0.00000000000E+00  0.45593999997E+02  0.45594000000E+02  0.51100000000E-03 0.  1.
         11   -1    0    0    0    0 -0.00000000000E+00 -0.00000000000E+00 -0.45593999997E+02  0.45594000000E+02  0.51100000000E-03 0. -1.
    9900012    2    1    2    0    0  0.98345021189E+01 -0.70281243068E+01 -0.38820772595E+02  0.50528876201E+02  0.30000049701E+02 0.  0.
        -12    1    1    2    0    0 -0.98345021189E+01  0.70281243068E+01  0.38820772595E+02  0.40659123799E+02  0.00000000000E+00 0.  1.
         11    1    3    3    0    0  0.12528549319E+02  0.73634755454E+01 -0.26677233078E+02  0.30378612297E+02  0.51100000000E-03 0. -1.
        -11    1    3    3    0    0 -0.36444992976E+01 -0.64192500502E+01 -0.87123046546E+01  0.11418992906E+02  0.51100000000E-03 0.  1.
         12    1    3    3    0    0  0.95045209769E+00 -0.79723498020E+01 -0.34312348624E+01  0.87312709978E+01  0.00000000000E+00 0. -1.
</event>
<event>
 7    1  0.9930326E-013  0.5052886E+02  0.7816164E-02  0.1300439E+00
        -11   -1    0    0    0    0  0.00000000000E+00  0.00000000000E+00  0.45593999997E+02  0.45594000000E+02  0.51100000000E-03 0. -1.
         11   -1    0    0    0    0 -0.00000000000E+00 -0.00000000000E+00 -0.45593999997E+02  0.45594000000E+02  0.51100000000E-03 0.  1.
    9900012    2    1    2    0    0  0.18298433934E+02 -0.37028408788E+01  0.36119548287E+02  0.50528862239E+02  0.30000007261E+02 0.  0.
        -12    1    1    2    0    0 -0.18298433934E+02  0.37028408788E+01 -0.36119548287E+02  0.40659137761E+02  0.00000000000E+00 0.  1.
         11    1    3    3    0    0  0.43429748481E+01 -0.10947525713E+02  0.10674719686E+01  0.11825787349E+02  0.51100000000E-03 0. -1.
        -11    1    3    3    0    0  0.47145937562E+01  0.13413487637E+01  0.15849316827E+02  0.16589980558E+02  0.51100000000E-03 0.  1.
         12    1    3    3    0    0  0.92408653296E+01  0.59033360701E+01  0.19202759492E+02  0.22113094331E+02  0.00000000000E+00 0. -1.
</event>
<event>
 7    1  0.9930326E-013  0.5052890E+02  0.7816164E-02  0.1300439E+00
        -11   -1    0    0    0    0  0.00000000000E+00  0.00000000000E+00  0.45593999997E+02  0.45594000000E+02  0.51100000000E-03 0.  1.
         11   -1    0    0    0    0 -0.00000000000E+00 -0.00000000000E+00 -0.45593999997E+02  0.45594000000E+02  0.51100000000E-03 0. -1.
    9900012    2    1    2    0    0  0.39013776750E+02  0.90478906267E+01 -0.70159115254E+01  0.50528903655E+02  0.30000133149E+02 0.  0.
        -12    1    1    2    0    0 -0.39013776750E+02 -0.90478906267E+01  0.70159115254E+01  0.40659096345E+02  0.00000000000E+00 0.  1.
         11    1    3    3    0    0  0.12720978935E+02  0.46802450141E+01 -0.56164721024E+01  0.14672176307E+02  0.51100000000E-03 0. -1.
        -11    1    3    3    0    0  0.12094197238E+02 -0.98896306143E+01 -0.18375289290E+01  0.15730572569E+02  0.51100000000E-03 0.  1.
        -12    1    3    3    0    0  0.14198600577E+02  0.14257276227E+02  0.43808950603E+00  0.20126154779E+02  0.00000000000E+00 0.  1.
</event>
<event>
 7    1  0.9930326E-013  0.5052886E+02  0.7816164E-02  0.1300439E+00
        -11   -1    0    0    0    0  0.00000000000E+00  0.00000000000E+00  0.45593999997E+02  0.45594000000E+02  0.51100000000E-03 0. -1.
         11   -1    0    0    0    0 -0.00000000000E+00 -0.00000000000E+00 -0.45593999997E+02  0.45594000000E+02  0.51100000000E-03 0.  1.
    9900012    2    1    2    0    0  0.28688041833E+02  0.28769150180E+02 -0.15804199003E+01  0.50528862363E+02  0.30000007640E+02 0.  0.
        -12    1    1    2    0    0 -0.28688041833E+02 -0.28769150180E+02  0.15804199003E+01  0.40659137637E+02  0.00000000000E+00 0.  1.
         11    1    3    3    0    0  0.19904325170E+02  0.13274391418E+02  0.81166979061E+01  0.25264053775E+02  0.51100000000E-03 0. -1.
        -11    1    3    3    0    0  0.48867093323E+01  0.84277460684E+01 -0.13250934856E+02  0.16446705041E+02  0.51100000000E-03 0.  1.
        -12    1    3    3    0    0  0.38970073304E+01  0.70670126935E+01  0.35538170495E+01  0.88181035469E+01  0.00000000000E+00 0.  1.
</event>
<event>
 7    1  0.9930326E-013  0.5052886E+02  0.7816164E-02  0.1300439E+00
        -11   -1    0    0    0    0  0.00000000000E+00  0.00000000000E+00  0.45593999997E+02  0.45594000000E+02  0.51100000000E-03 0.  1.
         11   -1    0    0    0    0 -0.00000000000E+00 -0.00000000000E+00 -0.45593999997E+02  0.45594000000E+02  0.51100000000E-03 0. -1.
    9900012    2    1    2    0    0 -0.21826797703E+02  0.30935947476E+02 -0.14823080873E+02  0.50528859936E+02  0.30000000260E+02 0.  0.
        -12    1    1    2    0    0  0.21826797703E+02 -0.30935947476E+02  0.14823080873E+02  0.40659140064E+02  0.00000000000E+00 0.  1.
         11    1    3    3    0    0 -0.29161958962E+01  0.13694742940E+01 -0.66461955381E+01  0.73859037184E+01  0.51100000000E-03 0. -1.
        -11    1    3    3    0    0 -0.70721518456E+01  0.29690226890E+02 -0.57586144668E+01  0.31059403493E+02  0.51100000000E-03 0.  1.
        -12    1    3    3    0    0 -0.11838449961E+02 -0.12375370731E+00 -0.24182708681E+01  0.12083552725E+02  0.00000000000E+00 0.  1.
</event>
<event>
 7    1  0.9930326E-013  0.5052886E+02  0.7816164E-02  0.1300439E+00
        -11   -1    0    0    0    0  0.00000000000E+00  0.00000000000E+00  0.45593999997E+02  0.45594000000E+02  0.51100000000E-03 0. -1.
         11   -1    0    0    0    0 -0.00000000000E+00 -0.00000000000E+00 -0.45593999997E+02  0.45594000000E+02  0.51100000000E-03 0.  1.
    9900012    2    1    2    0    0 -0.21413299652E+02  0.30522001734E+02  0.16218625005E+02  0.50528858483E+02  0.29999995846E+02 0.  0.
        -12    1    1    2    0    0  0.21413299652E+02 -0.30522001734E+02 -0.16218625005E+02  0.40659141517E+02  0.00000000000E+00 0.  1.
         11    1    3    3    0    0 -0.14406780056E+02  0.64855715173E+01 -0.41268098728E+01  0.16329375661E+02  0.51100000000E-03 0. -1.
        -11    1    3    3    0    0 -0.18404607954E+01  0.19106908123E+02  0.10041533289E+02  0.21663185939E+02  0.51100000000E-03 0.  1.
        -12    1    3    3    0    0 -0.51660588002E+01  0.49295220932E+01  0.10303901589E+02  0.12536296883E+02  0.00000000000E+00 0.  1.
</event>
<event>
 7    1  0.9930326E-013  0.5052885E+02  0.7816164E-02  0.1300439E+00
        -11   -1    0    0    0    0  0.00000000000E+00  0.00000000000E+00  0.45593999997E+02  0.45594000000E+02  0.51100000000E-03 0.  1.
         11   -1    0    0    0    0 -0.00000000000E+00 -0.00000000000E+00 -0.45593999997E+02  0.45594000000E+02  0.51100000000E-03 0. -1.
    9900012    2    1    2    0    0 -0.27351254748E+02  0.70280638798E+01 -0.29252036037E+02  0.50528850593E+02  0.29999971862E+02 0.  0.
        -12    1    1    2    0    0  0.27351254748E+02 -0.70280638798E+01  0.29252036037E+02  0.40659149407E+02  0.00000000000E+00 0.  1.
         11    1    3    3    0    0 -0.16200860655E+02  0.28256509420E+01 -0.16393998395E+02  0.23221011452E+02  0.51100000000E-03 0. -1.
        -11    1    3    3    0    0  0.52433433436E+01 -0.31122545315E+01 -0.39748209947E+01  0.72785973847E+01  0.51100000000E-03 0.  1.
        -12    1    3    3    0    0 -0.16393737436E+02  0.73146674693E+01 -0.88832166477E+01  0.20029241756E+02  0.00000000000E+00 0.  1.
</event>
<event>
 7    1  0.9930326E-013  0.5052886E+02  0.7816164E-02  0.1300439E+00
        -11   -1    0    0    0    0  0.00000000000E+00  0.00000000000E+00  0.45593999997E+02  0.45594000000E+02  0.51100000000E-03 0.  1.
         11   -1    0    0    0    0 -0.00000000000E+00 -0.00000000000E+00 -0.45593999997E+02  0.45594000000E+02  0.51100000000E-03 0. -1.
    9900012    2    1    2    0    0 -0.44970547194E+01  0.20891735651E+02 -0.34590141091E+02  0.50528856129E+02  0.29999988689E+02 0.  0.
        -12    1    1    2    0    0  0.44970547194E+01 -0.20891735651E+02  0.34590141091E+02  0.40659143871E+02  0.00000000000E+00 0.  1.
         11    1    3    3    0    0 -0.15387512075E+02  0.60938403228E+01 -0.17631294690E+02  0.24182079531E+02  0.51100000000E-03 0. -1.
        -11    1    3    3    0    0  0.10946024516E+02  0.97893667836E+01 -0.14932984692E+02  0.20943762480E+02  0.51100000000E-03 0.  1.
        -12    1    3    3    0    0 -0.55567161147E-01  0.50085285449E+01 -0.20258617082E+01  0.54030141176E+01  0.00000000000E+00 0.  1.
</event>
<event>
 7    1  0.9930326E-013  0.5052886E+02  0.7816164E-02  0.1300439E+00
        -11   -1    0    0    0    0  0.00000000000E+00  0.00000000000E+00  0.45593999997E+02  0.45594000000E+02  0.51100000000E-03 0.  1.
         11   -1    0    0    0    0 -0.00000000000E+00 -0.00000000000E+00 -0.45593999997E+02  0.45594000000E+02  0.51100000000E-03 0. -1.
    9900012    2    1    2    0    0  0.19307952534E+02 -0.29315970221E+02 -0.20516877670E+02  0.50528863138E+02  0.30000009993E+02 0.  0.
        -12    1    1    2    0    0 -0.19307952534E+02  0.29315970221E+02  0.20516877670E+02  0.40659136862E+02  0.00000000000E+00 0.  1.
         11    1    3    3    0    0 -0.32901235548E+00 -0.77125625514E+01 -0.41544149999E+00  0.77307478383E+01  0.51100000000E-03 0. -1.
        -11    1    3    3    0    0  0.18942777059E+02 -0.39939117687E+01 -0.14881861217E+02  0.24418229409E+02  0.51100000000E-03 0.  1.
        -12    1    3    3    0    0  0.69418783039E+00 -0.17609495901E+02 -0.52195749524E+01  0.18379885890E+02  0.00000000000E+00 0.  1.
</event>
<event>
 7    1  0.9930326E-013  0.5052885E+02  0.7816164E-02  0.1300439E+00
        -11   -1    0    0    0    0  0.00000000000E+00  0.00000000000E+00  0.45593999997E+02  0.45594000000E+02  0.51100000000E-03 0.  1.
         11   -1    0    0    0    0 -0.00000000000E+00 -0.00000000000E+00 -0.45593999997E+02  0.45594000000E+02  0.51100000000E-03 0. -1.
    9900012    2    1    2    0    0  0.27449285555E+01  0.88261916025E+01 -0.39594575144E+02  0.50528847626E+02  0.29999962843E+02 0.  0.
        -12    1    1    2    0    0 -0.27449285555E+01 -0.88261916025E+01  0.39594575144E+02  0.40659152374E+02  0.00000000000E+00 0.  1.
         11    1    3    3    0    0  0.34386695875E+01  0.36998592598E+01 -0.58228731290E+00  0.50845320188E+01  0.51100000000E-03 0.  1.
        -11    1    3    3    0    0 -0.95102437621E+01  0.93378288213E+01 -0.25452551010E+02  0.28731030902E+02  0.51100000000E-03 0. -1.
         12    1    3    3    0    0  0.88165027301E+01 -0.42114964785E+01 -0.13559736821E+02  0.16713284705E+02  0.00000000000E+00 0. -1.
</event>
<event>
 7    1  0.9930326E-013  0.5052885E+02  0.7816164E-02  0.1300439E+00
        -11   -1    0    0    0    0  0.00000000000E+00  0.00000000000E+00  0.45593999997E+02  0.45594000000E+02  0.51100000000E-03 0.  1.
         11   -1    0    0    0    0 -0.00000000000E+00 -0.00000000000E+00 -0.45593999997E+02  0.45594000000E+02  0.51100000000E-03 0. -1.
    9900012    2    1    2    0    0 -0.38163200189E+02 -0.12303712458E+02 -0.67346287882E+01  0.50528850798E+02  0.29999972485E+02 0.  0.
        -12    1    1    2    0    0  0.38163200189E+02  0.12303712458E+02  0.67346287882E+01  0.40659149202E+02  0.00000000000E+00 0.  1.
         11    1    3    3    0    0 -0.72838374920E+01 -0.14183317357E+01  0.23558857639E+01  0.77856375151E+01  0.51100000000E-03 0. -1.
        -11    1    3    3    0    0 -0.95851901659E+01 -0.14367900130E+02 -0.11913890790E+02  0.20982211959E+02  0.51100000000E-03 0.  1.
        -12    1    3    3    0    0 -0.21294172531E+02  0.34825194076E+01  0.28233762383E+01  0.21761001323E+02  0.00000000000E+00 0.  1.
</event>
<event>
 7    1  0.9930326E-013  0.5052887E+02  0.7816164E-02  0.1300439E+00
        -11   -1    0    0    0    0  0.00000000000E+00  0.00000000000E+00  0.45593999997E+02  0.45594000000E+02  0.51100000000E-03 0. -1.
         11   -1    0    0    0    0 -0.00000000000E+00 -0.00000000000E+00 -0.45593999997E+02  0.45594000000E+02  0.51100000000E-03 0.  1.
    9900012    2    1    2    0    0 -0.24357888740E+02 -0.22896625956E+02  0.23143092230E+02  0.50528868898E+02  0.30000027502E+02 0.  0.
        -12    1    1    2    0    0  0.24357888740E+02  0.22896625956E+02 -0.23143092230E+02  0.40659131102E+02  0.00000000000E+00 0.  1.
         11    1    3    3    0    0 -0.17903996816E+02  0.10471975863E+01  0.88959337574E+01  0.20019674384E+02  0.51100000000E-03 0. -1.
        -11    1    3    3    0    0 -0.20623997508E+00 -0.44211940049E+01 -0.14865744390E+01  0.46689822424E+01  0.51100000000E-03 0.  1.
         12    1    3    3    0    0 -0.62476519492E+01 -0.19522629537E+02  0.15733732911E+02  0.25840212271E+02  0.00000000000E+00 0. -1.
</event>
<event>
 7    1  0.9930326E-013  0.5052886E+02  0.7816164E-02  0.1300439E+00
        -11   -1    0    0    0    0  0.00000000000E+00  0.00000000000E+00  0.45593999997E+02  0.45594000000E+02  0.51100000000E-03 0. -1.
         11   -1    0    0    0    0 -0.00000000000E+00 -0.00000000000E+00 -0.45593999997E+02  0.45594000000E+02  0.51100000000E-03 0.  1.
    9900012    2    1    2    0    0  0.38473966610E+02 -0.12792836074E+02  0.30434525890E+01  0.50528863693E+02  0.30000011683E+02 0.  0.
        -12    1    1    2    0    0 -0.38473966610E+02  0.12792836074E+02 -0.30434525890E+01  0.40659136307E+02  0.00000000000E+00 0.  1.
         11    1    3    3    0    0  0.18506145858E+02  0.15626665056E+01  0.54079878358E+01  0.19343363043E+02  0.51100000000E-03 0. -1.
        -11    1    3    3    0    0  0.16657796529E+02 -0.19069634346E+02 -0.15494579459E+01  0.25367971134E+02  0.51100000000E-03 0.  1.
        -12    1    3    3    0    0  0.33100242236E+01  0.47141317662E+01 -0.81507730084E+00  0.58175295166E+01  0.00000000000E+00 0.  1.
</event>
<event>
 7    1  0.9930326E-013  0.5052886E+02  0.7816164E-02  0.1300439E+00
        -11   -1    0    0    0    0  0.00000000000E+00  0.00000000000E+00  0.45593999997E+02  0.45594000000E+02  0.51100000000E-03 0.  1.
         11   -1    0    0    0    0 -0.00000000000E+00 -0.00000000000E+00 -0.45593999997E+02  0.45594000000E+02  0.51100000000E-03 0. -1.
    9900012    2    1    2    0    0  0.20063131279E+02  0.35159908868E+02  0.37970038482E+01  0.50528859987E+02  0.30000000418E+02 0.  0.
        -12    1    1    2    0    0 -0.20063131279E+02 -0.35159908868E+02 -0.37970038482E+01  0.40659140013E+02  0.00000000000E+00 0.  1.
         11    1    3    3    0    0  0.92856718258E+01  0.18744044047E+02 -0.80191436287E+01  0.22402445253E+02  0.51100000000E-03 0. -1.
        -11    1    3    3    0    0 -0.94377750911E+00  0.57885887770E+01  0.10778299154E+02  0.12270705315E+02  0.51100000000E-03 0.  1.
        -12    1    3    3    0    0  0.11721236963E+02  0.10627276044E+02  0.10378483227E+01  0.15855709419E+02  0.00000000000E+00 0.  1.
</event>
<event>
 7    1  0.9930326E-013  0.5052884E+02  0.7816164E-02  0.1300439E+00
        -11   -1    0    0    0    0  0.00000000000E+00  0.00000000000E+00  0.45593999997E+02  0.45594000000E+02  0.51100000000E-03 0.  1.
         11   -1    0    0    0    0 -0.00000000000E+00 -0.00000000000E+00 -0.45593999997E+02  0.45594000000E+02  0.51100000000E-03 0. -1.
    9900012    2    1    2    0    0 -0.39357876376E+02  0.10194668209E+02  0.43991331407E+00  0.50528840928E+02  0.29999942484E+02 0.  0.
        -12    1    1    2    0    0  0.39357876376E+02 -0.10194668209E+02 -0.43991331407E+00  0.40659159072E+02  0.00000000000E+00 0.  1.
         11    1    3    3    0    0 -0.37971429766E+02  0.81160324741E+01 -0.39813966693E+01  0.39032691187E+02  0.51100000000E-03 0. -1.
        -11    1    3    3    0    0 -0.76046748580E+00 -0.51480848503E+00  0.74233438622E+01  0.74799313453E+01  0.51100000000E-03 0.  1.
        -12    1    3    3    0    0 -0.62597912395E+00  0.25934442203E+01 -0.30020338788E+01  0.40162183950E+01  0.00000000000E+00 0.  1.
</event>
<event>
 7    1  0.9930326E-013  0.5052886E+02  0.7816164E-02  0.1300439E+00
        -11   -1    0    0    0    0  0.00000000000E+00  0.00000000000E+00  0.45593999997E+02  0.45594000000E+02  0.51100000000E-03 0. -1.
         11   -1    0    0    0    0 -0.00000000000E+00 -0.00000000000E+00 -0.45593999997E+02  0.45594000000E+02  0.51100000000E-03 0.  1.
    9900012    2    1    2    0    0 -0.10021906363E+02 -0.25957418359E+02  0.29646908024E+02  0.50528864121E+02  0.30000012983E+02 0.  0.
        -12    1    1    2    0    0  0.10021906363E+02  0.25957418359E+02 -0.29646908024E+02  0.40659135879E+02  0.00000000000E+00 0.  1.
         11    1    3    3    0    0 -0.14258126417E+02 -0.26174803453E+02  0.16565476280E+02  0.34100286060E+02  0.51100000000E-03 0. -1.
        -11    1    3    3    0    0  0.55068549211E+01  0.14395927875E+01  0.13470000295E+02  0.14623227644E+02  0.51100000000E-03 0.  1.
        -12    1    3    3    0    0 -0.12706348665E+01 -0.12222076935E+01 -0.38856855058E+00  0.18053504171E+01  0.00000000000E+00 0.  1.
</event>
<event>
 7    1  0.9930326E-013  0.5052894E+02  0.7816164E-02  0.1300439E+00
        -11   -1    0    0    0    0  0.00000000000E+00  0.00000000000E+00  0.45593999997E+02  0.45594000000E+02  0.51100000000E-03 0. -1.
         11   -1    0    0    0    0 -0.00000000000E+00 -0.00000000000E+00 -0.45593999997E+02  0.45594000000E+02  0.51100000000E-03 0.  1.
    9900012    2    1    2    0    0  0.13886014386E+02  0.29878813992E+02  0.23824235568E+02  0.50528940474E+02  0.30000245064E+02 0.  0.
        -12    1    1    2    0    0 -0.13886014386E+02 -0.29878813992E+02 -0.23824235568E+02  0.40659059526E+02  0.00000000000E+00 0.  1.
         11    1    3    3    0    0  0.24862414313E+01  0.64019810853E+01  0.65110656788E+01  0.94636533541E+01  0.51100000000E-03 0. -1.
        -11    1    3    3    0    0  0.59907739021E+01  0.22578107565E+02  0.48290861844E+00  0.23364364193E+02  0.51100000000E-03 0.  1.
        -12    1    3    3    0    0  0.54089990530E+01  0.89872534170E+00  0.16830261271E+02  0.17700922926E+02  0.00000000000E+00 0.  1.
</event>
<event>
 7    1  0.9930326E-013  0.5052886E+02  0.7816164E-02  0.1300439E+00
        -11   -1    0    0    0    0  0.00000000000E+00  0.00000000000E+00  0.45593999997E+02  0.45594000000E+02  0.51100000000E-03 0.  1.
         11   -1    0    0    0    0 -0.00000000000E+00 -0.00000000000E+00 -0.45593999997E+02  0.45594000000E+02  0.51100000000E-03 0. -1.
    9900012    2    1    2    0    0 -0.22822759307E+01 -0.12519762250E+02 -0.38616222775E+02  0.50528857220E+02  0.29999992005E+02 0.  0.
        -12    1    1    2    0    0  0.22822759307E+01  0.12519762250E+02  0.38616222775E+02  0.40659142780E+02  0.00000000000E+00 0.  1.
         11    1    3    3    0    0 -0.89910842605E+01 -0.42863125608E+01 -0.24649201745E+00  0.99635751678E+01  0.51100000000E-03 0. -1.
        -11    1    3    3    0    0  0.74197956636E+01 -0.49147335418E+01 -0.20089147001E+02  0.21972296215E+02  0.51100000000E-03 0.  1.
         12    1    3    3    0    0 -0.71098733382E+00 -0.33187161474E+01 -0.18280583756E+02  0.18592985837E+02  0.00000000000E+00 0. -1.
</event>
<event>
 7    1  0.9930326E-013  0.5052886E+02  0.7816164E-02  0.1300439E+00
        -11   -1    0    0    0    0  0.00000000000E+00  0.00000000000E+00  0.45593999997E+02  0.45594000000E+02  0.51100000000E-03 0. -1.
         11   -1    0    0    0    0 -0.00000000000E+00 -0.00000000000E+00 -0.45593999997E+02  0.45594000000E+02  0.51100000000E-03 0.  1.
    9900012    2    1    2    0    0  0.24683296088E+02  0.12672372563E+02 -0.29720554828E+02  0.50528861895E+02  0.30000006217E+02 0.  0.
        -12    1    1    2    0    0 -0.24683296088E+02 -0.12672372563E+02  0.29720554828E+02  0.40659138105E+02  0.00000000000E+00 0.  1.
         11    1    3    3    0    0  0.10724301874E+02  0.16201487621E+02 -0.53391367017E+01  0.20149571529E+02  0.51100000000E-03 0. -1.
        -11    1    3    3    0    0  0.66482940295E+01 -0.21732375357E+01 -0.21141860644E+02  0.22268835772E+02  0.51100000000E-03 0.  1.
        -12    1    3    3    0    0  0.73107001842E+01 -0.13558775225E+01 -0.32395574821E+01  0.81104545939E+01  0.00000000000E+00 0.  1.
</event>
<event>
 7    1  0.9930326E-013  0.5052886E+02  0.7816164E-02  0.1300439E+00
        -11   -1    0    0    0    0  0.00000000000E+00  0.00000000000E+00  0.45593999997E+02  0.45594000000E+02  0.51100000000E-03 0. -1.
         11   -1    0    0    0    0 -0.00000000000E+00 -0.00000000000E+00 -0.45593999997E+02  0.45594000000E+02  0.51100000000E-03 0.  1.
    9900012    2    1    2    0    0 -0.25919838623E+01  0.40056987261E+02  0.64718450369E+01  0.50528863426E+02  0.30000010869E+02 0.  0.
        -12    1    1    2    0    0  0.25919838623E+01 -0.40056987261E+02 -0.64718450369E+01  0.40659136574E+02  0.00000000000E+00 0.  1.
         11    1    3    3    0    0 -0.80873144907E+00  0.37316458384E+02  0.10115984008E+02  0.38671762897E+02  0.51100000000E-03 0. -1.
        -11    1    3    3    0    0 -0.39926437396E+01 -0.95939027080E+00  0.21507906924E+01  0.46354648728E+01  0.51100000000E-03 0.  1.
         12    1    3    3    0    0  0.22093913264E+01  0.36999191482E+01 -0.57949296639E+01  0.72216356559E+01  0.00000000000E+00 0. -1.
</event>
<event>
 7    1  0.9930326E-013  0.5052885E+02  0.7816164E-02  0.1300439E+00
        -11   -1    0    0    0    0  0.00000000000E+00  0.00000000000E+00  0.45593999997E+02  0.45594000000E+02  0.51100000000E-03 0.  1.
         11   -1    0    0    0    0 -0.00000000000E+00 -0.00000000000E+00 -0.45593999997E+02  0.45594000000E+02  0.51100000000E-03 0. -1.
    9900012    2    1    2    0    0  0.16073789399E+02 -0.35831512837E+02  0.10531025650E+02  0.50528849504E+02  0.29999968551E+02 0.  0.
        -12    1    1    2    0    0 -0.16073789399E+02  0.35831512837E+02 -0.10531025650E+02  0.40659150496E+02  0.00000000000E+00 0.  1.
         11    1    3    3    0    0  0.14856811436E+01 -0.14860563039E+02  0.94642900365E+01  0.17680960620E+02  0.51100000000E-03 0. -1.
        -11    1    3    3    0    0  0.12664999424E+02 -0.18007667782E+02 -0.77580040888E+01  0.23342342150E+02  0.51100000000E-03 0.  1.
        -12    1    3    3    0    0  0.19231088311E+01 -0.29632820160E+01  0.88247397022E+01  0.95055467330E+01  0.00000000000E+00 0.  1.
</event>
<event>
 7    1  0.9930326E-013  0.5052886E+02  0.7816164E-02  0.1300439E+00
        -11   -1    0    0    0    0  0.00000000000E+00  0.00000000000E+00  0.45593999997E+02  0.45594000000E+02  0.51100000000E-03 0. -1.
         11   -1    0    0    0    0 -0.00000000000E+00 -0.00000000000E+00 -0.45593999997E+02  0.45594000000E+02  0.51100000000E-03 0.  1.
    9900012    2    1    2    0    0  0.26542159405E+02  0.22940820499E+01  0.30715088198E+02  0.50528859806E+02  0.29999999866E+02 0.  0.
        -12    1    1    2    0    0 -0.26542159405E+02 -0.22940820499E+01 -0.30715088198E+02  0.40659140194E+02  0.00000000000E+00 0.  1.
         11    1    3    3    0    0  0.31386036631E+01 -0.10066412820E+02  0.93141566559E+01  0.14069009008E+02  0.51100000000E-03 0. -1.
        -11    1    3    3    0    0  0.20208860055E+02  0.12786170635E+02  0.22711877889E+02  0.32980503055E+02  0.51100000000E-03 0.  1.
         12    1    3    3    0    0  0.31946956865E+01 -0.42567576575E+00 -0.13109463475E+01  0.34793477425E+01  0.00000000000E+00 0. -1.
</event>
<event>
 7    1  0.9930326E-013  0.5052886E+02  0.7816164E-02  0.1300439E+00
        -11   -1    0    0    0    0  0.00000000000E+00  0.00000000000E+00  0.45593999997E+02  0.45594000000E+02  0.51100000000E-03 0.  1.
         11   -1    0    0    0    0 -0.00000000000E+00 -0.00000000000E+00 -0.45593999997E+02  0.45594000000E+02  0.51100000000E-03 0. -1.
    9900012    2    1    2    0    0 -0.10508481140E+01  0.37714430064E+02  0.15155306786E+02  0.50528857847E+02  0.29999993912E+02 0.  0.
        -12    1    1    2    0    0  0.10508481140E+01 -0.37714430064E+02 -0.15155306786E+02  0.40659142153E+02  0.00000000000E+00 0.  1.
         11    1    3    3    0    0  0.44325536677E+01  0.86116765715E+01 -0.18369651014E+01  0.98581411246E+01  0.51100000000E-03 0. -1.
        -11    1    3    3    0    0 -0.13377319935E+02  0.24132842264E+02  0.13407637749E+02  0.30677540884E+02  0.51100000000E-03 0.  1.
        -12    1    3    3    0    0  0.78939181536E+01  0.49699112284E+01  0.35846341382E+01  0.99931758385E+01  0.00000000000E+00 0.  1.
</event>
<event>
 7    1  0.9930326E-013  0.5052886E+02  0.7816164E-02  0.1300439E+00
        -11   -1    0    0    0    0  0.00000000000E+00  0.00000000000E+00  0.45593999997E+02  0.45594000000E+02  0.51100000000E-03 0.  1.
         11   -1    0    0    0    0 -0.00000000000E+00 -0.00000000000E+00 -0.45593999997E+02  0.45594000000E+02  0.51100000000E-03 0. -1.
    9900012    2    1    2    0    0  0.56205946355E+01  0.14393626853E+02 -0.37608484501E+02  0.50528859767E+02  0.29999999748E+02 0.  0.
        -12    1    1    2    0    0 -0.56205946355E+01 -0.14393626853E+02  0.37608484501E+02  0.40659140233E+02  0.00000000000E+00 0.  1.
         11    1    3    3    0    0  0.82094925040E+01  0.83303739928E+01 -0.83588584074E+01  0.14375723014E+02  0.51100000000E-03 0. -1.
        -11    1    3    3    0    0  0.12457024527E+01 -0.33412313377E+01 -0.24816818550E+02  0.25071698879E+02  0.51100000000E-03 0.  1.
        -12    1    3    3    0    0 -0.38346003212E+01  0.94044841979E+01 -0.44328075430E+01  0.11081437874E+02  0.00000000000E+00 0.  1.
</event>
<event>
 7    1  0.9930326E-013  0.5052884E+02  0.7816164E-02  0.1300439E+00
        -11   -1    0    0    0    0  0.00000000000E+00  0.00000000000E+00  0.45593999997E+02  0.45594000000E+02  0.51100000000E-03 0.  1.
         11   -1    0    0    0    0 -0.00000000000E+00 -0.00000000000E+00 -0.45593999997E+02  0.45594000000E+02  0.51100000000E-03 0. -1.
    9900012    2    1    2    0    0 -0.18074708550E+02 -0.16366601202E+02 -0.32536238418E+02  0.50528837017E+02  0.29999930596E+02 0.  0.
        -12    1    1    2    0    0  0.18074708550E+02  0.16366601202E+02  0.32536238418E+02  0.40659162983E+02  0.00000000000E+00 0.  1.
         11    1    3    3    0    0 -0.91229894162E+01 -0.13566775389E+02 -0.27001487423E+02  0.31565276075E+02  0.51100000000E-03 0. -1.
        -11    1    3    3    0    0 -0.94115758186E+01 -0.56821708936E+01  0.17348420490E+01  0.11129892302E+02  0.51100000000E-03 0.  1.
        -12    1    3    3    0    0  0.45985668483E+00  0.28823450805E+01 -0.72695930442E+01  0.78336686400E+01  0.00000000000E+00 0.  1.
</event>
<event>
 7    1  0.9930326E-013  0.5052887E+02  0.7816164E-02  0.1300439E+00
        -11   -1    0    0    0    0  0.00000000000E+00  0.00000000000E+00  0.45593999997E+02  0.45594000000E+02  0.51100000000E-03 0.  1.
         11   -1    0    0    0    0 -0.00000000000E+00 -0.00000000000E+00 -0.45593999997E+02  0.45594000000E+02  0.51100000000E-03 0. -1.
    9900012    2    1    2    0    0 -0.32451408316E+02 -0.77843439248E+01 -0.23226605920E+02  0.50528866530E+02  0.30000020303E+02 0.  0.
        -12    1    1    2    0    0  0.32451408316E+02  0.77843439248E+01  0.23226605920E+02  0.40659133470E+02  0.00000000000E+00 0.  1.
         11    1    3    3    0    0  0.34320604694E+01  0.26297985066E+01  0.64040393863E+00  0.43709262997E+01  0.51100000000E-03 0. -1.
        -11    1    3    3    0    0 -0.36292625422E+02 -0.82406655324E+01 -0.21802781081E+02  0.43132638356E+02  0.51100000000E-03 0.  1.
        -12    1    3    3    0    0  0.40915663643E+00 -0.21734768991E+01 -0.20642287776E+01  0.30253018742E+01  0.00000000000E+00 0.  1.
</event>
<event>
 7    1  0.9930326E-013  0.5052886E+02  0.7816164E-02  0.1300439E+00
        -11   -1    0    0    0    0  0.00000000000E+00  0.00000000000E+00  0.45593999997E+02  0.45594000000E+02  0.51100000000E-03 0. -1.
         11   -1    0    0    0    0 -0.00000000000E+00 -0.00000000000E+00 -0.45593999997E+02  0.45594000000E+02  0.51100000000E-03 0.  1.
    9900012    2    1    2    0    0  0.39487170792E+02  0.64921434971E+01  0.71958870191E+01  0.50528863581E+02  0.30000011341E+02 0.  0.
        -12    1    1    2    0    0 -0.39487170792E+02 -0.64921434971E+01 -0.71958870191E+01  0.40659136419E+02  0.00000000000E+00 0.  1.
         11    1    3    3    0    0  0.10851506389E+02 -0.49258261204E+01  0.45901991909E+01  0.12770625777E+02  0.51100000000E-03 0. -1.
        -11    1    3    3    0    0  0.17106340821E+02  0.14138108636E+02 -0.61485612098E+01  0.23028630383E+02  0.51100000000E-03 0.  1.
        -12    1    3    3    0    0  0.11529323582E+02 -0.27201390189E+01  0.87542490380E+01  0.14729607420E+02  0.00000000000E+00 0.  1.
</event>
<event>
 7    1  0.9930326E-013  0.5052886E+02  0.7816164E-02  0.1300439E+00
        -11   -1    0    0    0    0  0.00000000000E+00  0.00000000000E+00  0.45593999997E+02  0.45594000000E+02  0.51100000000E-03 0. -1.
         11   -1    0    0    0    0 -0.00000000000E+00 -0.00000000000E+00 -0.45593999997E+02  0.45594000000E+02  0.51100000000E-03 0.  1.
    9900012    2    1    2    0    0 -0.16701829057E+02 -0.29197853214E+02  0.22840754013E+02  0.50528858714E+02  0.29999996549E+02 0.  0.
        -12    1    1    2    0    0  0.16701829057E+02  0.29197853214E+02 -0.22840754013E+02  0.40659141286E+02  0.00000000000E+00 0.  1.
         11    1    3    3    0    0 -0.22464856501E+00 -0.16488075554E+02  0.94063218616E+01  0.18983835062E+02  0.51100000000E-03 0.  1.
        -11    1    3    3    0    0 -0.16785969971E+02 -0.94318591332E+01  0.17701935469E+02  0.26155062114E+02  0.51100000000E-03 0. -1.
        -12    1    3    3    0    0  0.30878947896E+00 -0.32779185271E+01 -0.42675033176E+01  0.53899615377E+01  0.00000000000E+00 0.  1.
</event>
<event>
 7    1  0.9930326E-013  0.5052886E+02  0.7816164E-02  0.1300439E+00
        -11   -1    0    0    0    0  0.00000000000E+00  0.00000000000E+00  0.45593999997E+02  0.45594000000E+02  0.51100000000E-03 0.  1.
         11   -1    0    0    0    0 -0.00000000000E+00 -0.00000000000E+00 -0.45593999997E+02  0.45594000000E+02  0.51100000000E-03 0. -1.
    9900012    2    1    2    0    0  0.98911503272E+01  0.11243579788E+02 -0.37800958636E+02  0.50528863080E+02  0.30000009818E+02 0.  0.
        -12    1    1    2    0    0 -0.98911503272E+01 -0.11243579788E+02  0.37800958636E+02  0.40659136920E+02  0.00000000000E+00 0.  1.
         11    1    3    3    0    0 -0.91194203368E-01  0.24975795708E+01 -0.34247796417E+02  0.34338866897E+02  0.51100000000E-03 0. -1.
        -11    1    3    3    0    0  0.98734786644E+01  0.67648574775E+01 -0.57086164127E+01  0.13260361203E+02  0.51100000000E-03 0.  1.
         12    1    3    3    0    0  0.10886586623E+00  0.19811427402E+01  0.21554541935E+01  0.29296349796E+01  0.00000000000E+00 0. -1.
</event>
<event>
 7    1  0.9930326E-013  0.5052886E+02  0.7816164E-02  0.1300439E+00
        -11   -1    0    0    0    0  0.00000000000E+00  0.00000000000E+00  0.45593999997E+02  0.45594000000E+02  0.51100000000E-03 0. -1.
         11   -1    0    0    0    0 -0.00000000000E+00 -0.00000000000E+00 -0.45593999997E+02  0.45594000000E+02  0.51100000000E-03 0.  1.
    9900012    2    1    2    0    0 -0.30803526081E+02  0.65097548933E+01  0.25728029220E+02  0.50528860618E+02  0.30000002333E+02 0.  0.
        -12    1    1    2    0    0  0.30803526081E+02 -0.65097548933E+01 -0.25728029220E+02  0.40659139382E+02  0.00000000000E+00 0.  1.
         11    1    3    3    0    0 -0.19797607515E+02  0.13098293016E+02  0.17357302695E+02  0.29407252513E+02  0.51100000000E-03 0. -1.
        -11    1    3    3    0    0 -0.13242524120E+02 -0.45873385413E+01  0.21017839303E+01  0.14171295492E+02  0.51100000000E-03 0.  1.
         12    1    3    3    0    0  0.22366055538E+01 -0.20011995816E+01  0.62689425942E+01  0.69503126130E+01  0.00000000000E+00 0. -1.
</event>
<event>
 7    1  0.9930326E-013  0.5052888E+02  0.7816164E-02  0.1300439E+00
        -11   -1    0    0    0    0  0.00000000000E+00  0.00000000000E+00  0.45593999997E+02  0.45594000000E+02  0.51100000000E-03 0. -1.
         11   -1    0    0    0    0 -0.00000000000E+00 -0.00000000000E+00 -0.45593999997E+02  0.45594000000E+02  0.51100000000E-03 0.  1.
    9900012    2    1    2    0    0 -0.67070280251E+01 -0.23108439086E+02  0.32774680327E+02  0.50528882296E+02  0.30000068228E+02 0.  0.
        -12    1    1    2    0    0  0.67070280251E+01  0.23108439086E+02 -0.32774680327E+02  0.40659117704E+02  0.00000000000E+00 0.  1.
         11    1    3    3    0    0 -0.11558394188E+02 -0.39783007131E+01  0.47615092855E+01  0.13118510727E+02  0.51100000000E-03 0. -1.
        -11    1    3    3    0    0  0.78419117834E+01 -0.99723017476E+01  0.74743342201E+01  0.14724403379E+02  0.51100000000E-03 0.  1.
         12    1    3    3    0    0 -0.29905456207E+01 -0.91578366252E+01  0.20538836821E+02  0.22685968190E+02  0.00000000000E+00 0. -1.
</event>
<event>
 7    1  0.9930326E-013  0.5052888E+02  0.7816164E-02  0.1300439E+00
        -11   -1    0    0    0    0  0.00000000000E+00  0.00000000000E+00  0.45593999997E+02  0.45594000000E+02  0.51100000000E-03 0.  1.
         11   -1    0    0    0    0 -0.00000000000E+00 -0.00000000000E+00 -0.45593999997E+02  0.45594000000E+02  0.51100000000E-03 0. -1.
    9900012    2    1    2    0    0  0.11587798263E+02 -0.34530217580E+02 -0.18070728719E+02  0.50528877639E+02  0.30000054072E+02 0.  0.
        -12    1    1    2    0    0 -0.11587798263E+02  0.34530217580E+02  0.18070728719E+02  0.40659122361E+02  0.00000000000E+00 0.  1.
         11    1    3    3    0    0  0.12382877129E+02 -0.26567524299E+02 -0.16576832297E+02  0.33674327946E+02  0.51100000000E-03 0.  1.
        -11    1    3    3    0    0 -0.66670782802E+01 -0.71950292863E+01  0.19542262684E+01  0.10001868815E+02  0.51100000000E-03 0. -1.
        -12    1    3    3    0    0  0.58719994135E+01 -0.76766399527E+00 -0.34481226906E+01  0.68526808777E+01  0.00000000000E+00 0.  1.
</event>
<event>
 7    1  0.9930326E-013  0.5052887E+02  0.7816164E-02  0.1300439E+00
        -11   -1    0    0    0    0  0.00000000000E+00  0.00000000000E+00  0.45593999997E+02  0.45594000000E+02  0.51100000000E-03 0.  1.
         11   -1    0    0    0    0 -0.00000000000E+00 -0.00000000000E+00 -0.45593999997E+02  0.45594000000E+02  0.51100000000E-03 0. -1.
    9900012    2    1    2    0    0  0.20420571576E+02  0.18509281410E+02 -0.29892673065E+02  0.50528866404E+02  0.30000019923E+02 0.  0.
        -12    1    1    2    0    0 -0.20420571576E+02 -0.18509281410E+02  0.29892673065E+02  0.40659133596E+02  0.00000000000E+00 0.  1.
         11    1    3    3    0    0  0.55581504117E+01  0.22901480914E+02 -0.12635360540E+02  0.26739917732E+02  0.51100000000E-03 0. -1.
        -11    1    3    3    0    0  0.90125508938E+01 -0.40264465917E+01 -0.13855009526E+02  0.17011749910E+02  0.51100000000E-03 0.  1.
        -12    1    3    3    0    0  0.58498702707E+01 -0.36575291294E+00 -0.34023029982E+01  0.67771987627E+01  0.00000000000E+00 0.  1.
</event>
<event>
 7    1  0.9930326E-013  0.5052887E+02  0.7816164E-02  0.1300439E+00
        -11   -1    0    0    0    0  0.00000000000E+00  0.00000000000E+00  0.45593999997E+02  0.45594000000E+02  0.51100000000E-03 0.  1.
         11   -1    0    0    0    0 -0.00000000000E+00 -0.00000000000E+00 -0.45593999997E+02  0.45594000000E+02  0.51100000000E-03 0. -1.
    9900012    2    1    2    0    0 -0.18936131770E+02  0.19247359884E+02 -0.30399456569E+02  0.50528869308E+02  0.30000028749E+02 0.  0.
        -12    1    1    2    0    0  0.18936131770E+02 -0.19247359884E+02  0.30399456569E+02  0.40659130692E+02  0.00000000000E+00 0.  1.
         11    1    3    3    0    0 -0.17099957021E+02  0.16581776584E+02 -0.11690277098E+02  0.26533496258E+02  0.51100000000E-03 0.  1.
        -11    1    3    3    0    0  0.47170483723E+01 -0.13089833898E+01 -0.14385461877E+02  0.15195574900E+02  0.51100000000E-03 0. -1.
         12    1    3    3    0    0 -0.65532231216E+01  0.39745666899E+01 -0.43237175944E+01  0.87997981506E+01  0.00000000000E+00 0. -1.
</event>
<event>
 7    1  0.9930326E-013  0.5052886E+02  0.7816164E-02  0.1300439E+00
        -11   -1    0    0    0    0  0.00000000000E+00  0.00000000000E+00  0.45593999997E+02  0.45594000000E+02  0.51100000000E-03 0.  1.
         11   -1    0    0    0    0 -0.00000000000E+00 -0.00000000000E+00 -0.45593999997E+02  0.45594000000E+02  0.51100000000E-03 0. -1.
    9900012    2    1    2    0    0  0.33472928968E+02 -0.22772874908E+02  0.37582565037E+01  0.50528864529E+02  0.30000014223E+02 0.  0.
        -12    1    1    2    0    0 -0.33472928968E+02  0.22772874908E+02 -0.37582565037E+01  0.40659135471E+02  0.00000000000E+00 0.  1.
         11    1    3    3    0    0  0.34609742108E+02 -0.21633224529E+02 -0.30397266503E+01  0.40927626252E+02  0.51100000000E-03 0. -1.
        -11    1    3    3    0    0 -0.13803162401E+01 -0.28386298649E-01 -0.10101302285E+01  0.17106846711E+01  0.51100000000E-03 0.  1.
         12    1    3    3    0    0  0.24350310074E+00 -0.11112640802E+01  0.78081133824E+01  0.78905536060E+01  0.00000000000E+00 0. -1.
</event>
<event>
 7    1  0.9930326E-013  0.5052887E+02  0.7816164E-02  0.1300439E+00
        -11   -1    0    0    0    0  0.00000000000E+00  0.00000000000E+00  0.45593999997E+02  0.45594000000E+02  0.51100000000E-03 0.  1.
         11   -1    0    0    0    0 -0.00000000000E+00 -0.00000000000E+00 -0.45593999997E+02  0.45594000000E+02  0.51100000000E-03 0. -1.
    9900012    2    1    2    0    0 -0.40150484693E+00 -0.24543492151E+02 -0.32413282469E+02  0.50528867034E+02  0.30000021838E+02 0.  0.
        -12    1    1    2    0    0  0.40150484693E+00  0.24543492151E+02  0.32413282469E+02  0.40659132966E+02  0.00000000000E+00 0.  1.
         11    1    3    3    0    0  0.25541007791E+01 -0.20498032359E+02 -0.27759718135E+02  0.34601946659E+02  0.51100000000E-03 0. -1.
        -11    1    3    3    0    0 -0.47138043583E+01 -0.45970177048E+01  0.35766181298E+01  0.74929781005E+01  0.51100000000E-03 0.  1.
        -12    1    3    3    0    0  0.17581987323E+01  0.55155791292E+00 -0.82301824640E+01  0.84339422753E+01  0.00000000000E+00 0.  1.
</event>
<event>
 7    1  0.9930326E-013  0.5052885E+02  0.7816164E-02  0.1300439E+00
        -11   -1    0    0    0    0  0.00000000000E+00  0.00000000000E+00  0.45593999997E+02  0.45594000000E+02  0.51100000000E-03 0. -1.
         11   -1    0    0    0    0 -0.00000000000E+00 -0.00000000000E+00 -0.45593999997E+02  0.45594000000E+02  0.51100000000E-03 0.  1.
    9900012    2    1    2    0    0  0.25814597984E+01 -0.36208939580E+02 -0.18314340083E+02  0.50528852285E+02  0.29999977006E+02 0.  0.
        -12    1    1    2    0    0 -0.25814597984E+01  0.36208939580E+02  0.18314340083E+02  0.40659147715E+02  0.00000000000E+00 0.  1.
         11    1    3    3    0    0 -0.56126513930E+01 -0.18249444082E+02 -0.12174764756E+02  0.22644402445E+02  0.51100000000E-03 0. -1.
        -11    1    3    3    0    0  0.10404175892E+02 -0.20658706661E+02 -0.72218037138E+01  0.24231869223E+02  0.51100000000E-03 0.  1.
        -12    1    3    3    0    0 -0.22100647002E+01  0.26992111635E+01  0.10822283867E+01  0.36525806172E+01  0.00000000000E+00 0.  1.
</event>
<event>
 7    1  0.9930326E-013  0.5052887E+02  0.7816164E-02  0.1300439E+00
        -11   -1    0    0    0    0  0.00000000000E+00  0.00000000000E+00  0.45593999997E+02  0.45594000000E+02  0.51100000000E-03 0.  1.
         11   -1    0    0    0    0 -0.00000000000E+00 -0.00000000000E+00 -0.45593999997E+02  0.45594000000E+02  0.51100000000E-03 0. -1.
    9900012    2    1    2    0    0  0.40385457716E+02  0.69229671220E+00 -0.46583514608E+01  0.50528871775E+02  0.30000036247E+02 0.  0.
        -12    1    1    2    0    0 -0.40385457716E+02 -0.69229671220E+00  0.46583514608E+01  0.40659128225E+02  0.00000000000E+00 0.  1.
         11    1    3    3    0    0  0.22741407043E+02  0.91772922059E+01  0.16848264566E+01  0.24581149831E+02  0.51100000000E-03 0. -1.
        -11    1    3    3    0    0  0.16958307724E+01 -0.67210290337E+01  0.28048446676E+01  0.74776485041E+01  0.51100000000E-03 0.  1.
         12    1    3    3    0    0  0.15948219901E+02 -0.17639664600E+01 -0.91480225850E+01  0.18470073440E+02  0.00000000000E+00 0. -1.
</event>
<event>
 7    1  0.9930326E-013  0.5052887E+02  0.7816164E-02  0.1300439E+00
        -11   -1    0    0    0    0  0.00000000000E+00  0.00000000000E+00  0.45593999997E+02  0.45594000000E+02  0.51100000000E-03 0. -1.
         11   -1    0    0    0    0 -0.00000000000E+00 -0.00000000000E+00 -0.45593999997E+02  0.45594000000E+02  0.51100000000E-03 0.  1.
    9900012    2    1    2    0    0 -0.13067386957E+02  0.29768590851E+02  0.24418011733E+02  0.50528869413E+02  0.30000029067E+02 0.  0.
        -12    1    1    2    0    0  0.13067386957E+02 -0.29768590851E+02 -0.24418011733E+02  0.40659130587E+02  0.00000000000E+00 0.  1.
         11    1    3    3    0    0 -0.42672957503E+01  0.13151283642E+01 -0.39620911848E+01  0.59697187918E+01  0.51100000000E-03 0. -1.
        -11    1    3    3    0    0  0.41289689671E+00  0.77355420203E+01  0.18051497457E+02  0.19643463414E+02  0.51100000000E-03 0.  1.
         12    1    3    3    0    0 -0.92129881032E+01  0.20717920466E+02  0.10328605460E+02  0.24915687207E+02  0.00000000000E+00 0. -1.
</event>
<event>
 7    1  0.9930326E-013  0.5052887E+02  0.7816164E-02  0.1300439E+00
        -11   -1    0    0    0    0  0.00000000000E+00  0.00000000000E+00  0.45593999997E+02  0.45594000000E+02  0.51100000000E-03 0.  1.
         11   -1    0    0    0    0 -0.00000000000E+00 -0.00000000000E+00 -0.45593999997E+02  0.45594000000E+02  0.51100000000E-03 0. -1.
    9900012    2    1    2    0    0  0.16729260696E+02  0.75501402214E+01 -0.36280744539E+02  0.50528865662E+02  0.30000017667E+02 0.  0.
        -12    1    1    2    0    0 -0.16729260696E+02 -0.75501402214E+01  0.36280744539E+02  0.40659134338E+02  0.00000000000E+00 0.  1.
         11    1    3    3    0    0  0.53555548885E+01 -0.44793096185E+00 -0.42341837785E+01  0.68418508345E+01  0.51100000000E-03 0. -1.
        -11    1    3    3    0    0 -0.62138662431E+01  0.47015530109E+01 -0.21610214214E+02  0.22972115554E+02  0.51100000000E-03 0.  1.
        -12    1    3    3    0    0  0.17587572050E+02  0.32965181724E+01 -0.10436346547E+02  0.20714899274E+02  0.00000000000E+00 0.  1.
</event>
<event>
 7    1  0.9930326E-013  0.5052886E+02  0.7816164E-02  0.1300439E+00
        -11   -1    0    0    0    0  0.00000000000E+00  0.00000000000E+00  0.45593999997E+02  0.45594000000E+02  0.51100000000E-03 0.  1.
         11   -1    0    0    0    0 -0.00000000000E+00 -0.00000000000E+00 -0.45593999997E+02  0.45594000000E+02  0.51100000000E-03 0. -1.
    9900012    2    1    2    0    0 -0.60481666511E+01  0.18764460670E+02 -0.35559537352E+02  0.50528855878E+02  0.29999987926E+02 0.  0.
        -12    1    1    2    0    0  0.60481666511E+01 -0.18764460670E+02  0.35559537352E+02  0.40659144122E+02  0.00000000000E+00 0.  1.
         11    1    3    3    0    0 -0.44386886937E+01  0.20190747880E+02 -0.12177456926E+02  0.23992888836E+02  0.51100000000E-03 0. -1.
        -11    1    3    3    0    0 -0.68693995416E+01 -0.12855276362E+01 -0.10420089316E+02  0.12546692512E+02  0.51100000000E-03 0.  1.
         12    1    3    3    0    0  0.52599215842E+01 -0.14075957375E+00 -0.12961991110E+02  0.13989274530E+02  0.00000000000E+00 0. -1.
</event>
<event>
 7    1  0.9930326E-013  0.5052887E+02  0.7816164E-02  0.1300439E+00
        -11   -1    0    0    0    0  0.00000000000E+00  0.00000000000E+00  0.45593999997E+02  0.45594000000E+02  0.51100000000E-03 0.  1.
         11   -1    0    0    0    0 -0.00000000000E+00 -0.00000000000E+00 -0.45593999997E+02  0.45594000000E+02  0.51100000000E-03 0. -1.
    9900012    2    1    2    0    0 -0.36580745110E+02 -0.14776961870E+02 -0.98313623941E+01  0.50528865707E+02  0.30000017804E+02 0.  0.
        -12    1    1    2    0    0  0.36580745110E+02  0.14776961870E+02  0.98313623941E+01  0.40659134293E+02  0.00000000000E+00 0.  1.
         11    1    3    3    0    0 -0.27906628109E+02 -0.17431699739E+02 -0.11149793261E+02  0.34741357748E+02  0.51100000000E-03 0. -1.
        -11    1    3    3    0    0 -0.12391478124E+01  0.66093952319E+01 -0.15320685846E+01  0.68968708151E+01  0.51100000000E-03 0.  1.
         12    1    3    3    0    0 -0.74349691891E+01 -0.39546573626E+01  0.28504994517E+01  0.88906371438E+01  0.00000000000E+00 0. -1.
</event>
<event>
 7    1  0.9930326E-013  0.5052888E+02  0.7816164E-02  0.1300439E+00
        -11   -1    0    0    0    0  0.00000000000E+00  0.00000000000E+00  0.45593999997E+02  0.45594000000E+02  0.51100000000E-03 0.  1.
         11   -1    0    0    0    0 -0.00000000000E+00 -0.00000000000E+00 -0.45593999997E+02  0.45594000000E+02  0.51100000000E-03 0. -1.
    9900012    2    1    2    0    0 -0.35597795034E+02 -0.13303880823E+01 -0.19600801189E+02  0.50528876166E+02  0.30000049593E+02 0.  0.
        -12    1    1    2    0    0  0.35597795034E+02  0.13303880823E+01  0.19600801189E+02  0.40659123834E+02  0.00000000000E+00 0.  1.
         11    1    3    3    0    0 -0.32714977012E+02 -0.55517272105E+00 -0.17920042351E+02  0.37305574057E+02  0.51100000000E-03 0. -1.
        -11    1    3    3    0    0  0.11836591792E+01  0.54870139693E+01 -0.12072925339E+01  0.57415961957E+01  0.51100000000E-03 0.  1.
         12    1    3    3    0    0 -0.40664772016E+01 -0.62622293305E+01 -0.47346630388E+00  0.74817059125E+01  0.00000000000E+00 0. -1.
</event>
<event>
 7    1  0.9930326E-013  0.5052885E+02  0.7816164E-02  0.1300439E+00
        -11   -1    0    0    0    0  0.00000000000E+00  0.00000000000E+00  0.45593999997E+02  0.45594000000E+02  0.51100000000E-03 0.  1.
         11   -1    0    0    0    0 -0.00000000000E+00 -0.00000000000E+00 -0.45593999997E+02  0.45594000000E+02  0.51100000000E-03 0. -1.
    9900012    2    1    2    0    0 -0.35554154822E+02 -0.71594080924E+01  0.18379638245E+02  0.50528854026E+02  0.29999982298E+02 0.  0.
        -12    1    1    2    0    0  0.35554154822E+02  0.71594080924E+01 -0.18379638245E+02  0.40659145974E+02  0.00000000000E+00 0.  1.
         11    1    3    3    0    0 -0.24128933137E+02 -0.11120617774E+02 -0.10315190626E+01  0.26588297911E+02  0.51100000000E-03 0. -1.
        -11    1    3    3    0    0 -0.11647279070E+02  0.17369461663E+01  0.16434779483E+02  0.20218260772E+02  0.51100000000E-03 0.  1.
         12    1    3    3    0    0  0.22205738440E+00  0.22242635154E+01  0.29763778241E+01  0.37222953429E+01  0.00000000000E+00 0. -1.
</event>
<event>
 7    1  0.9930326E-013  0.5052884E+02  0.7816164E-02  0.1300439E+00
        -11   -1    0    0    0    0  0.00000000000E+00  0.00000000000E+00  0.45593999997E+02  0.45594000000E+02  0.51100000000E-03 0.  1.
         11   -1    0    0    0    0 -0.00000000000E+00 -0.00000000000E+00 -0.45593999997E+02  0.45594000000E+02  0.51100000000E-03 0. -1.
    9900012    2    1    2    0    0  0.31351596064E+02  0.74478876896E+01 -0.24794633652E+02  0.50528837874E+02  0.29999933203E+02 0.  0.
        -12    1    1    2    0    0 -0.31351596064E+02 -0.74478876896E+01  0.24794633652E+02  0.40659162126E+02  0.00000000000E+00 0.  1.
         11    1    3    3    0    0  0.25678636627E+02 -0.44036336810E+00 -0.19571462521E+02  0.32289757577E+02  0.51100000000E-03 0. -1.
        -11    1    3    3    0    0  0.11932484103E+00  0.10588051668E+02 -0.75232469533E+00  0.10615416584E+02  0.51100000000E-03 0.  1.
        -12    1    3    3    0    0  0.55536345961E+01 -0.26998006103E+01 -0.44708464357E+01  0.76236637133E+01  0.00000000000E+00 0.  1.
</event>
<event>
 7    1  0.9930326E-013  0.5052886E+02  0.7816164E-02  0.1300439E+00
        -11   -1    0    0    0    0  0.00000000000E+00  0.00000000000E+00  0.45593999997E+02  0.45594000000E+02  0.51100000000E-03 0. -1.
         11   -1    0    0    0    0 -0.00000000000E+00 -0.00000000000E+00 -0.45593999997E+02  0.45594000000E+02  0.51100000000E-03 0.  1.
    9900012    2    1    2    0    0 -0.31404785927E+02 -0.25789932566E+02  0.13358940572E+01  0.50528858177E+02  0.29999994913E+02 0.  0.
        -12    1    1    2    0    0  0.31404785927E+02  0.25789932566E+02 -0.13358940572E+01  0.40659141823E+02  0.00000000000E+00 0.  1.
         11    1    3    3    0    0 -0.13379333745E+02 -0.15971993966E+02  0.64087620342E+01  0.21798701653E+02  0.51100000000E-03 0. -1.
        -11    1    3    3    0    0 -0.10359781716E+01  0.31213185319E+01 -0.65439051981E+01  0.73238361295E+01  0.51100000000E-03 0.  1.
         12    1    3    3    0    0 -0.16989474011E+02 -0.12939257132E+02  0.14710372210E+01  0.21406320394E+02  0.00000000000E+00 0. -1.
</event>
<event>
 7    1  0.9930326E-013  0.5052887E+02  0.7816164E-02  0.1300439E+00
        -11   -1    0    0    0    0  0.00000000000E+00  0.00000000000E+00  0.45593999997E+02  0.45594000000E+02  0.51100000000E-03 0.  1.
         11   -1    0    0    0    0 -0.00000000000E+00 -0.00000000000E+00 -0.45593999997E+02  0.45594000000E+02  0.51100000000E-03 0. -1.
    9900012    2    1    2    0    0 -0.26365952743E+02  0.29009577320E+02 -0.10791000851E+02  0.50528871386E+02  0.30000035063E+02 0.  0.
        -12    1    1    2    0    0  0.26365952743E+02 -0.29009577320E+02  0.10791000851E+02  0.40659128614E+02  0.00000000000E+00 0.  1.
         11    1    3    3    0    0 -0.21709822126E+02  0.28402364895E+02 -0.91059965279E+01  0.36890783150E+02  0.51100000000E-03 0. -1.
        -11    1    3    3    0    0 -0.57128966867E+01 -0.50466532821E+01  0.74895339983E-01  0.76230904150E+01  0.51100000000E-03 0.  1.
         12    1    3    3    0    0  0.10567660698E+01  0.56538657068E+01 -0.17598996634E+01  0.60149978207E+01  0.00000000000E+00 0. -1.
</event>
<event>
 7    1  0.9930326E-013  0.5052883E+02  0.7816164E-02  0.1300439E+00
        -11   -1    0    0    0    0  0.00000000000E+00  0.00000000000E+00  0.45593999997E+02  0.45594000000E+02  0.51100000000E-03 0.  1.
         11   -1    0    0    0    0 -0.00000000000E+00 -0.00000000000E+00 -0.45593999997E+02  0.45594000000E+02  0.51100000000E-03 0. -1.
    9900012    2    1    2    0    0 -0.21088593882E+02  0.13911024740E+02 -0.31857850956E+02  0.50528830447E+02  0.29999910626E+02 0.  0.
        -12    1    1    2    0    0  0.21088593882E+02 -0.13911024740E+02  0.31857850956E+02  0.40659169553E+02  0.00000000000E+00 0.  1.
         11    1    3    3    0    0 -0.16078229888E+02  0.14022924259E+02 -0.18485026506E+02  0.28228497769E+02  0.51100000000E-03 0. -1.
        -11    1    3    3    0    0  0.62969061670E+01 -0.87577541702E+00 -0.62477218623E+01  0.89135873018E+01  0.51100000000E-03 0.  1.
        -12    1    3    3    0    0 -0.11307270161E+02  0.76387589803E+00 -0.71251025871E+01  0.13386745376E+02  0.00000000000E+00 0.  1.
</event>
<event>
 7    1  0.9930326E-013  0.5052886E+02  0.7816164E-02  0.1300439E+00
        -11   -1    0    0    0    0  0.00000000000E+00  0.00000000000E+00  0.45593999997E+02  0.45594000000E+02  0.51100000000E-03 0. -1.
         11   -1    0    0    0    0 -0.00000000000E+00 -0.00000000000E+00 -0.45593999997E+02  0.45594000000E+02  0.51100000000E-03 0.  1.
    9900012    2    1    2    0    0  0.23188524251E+02 -0.22464471306E+02  0.24714482793E+02  0.50528858497E+02  0.29999995889E+02 0.  0.
        -12    1    1    2    0    0 -0.23188524251E+02  0.22464471306E+02 -0.24714482793E+02  0.40659141503E+02  0.00000000000E+00 0.  1.
         11    1    3    3    0    0  0.17990041554E+02 -0.15146547589E+02  0.38725260695E+01  0.23833924507E+02  0.51100000000E-03 0. -1.
        -11    1    3    3    0    0 -0.47985702649E+01 -0.17145737915E+01  0.79777388660E+01  0.94662747450E+01  0.51100000000E-03 0.  1.
         12    1    3    3    0    0  0.99970529620E+01 -0.56033499254E+01  0.12864217858E+02  0.17228659246E+02  0.00000000000E+00 0. -1.
</event>
<event>
 7    1  0.9930326E-013  0.5052888E+02  0.7816164E-02  0.1300439E+00
        -11   -1    0    0    0    0  0.00000000000E+00  0.00000000000E+00  0.45593999997E+02  0.45594000000E+02  0.51100000000E-03 0.  1.
         11   -1    0    0    0    0 -0.00000000000E+00 -0.00000000000E+00 -0.45593999997E+02  0.45594000000E+02  0.51100000000E-03 0. -1.
    9900012    2    1    2    0    0 -0.48975449611E+01 -0.23115340548E+02 -0.33088654369E+02  0.50528880933E+02  0.30000064085E+02 0.  0.
        -12    1    1    2    0    0  0.48975449611E+01  0.23115340548E+02  0.33088654369E+02  0.40659119067E+02  0.00000000000E+00 0.  1.
         11    1    3    3    0    0  0.65933207923E+01 -0.76077743545E+01 -0.13051476009E+02  0.16483056026E+02  0.51100000000E-03 0. -1.
        -11    1    3    3    0    0 -0.11539376569E+02 -0.18785111830E+02 -0.11424708991E+02  0.24830658748E+02  0.51100000000E-03 0.  1.
        -12    1    3    3    0    0  0.48510815615E-01  0.32775456361E+01 -0.86124693700E+01  0.92151661594E+01  0.00000000000E+00 0.  1.
</event>
<event>
 7    1  0.9930326E-013  0.5052886E+02  0.7816164E-02  0.1300439E+00
        -11   -1    0    0    0    0  0.00000000000E+00  0.00000000000E+00  0.45593999997E+02  0.45594000000E+02  0.51100000000E-03 0.  1.
         11   -1    0    0    0    0 -0.00000000000E+00 -0.00000000000E+00 -0.45593999997E+02  0.45594000000E+02  0.51100000000E-03 0. -1.
    9900012    2    1    2    0    0  0.40431839662E+02  0.35409506040E+01  0.24276615158E+01  0.50528861666E+02  0.30000005519E+02 0.  0.
        -12    1    1    2    0    0 -0.40431839662E+02 -0.35409506040E+01 -0.24276615158E+01  0.40659138334E+02  0.00000000000E+00 0.  1.
         11    1    3    3    0    0  0.11912665938E+02 -0.90224672795E+01  0.68127129194E+01  0.16423446141E+02  0.51100000000E-03 0. -1.
        -11    1    3    3    0    0  0.25932960052E+02  0.58225546579E+01 -0.39711845570E+01  0.26873609115E+02  0.51100000000E-03 0.  1.
        -12    1    3    3    0    0  0.25862136719E+01  0.67408632256E+01 -0.41386684656E+00  0.72318064099E+01  0.00000000000E+00 0.  1.
</event>
<event>
 7    1  0.9930326E-013  0.5052886E+02  0.7816164E-02  0.1300439E+00
        -11   -1    0    0    0    0  0.00000000000E+00  0.00000000000E+00  0.45593999997E+02  0.45594000000E+02  0.51100000000E-03 0.  1.
         11   -1    0    0    0    0 -0.00000000000E+00 -0.00000000000E+00 -0.45593999997E+02  0.45594000000E+02  0.51100000000E-03 0. -1.
    9900012    2    1    2    0    0 -0.27647299642E+02  0.10473855594E+02 -0.27912200916E+02  0.50528858489E+02  0.29999995862E+02 0.  0.
        -12    1    1    2    0    0  0.27647299642E+02 -0.10473855594E+02  0.27912200916E+02  0.40659141511E+02  0.00000000000E+00 0.  1.
         11    1    3    3    0    0 -0.27655163388E+02 -0.17553605582E+01 -0.22148492278E+02  0.35474569245E+02  0.51100000000E-03 0. -1.
        -11    1    3    3    0    0  0.29173522970E+01  0.51902353161E+01 -0.41801437998E+01  0.72748257374E+01  0.51100000000E-03 0.  1.
        -12    1    3    3    0    0 -0.29094885512E+01  0.70389808363E+01 -0.15835648373E+01  0.77794635058E+01  0.00000000000E+00 0.  1.
</event>
<event>
 7    1  0.9930326E-013  0.5052886E+02  0.7816164E-02  0.1300439E+00
        -11   -1    0    0    0    0  0.00000000000E+00  0.00000000000E+00  0.45593999997E+02  0.45594000000E+02  0.51100000000E-03 0. -1.
         11   -1    0    0    0    0 -0.00000000000E+00 -0.00000000000E+00 -0.45593999997E+02  0.45594000000E+02  0.51100000000E-03 0.  1.
    9900012    2    1    2    0    0  0.15706402651E+02 -0.46718339485E+00  0.37500083083E+02  0.50528861103E+02  0.30000003810E+02 0.  0.
        -12    1    1    2    0    0 -0.15706402651E+02  0.46718339485E+00 -0.37500083083E+02  0.40659138897E+02  0.00000000000E+00 0.  1.
         11    1    3    3    0    0  0.55842988610E+00 -0.38194998959E+01  0.29161338650E+02  0.29415711712E+02  0.51100000000E-03 0.  1.
        -11    1    3    3    0    0  0.85439689979E+01  0.15302466623E+01 -0.18118723155E+01  0.88670143021E+01  0.51100000000E-03 0. -1.
        -12    1    3    3    0    0  0.66040037673E+01  0.18220698388E+01  0.10150616749E+02  0.12246135090E+02  0.00000000000E+00 0.  1.
</event>
<event>
 7    1  0.9930326E-013  0.5052886E+02  0.7816164E-02  0.1300439E+00
        -11   -1    0    0    0    0  0.00000000000E+00  0.00000000000E+00  0.45593999997E+02  0.45594000000E+02  0.51100000000E-03 0.  1.
         11   -1    0    0    0    0 -0.00000000000E+00 -0.00000000000E+00 -0.45593999997E+02  0.45594000000E+02  0.51100000000E-03 0. -1.
    9900012    2    1    2    0    0  0.27429009794E+02 -0.29054075577E+02 -0.75283081904E+01  0.50528864371E+02  0.30000013741E+02 0.  0.
        -12    1    1    2    0    0 -0.27429009794E+02  0.29054075577E+02  0.75283081904E+01  0.40659135629E+02  0.00000000000E+00 0.  1.
         11    1    3    3    0    0  0.17420891984E+02 -0.24531961634E+02 -0.14746758967E+02  0.33507782968E+02  0.51100000000E-03 0. -1.
        -11    1    3    3    0    0  0.53550040601E-01 -0.19641033594E+01  0.64179482678E+01  0.67119765973E+01  0.51100000000E-03 0.  1.
         12    1    3    3    0    0  0.99545677697E+01 -0.25580105835E+01  0.80050250862E+00  0.10309104806E+02  0.00000000000E+00 0. -1.
</event>
<event>
 7    1  0.9930326E-013  0.5052886E+02  0.7816164E-02  0.1300439E+00
        -11   -1    0    0    0    0  0.00000000000E+00  0.00000000000E+00  0.45593999997E+02  0.45594000000E+02  0.51100000000E-03 0.  1.
         11   -1    0    0    0    0 -0.00000000000E+00 -0.00000000000E+00 -0.45593999997E+02  0.45594000000E+02  0.51100000000E-03 0. -1.
    9900012    2    1    2    0    0  0.15650731166E+02 -0.19846210371E+02 -0.31848835855E+02  0.50528858378E+02  0.29999995526E+02 0.  0.
        -12    1    1    2    0    0 -0.15650731166E+02  0.19846210371E+02  0.31848835855E+02  0.40659141622E+02  0.00000000000E+00 0.  1.
         11    1    3    3    0    0  0.23478170497E+02 -0.20009673997E+02 -0.22363824398E+02  0.38101865904E+02  0.51100000000E-03 0. -1.
        -11    1    3    3    0    0 -0.21479892768E+01  0.25138961641E+00 -0.39089665182E+01  0.44673341238E+01  0.51100000000E-03 0.  1.
         12    1    3    3    0    0 -0.56794500542E+01 -0.87925989719E-01 -0.55760449384E+01  0.79596583503E+01  0.00000000000E+00 0. -1.
</event>
<event>
 7    1  0.9930326E-013  0.5052881E+02  0.7816164E-02  0.1300439E+00
        -11   -1    0    0    0    0  0.00000000000E+00  0.00000000000E+00  0.45593999997E+02  0.45594000000E+02  0.51100000000E-03 0.  1.
         11   -1    0    0    0    0 -0.00000000000E+00 -0.00000000000E+00 -0.45593999997E+02  0.45594000000E+02  0.51100000000E-03 0. -1.
    9900012    2    1    2    0    0 -0.32150742435E+02 -0.24303731148E+02 -0.53691490297E+01  0.50528814713E+02  0.29999862803E+02 0.  0.
        -12    1    1    2    0    0  0.32150742435E+02  0.24303731148E+02  0.53691490297E+01  0.40659185287E+02  0.00000000000E+00 0.  1.
         11    1    3    3    0    0 -0.10339306097E+02  0.60056661428E+01 -0.28877471379E+01  0.12300746326E+02  0.51100000000E-03 0.  1.
        -11    1    3    3    0    0 -0.19067458079E+02 -0.21768444217E+02 -0.69261779572E-01  0.28938519635E+02  0.51100000000E-03 0. -1.
         12    1    3    3    0    0 -0.27439782595E+01 -0.85409530738E+01 -0.24121401122E+01  0.92895487521E+01  0.00000000000E+00 0. -1.
</event>
<event>
 7    1  0.9930326E-013  0.5052886E+02  0.7816164E-02  0.1300439E+00
        -11   -1    0    0    0    0  0.00000000000E+00  0.00000000000E+00  0.45593999997E+02  0.45594000000E+02  0.51100000000E-03 0.  1.
         11   -1    0    0    0    0 -0.00000000000E+00 -0.00000000000E+00 -0.45593999997E+02  0.45594000000E+02  0.51100000000E-03 0. -1.
    9900012    2    1    2    0    0  0.43600174671E+01  0.29722022200E+02 -0.27399953624E+02  0.50528858168E+02  0.29999994886E+02 0.  0.
        -12    1    1    2    0    0 -0.43600174671E+01 -0.29722022200E+02  0.27399953624E+02  0.40659141832E+02  0.00000000000E+00 0.  1.
         11    1    3    3    0    0  0.10403868053E+02  0.65599397207E+01  0.14727582077E+00  0.12300202032E+02  0.51100000000E-03 0. -1.
        -11    1    3    3    0    0 -0.25793369112E+01  0.10626806910E+02 -0.20981102450E+02  0.23659853429E+02  0.51100000000E-03 0.  1.
         12    1    3    3    0    0 -0.34645136744E+01  0.12535275569E+02 -0.65661269951E+01  0.14568802707E+02  0.00000000000E+00 0. -1.
</event>
<event>
 7    1  0.9930326E-013  0.5052886E+02  0.7816164E-02  0.1300439E+00
        -11   -1    0    0    0    0  0.00000000000E+00  0.00000000000E+00  0.45593999997E+02  0.45594000000E+02  0.51100000000E-03 0. -1.
         11   -1    0    0    0    0 -0.00000000000E+00 -0.00000000000E+00 -0.45593999997E+02  0.45594000000E+02  0.51100000000E-03 0.  1.
    9900012    2    1    2    0    0  0.22084143819E+02 -0.25675645907E+02 -0.22499275856E+02  0.50528860621E+02  0.30000002344E+02 0.  0.
        -12    1    1    2    0    0 -0.22084143819E+02  0.25675645907E+02  0.22499275856E+02  0.40659139379E+02  0.00000000000E+00 0.  1.
         11    1    3    3    0    0  0.43403640292E+01  0.62323105990E+01 -0.36515455669E+00  0.76035382171E+01  0.51100000000E-03 0.  1.
        -11    1    3    3    0    0  0.11857587729E+02 -0.23842830965E+02 -0.14240320197E+02  0.30197180245E+02  0.51100000000E-03 0. -1.
        -12    1    3    3    0    0  0.58861920609E+01 -0.80651255417E+01 -0.78938011020E+01  0.12728142159E+02  0.00000000000E+00 0.  1.
</event>
<event>
 7    1  0.9930326E-013  0.5052887E+02  0.7816164E-02  0.1300439E+00
        -11   -1    0    0    0    0  0.00000000000E+00  0.00000000000E+00  0.45593999997E+02  0.45594000000E+02  0.51100000000E-03 0.  1.
         11   -1    0    0    0    0 -0.00000000000E+00 -0.00000000000E+00 -0.45593999997E+02  0.45594000000E+02  0.51100000000E-03 0. -1.
    9900012    2    1    2    0    0 -0.21143910709E+02  0.11441293279E+02 -0.32790197443E+02  0.50528865721E+02  0.30000017846E+02 0.  0.
        -12    1    1    2    0    0  0.21143910709E+02 -0.11441293279E+02  0.32790197443E+02  0.40659134279E+02  0.00000000000E+00 0.  1.
         11    1    3    3    0    0 -0.35419217251E+01  0.12621486226E+02 -0.84916234138E+01  0.15619052229E+02  0.51100000000E-03 0. -1.
        -11    1    3    3    0    0  0.72709037899E+00 -0.52125608619E+01 -0.10055892482E+02  0.11349908591E+02  0.51100000000E-03 0.  1.
         12    1    3    3    0    0 -0.18329079363E+02  0.40323679144E+01 -0.14242681547E+02  0.23559904901E+02  0.00000000000E+00 0. -1.
</event>
<event>
 7    1  0.9930326E-013  0.5052886E+02  0.7816164E-02  0.1300439E+00
        -11   -1    0    0    0    0  0.00000000000E+00  0.00000000000E+00  0.45593999997E+02  0.45594000000E+02  0.51100000000E-03 0. -1.
         11   -1    0    0    0    0 -0.00000000000E+00 -0.00000000000E+00 -0.45593999997E+02  0.45594000000E+02  0.51100000000E-03 0.  1.
    9900012    2    1    2    0    0  0.28489868324E+02  0.38595910848E+01  0.28750587659E+02  0.50528864112E+02  0.30000012955E+02 0.  0.
        -12    1    1    2    0    0 -0.28489868324E+02 -0.38595910848E+01 -0.28750587659E+02  0.40659135888E+02  0.00000000000E+00 0.  1.
         11    1    3    3    0    0  0.21012133502E+02  0.85415504350E+01  0.32264694504E+02  0.39439553114E+02  0.51100000000E-03 0. -1.
        -11    1    3    3    0    0  0.27762223711E+01 -0.34943506837E+01 -0.42758239544E+01  0.61806608145E+01  0.51100000000E-03 0.  1.
         12    1    3    3    0    0  0.47015124510E+01 -0.11876086665E+01  0.76171710880E+00  0.49086501837E+01  0.00000000000E+00 0. -1.
</event>
<event>
 7    1  0.1094189E-012  0.5052886E+02  0.7816164E-02  0.1300439E+00
        -11   -1    0    0    0    0  0.00000000000E+00  0.00000000000E+00  0.45593999997E+02  0.45594000000E+02  0.51100000000E-03 0.  1.
         11   -1    0    0    0    0 -0.00000000000E+00 -0.00000000000E+00 -0.45593999997E+02  0.45594000000E+02  0.51100000000E-03 0. -1.
    9900012    2    1    2    0    0 -0.40528507650E+02 -0.32084660285E+01  0.55823264088E+00  0.50528858221E+02  0.29999995047E+02 0.  0.
        -12    1    1    2    0    0  0.40528507650E+02  0.32084660285E+01 -0.55823264088E+00  0.40659141779E+02  0.00000000000E+00 0.  1.
         11    1    3    3    0    0 -0.27149929928E+02  0.54854972779E+01 -0.21664902362E+01  0.27783143373E+02  0.51100000000E-03 0. -1.
        -11    1    3    3    0    0  0.92059058357E+00 -0.54244856237E+01 -0.38052012589E+01  0.66897001567E+01  0.51100000000E-03 0.  1.
        -12    1    3    3    0    0 -0.14299168305E+02 -0.32694776826E+01  0.65299241359E+01  0.16056014691E+02  0.00000000000E+00 0.  1.
</event>
<event>
 7    1  0.9930326E-013  0.5052886E+02  0.7816164E-02  0.1300439E+00
        -11   -1    0    0    0    0  0.00000000000E+00  0.00000000000E+00  0.45593999997E+02  0.45594000000E+02  0.51100000000E-03 0.  1.
         11   -1    0    0    0    0 -0.00000000000E+00 -0.00000000000E+00 -0.45593999997E+02  0.45594000000E+02  0.51100000000E-03 0. -1.
    9900012    2    1    2    0    0  0.18409950006E+02 -0.20815785651E+02 -0.29680677164E+02  0.50528858489E+02  0.29999995864E+02 0.  0.
        -12    1    1    2    0    0 -0.18409950006E+02  0.20815785651E+02  0.29680677164E+02  0.40659141511E+02  0.00000000000E+00 0.  1.
         11    1    3    3    0    0 -0.31388400676E+01 -0.12528063358E+02 -0.21977810188E+02  0.25491740416E+02  0.51100000000E-03 0. -1.
        -11    1    3    3    0    0  0.13497842609E+02 -0.22157282233E+01 -0.53107351265E+01  0.14673278928E+02  0.51100000000E-03 0.  1.
         12    1    3    3    0    0  0.80509474641E+01 -0.60719940694E+01 -0.23921318493E+01  0.10363839145E+02  0.00000000000E+00 0. -1.
</event>
<event>
 7    1  0.9930326E-013  0.5052886E+02  0.7816164E-02  0.1300439E+00
        -11   -1    0    0    0    0  0.00000000000E+00  0.00000000000E+00  0.45593999997E+02  0.45594000000E+02  0.51100000000E-03 0. -1.
         11   -1    0    0    0    0 -0.00000000000E+00 -0.00000000000E+00 -0.45593999997E+02  0.45594000000E+02  0.51100000000E-03 0.  1.
    9900012    2    1    2    0    0  0.34833524117E+02  0.20670511368E+02  0.35385737346E+01  0.50528856543E+02  0.29999989947E+02 0.  0.
        -12    1    1    2    0    0 -0.34833524117E+02 -0.20670511368E+02 -0.35385737346E+01  0.40659143457E+02  0.00000000000E+00 0.  1.
         11    1    3    3    0    0  0.26486395943E+02  0.10886175715E+02  0.48772094973E+01  0.29048668894E+02  0.51100000000E-03 0. -1.
        -11    1    3    3    0    0 -0.40969024711E+01  0.11039106753E+01 -0.42783347272E+01  0.60255603006E+01  0.51100000000E-03 0.  1.
        -12    1    3    3    0    0  0.12444030645E+02  0.86804249770E+01  0.29396989645E+01  0.15454627348E+02  0.00000000000E+00 0.  1.
</event>
<event>
 7    1  0.9930326E-013  0.5052885E+02  0.7816164E-02  0.1300439E+00
        -11   -1    0    0    0    0  0.00000000000E+00  0.00000000000E+00  0.45593999997E+02  0.45594000000E+02  0.51100000000E-03 0.  1.
         11   -1    0    0    0    0 -0.00000000000E+00 -0.00000000000E+00 -0.45593999997E+02  0.45594000000E+02  0.51100000000E-03 0. -1.
    9900012    2    1    2    0    0 -0.18184055421E+02 -0.13004076190E+01 -0.36343028711E+02  0.50528847679E+02  0.29999963006E+02 0.  0.
        -12    1    1    2    0    0  0.18184055421E+02  0.13004076190E+01  0.36343028711E+02  0.40659152321E+02  0.00000000000E+00 0.  1.
         11    1    3    3    0    0  0.10547736924E+01 -0.38139836196E+01  0.30814321700E+00  0.39691272461E+01  0.51100000000E-03 0. -1.
        -11    1    3    3    0    0 -0.15386538497E+02  0.11291230992E+02 -0.23172934433E+02  0.30020365666E+02  0.51100000000E-03 0.  1.
        -12    1    3    3    0    0 -0.38522906170E+01 -0.87776549911E+01 -0.13478237496E+02  0.16539354768E+02  0.00000000000E+00 0.  1.
</event>
<event>
 7    1  0.9930326E-013  0.5052888E+02  0.7816164E-02  0.1300439E+00
        -11   -1    0    0    0    0  0.00000000000E+00  0.00000000000E+00  0.45593999997E+02  0.45594000000E+02  0.51100000000E-03 0. -1.
         11   -1    0    0    0    0 -0.00000000000E+00 -0.00000000000E+00 -0.45593999997E+02  0.45594000000E+02  0.51100000000E-03 0.  1.
    9900012    2    1    2    0    0  0.14734263498E+02 -0.37709303641E+02 -0.37515628595E+01  0.50528876475E+02  0.30000050533E+02 0.  0.
        -12    1    1    2    0    0 -0.14734263498E+02  0.37709303641E+02  0.37515628595E+01  0.40659123525E+02  0.00000000000E+00 0.  1.
         11    1    3    3    0    0  0.13775544609E+02 -0.33483417172E+02 -0.46809123930E+00  0.36209445791E+02  0.51100000000E-03 0. -1.
        -11    1    3    3    0    0 -0.11489241611E+01 -0.19466676522E+01 -0.81994502428E+01  0.85053234048E+01  0.51100000000E-03 0.  1.
         12    1    3    3    0    0  0.21076430501E+01 -0.22792188170E+01  0.49159786225E+01  0.58141072797E+01  0.00000000000E+00 0. -1.
</event>
<event>
 7    1  0.9930326E-013  0.5052886E+02  0.7816164E-02  0.1300439E+00
        -11   -1    0    0    0    0  0.00000000000E+00  0.00000000000E+00  0.45593999997E+02  0.45594000000E+02  0.51100000000E-03 0. -1.
         11   -1    0    0    0    0 -0.00000000000E+00 -0.00000000000E+00 -0.45593999997E+02  0.45594000000E+02  0.51100000000E-03 0.  1.
    9900012    2    1    2    0    0 -0.22420932048E+02  0.25361563419E+02  0.22522401975E+02  0.50528859777E+02  0.29999999779E+02 0.  0.
        -12    1    1    2    0    0  0.22420932048E+02 -0.25361563419E+02 -0.22522401975E+02  0.40659140223E+02  0.00000000000E+00 0.  1.
         11    1    3    3    0    0 -0.30889106671E+01  0.81630250087E+01  0.92741604998E+01  0.12735242426E+02  0.51100000000E-03 0. -1.
        -11    1    3    3    0    0 -0.10731461597E+01  0.82598229236E+01 -0.56276455782E+01  0.10052199382E+02  0.51100000000E-03 0.  1.
        -12    1    3    3    0    0 -0.18258875221E+02  0.89387154863E+01  0.18875887053E+02  0.27741417969E+02  0.00000000000E+00 0.  1.
</event>
<event>
 7    1  0.1205339E-012  0.5052886E+02  0.7816164E-02  0.1300439E+00
        -11   -1    0    0    0    0  0.00000000000E+00  0.00000000000E+00  0.45593999997E+02  0.45594000000E+02  0.51100000000E-03 0. -1.
         11   -1    0    0    0    0 -0.00000000000E+00 -0.00000000000E+00 -0.45593999997E+02  0.45594000000E+02  0.51100000000E-03 0.  1.
    9900012    2    1    2    0    0  0.33316724996E+02  0.17535347456E+02  0.15351639628E+02  0.50528863092E+02  0.30000009854E+02 0.  0.
        -12    1    1    2    0    0 -0.33316724996E+02 -0.17535347456E+02 -0.15351639628E+02  0.40659136908E+02  0.00000000000E+00 0.  1.
         11    1    3    3    0    0  0.24479188451E+02  0.20244518374E+01  0.56078978918E+01  0.25194792944E+02  0.51100000000E-03 0. -1.
        -11    1    3    3    0    0 -0.40700941327E+01  0.35392803060E+01  0.41305980635E+00  0.54095092198E+01  0.51100000000E-03 0.  1.
        -12    1    3    3    0    0  0.12907630677E+02  0.11971615312E+02  0.93306819301E+01  0.19924560928E+02  0.00000000000E+00 0.  1.
</event>
<event>
 7    1  0.9930326E-013  0.5052886E+02  0.7816164E-02  0.1300439E+00
        -11   -1    0    0    0    0  0.00000000000E+00  0.00000000000E+00  0.45593999997E+02  0.45594000000E+02  0.51100000000E-03 0. -1.
         11   -1    0    0    0    0 -0.00000000000E+00 -0.00000000000E+00 -0.45593999997E+02  0.45594000000E+02  0.51100000000E-03 0.  1.
    9900012    2    1    2    0    0  0.19027212503E+02 -0.29833191912E+02  0.20027770456E+02  0.50528859026E+02  0.29999997496E+02 0.  0.
        -12    1    1    2    0    0 -0.19027212503E+02  0.29833191912E+02 -0.20027770456E+02  0.40659140974E+02  0.00000000000E+00 0.  1.
         11    1    3    3    0    0 -0.24396940327E+01 -0.21548693298E+02  0.57850286769E+01  0.22444706434E+02  0.51100000000E-03 0. -1.
        -11    1    3    3    0    0  0.44333390668E+01 -0.24757109800E+01  0.70838643294E+01  0.87157773168E+01  0.51100000000E-03 0.  1.
         12    1    3    3    0    0  0.17033567469E+02 -0.58087876335E+01  0.71588774500E+01  0.19368375276E+02  0.00000000000E+00 0. -1.
</event>
<event>
 7    1  0.9930326E-013  0.5052886E+02  0.7816164E-02  0.1300439E+00
        -11   -1    0    0    0    0  0.00000000000E+00  0.00000000000E+00  0.45593999997E+02  0.45594000000E+02  0.51100000000E-03 0.  1.
         11   -1    0    0    0    0 -0.00000000000E+00 -0.00000000000E+00 -0.45593999997E+02  0.45594000000E+02  0.51100000000E-03 0. -1.
    9900012    2    1    2    0    0  0.12814842550E+02 -0.86297483698E+01 -0.37609480495E+02  0.50528858720E+02  0.29999996565E+02 0.  0.
        -12    1    1    2    0    0 -0.12814842550E+02  0.86297483698E+01  0.37609480495E+02  0.40659141280E+02  0.00000000000E+00 0.  1.
         11    1    3    3    0    0  0.30666109774E+01 -0.19508017428E+01 -0.11649023961E+02  0.12202847612E+02  0.51100000000E-03 0. -1.
        -11    1    3    3    0    0 -0.39204864397E+01 -0.12555148202E+02 -0.10134748690E+02  0.16604670776E+02  0.51100000000E-03 0.  1.
        -12    1    3    3    0    0  0.13668718013E+02  0.58762015755E+01 -0.15825707844E+02  0.21721340332E+02  0.00000000000E+00 0.  1.
</event>
<event>
 7    1  0.9930326E-013  0.5052886E+02  0.7816164E-02  0.1300439E+00
        -11   -1    0    0    0    0  0.00000000000E+00  0.00000000000E+00  0.45593999997E+02  0.45594000000E+02  0.51100000000E-03 0. -1.
         11   -1    0    0    0    0 -0.00000000000E+00 -0.00000000000E+00 -0.45593999997E+02  0.45594000000E+02  0.51100000000E-03 0.  1.
    9900012    2    1    2    0    0  0.97084215026E+01  0.38584481469E+02  0.83755409152E+01  0.50528863955E+02  0.30000012478E+02 0.  0.
        -12    1    1    2    0    0 -0.97084215026E+01 -0.38584481469E+02 -0.83755409152E+01  0.40659136045E+02  0.00000000000E+00 0.  1.
         11    1    3    3    0    0  0.12450503068E+02  0.19297454921E+02  0.28848130960E+01  0.23145819059E+02  0.51100000000E-03 0. -1.
        -11    1    3    3    0    0 -0.78495117241E+01  0.37147377482E+01  0.66731940492E+01  0.10951969226E+02  0.51100000000E-03 0.  1.
        -12    1    3    3    0    0  0.51074301592E+01  0.15572288800E+02 -0.11824662300E+01  0.16431075670E+02  0.00000000000E+00 0.  1.
</event>
<event>
 7    1  0.9930326E-013  0.5052889E+02  0.7816164E-02  0.1300439E+00
        -11   -1    0    0    0    0  0.00000000000E+00  0.00000000000E+00  0.45593999997E+02  0.45594000000E+02  0.51100000000E-03 0.  1.
         11   -1    0    0    0    0 -0.00000000000E+00 -0.00000000000E+00 -0.45593999997E+02  0.45594000000E+02  0.51100000000E-03 0. -1.
    9900012    2    1    2    0    0 -0.23095887408E+02 -0.30602431583E+02 -0.13536398758E+02  0.50528893698E+02  0.30000102884E+02 0.  0.
        -12    1    1    2    0    0  0.23095887408E+02  0.30602431583E+02  0.13536398758E+02  0.40659106302E+02  0.00000000000E+00 0.  1.
         11    1    3    3    0    0 -0.93192364541E+01 -0.17512196822E+02  0.30124807565E+00  0.19839756961E+02  0.51100000000E-03 0. -1.
        -11    1    3    3    0    0  0.68362094412E+00  0.45325050513E+01 -0.19738862502E+01  0.49907080485E+01  0.51100000000E-03 0.  1.
        -12    1    3    3    0    0 -0.14460271898E+02 -0.17622739812E+02 -0.11863760583E+02  0.25698428688E+02  0.00000000000E+00 0.  1.
</event>
<event>
 7    1  0.9930326E-013  0.5052887E+02  0.7816164E-02  0.1300439E+00
        -11   -1    0    0    0    0  0.00000000000E+00  0.00000000000E+00  0.45593999997E+02  0.45594000000E+02  0.51100000000E-03 0.  1.
         11   -1    0    0    0    0 -0.00000000000E+00 -0.00000000000E+00 -0.45593999997E+02  0.45594000000E+02  0.51100000000E-03 0. -1.
    9900012    2    1    2    0    0 -0.27231962318E+02 -0.19942784524E+02 -0.22668709247E+02  0.50528870580E+02  0.30000032614E+02 0.  0.
        -12    1    1    2    0    0  0.27231962318E+02  0.19942784524E+02  0.22668709247E+02  0.40659129420E+02  0.00000000000E+00 0.  1.
         11    1    3    3    0    0 -0.17180687876E+02 -0.99145361616E+01 -0.17147407482E+02  0.26220367022E+02  0.51100000000E-03 0. -1.
        -11    1    3    3    0    0  0.70926262316E+00 -0.12390031708E+02 -0.11762799006E+01  0.12465936542E+02  0.51100000000E-03 0.  1.
        -12    1    3    3    0    0 -0.10760537066E+02  0.23617833459E+01 -0.43450218653E+01  0.11842567016E+02  0.00000000000E+00 0.  1.
</event>
<event>
 7    1  0.9930326E-013  0.5052886E+02  0.7816164E-02  0.1300439E+00
        -11   -1    0    0    0    0  0.00000000000E+00  0.00000000000E+00  0.45593999997E+02  0.45594000000E+02  0.51100000000E-03 0.  1.
         11   -1    0    0    0    0 -0.00000000000E+00 -0.00000000000E+00 -0.45593999997E+02  0.45594000000E+02  0.51100000000E-03 0. -1.
    9900012    2    1    2    0    0  0.13680601200E+02 -0.15623640948E+02 -0.34955809710E+02  0.50528860336E+02  0.30000001478E+02 0.  0.
        -12    1    1    2    0    0 -0.13680601200E+02  0.15623640948E+02  0.34955809710E+02  0.40659139664E+02  0.00000000000E+00 0.  1.
         11    1    3    3    0    0  0.10897859827E+02 -0.17332781098E+02 -0.30413855157E+02  0.36663213651E+02  0.51100000000E-03 0. -1.
        -11    1    3    3    0    0 -0.86484147349E-01 -0.26896807511E+01  0.34050371942E+01  0.43400622813E+01  0.51100000000E-03 0.  1.
         12    1    3    3    0    0  0.28692255204E+01  0.43988209012E+01 -0.79469917476E+01  0.95255844043E+01  0.00000000000E+00 0. -1.
</event>
<event>
 7    1  0.9930326E-013  0.5052885E+02  0.7816164E-02  0.1300439E+00
        -11   -1    0    0    0    0  0.00000000000E+00  0.00000000000E+00  0.45593999997E+02  0.45594000000E+02  0.51100000000E-03 0. -1.
         11   -1    0    0    0    0 -0.00000000000E+00 -0.00000000000E+00 -0.45593999997E+02  0.45594000000E+02  0.51100000000E-03 0.  1.
    9900012    2    1    2    0    0  0.29047079314E+01  0.39749727872E+02 -0.80428775098E+01  0.50528854993E+02  0.29999985236E+02 0.  0.
        -12    1    1    2    0    0 -0.29047079314E+01 -0.39749727872E+02  0.80428775098E+01  0.40659145007E+02  0.00000000000E+00 0.  1.
         11    1    3    3    0    0  0.36415856915E+01  0.22835322202E+02  0.32071199173E+01  0.23345207321E+02  0.51100000000E-03 0. -1.
        -11    1    3    3    0    0  0.18387720297E+00 -0.38864215521E+01 -0.12586183272E+01  0.40892791127E+01  0.51100000000E-03 0.  1.
        -12    1    3    3    0    0 -0.92075496310E+00  0.20800827222E+02 -0.99913790999E+01  0.23094368559E+02  0.00000000000E+00 0.  1.
</event>
<event>
 7    1  0.9930326E-013  0.5052887E+02  0.7816164E-02  0.1300439E+00
        -11   -1    0    0    0    0  0.00000000000E+00  0.00000000000E+00  0.45593999997E+02  0.45594000000E+02  0.51100000000E-03 0.  1.
         11   -1    0    0    0    0 -0.00000000000E+00 -0.00000000000E+00 -0.45593999997E+02  0.45594000000E+02  0.51100000000E-03 0. -1.
    9900012    2    1    2    0    0 -0.58582129402E+01 -0.30842590931E+02 -0.25837587509E+02  0.50528868154E+02  0.30000025241E+02 0.  0.
        -12    1    1    2    0    0  0.58582129402E+01  0.30842590931E+02  0.25837587509E+02  0.40659131846E+02  0.00000000000E+00 0.  1.
         11    1    3    3    0    0 -0.15677625841E+02 -0.12190768091E+02 -0.20241239069E+02  0.28356842877E+02  0.51100000000E-03 0. -1.
        -11    1    3    3    0    0  0.79075330461E+01 -0.15063629701E+02 -0.61036238161E+01  0.18074740457E+02  0.51100000000E-03 0.  1.
         12    1    3    3    0    0  0.19118798549E+01 -0.35881931393E+01  0.50727537618E+00  0.40972848194E+01  0.00000000000E+00 0. -1.
</event>
<event>
 7    1  0.9930326E-013  0.5052886E+02  0.7816164E-02  0.1300439E+00
        -11   -1    0    0    0    0  0.00000000000E+00  0.00000000000E+00  0.45593999997E+02  0.45594000000E+02  0.51100000000E-03 0. -1.
         11   -1    0    0    0    0 -0.00000000000E+00 -0.00000000000E+00 -0.45593999997E+02  0.45594000000E+02  0.51100000000E-03 0.  1.
    9900012    2    1    2    0    0  0.26192514734E+02  0.35981257195E+01  0.30889664480E+02  0.50528859473E+02  0.29999998853E+02 0.  0.
        -12    1    1    2    0    0 -0.26192514734E+02 -0.35981257195E+01 -0.30889664480E+02  0.40659140527E+02  0.00000000000E+00 0.  1.
         11    1    3    3    0    0  0.54908804895E+01  0.69119573537E+01  0.20916135809E+02  0.22702635540E+02  0.51100000000E-03 0. -1.
        -11    1    3    3    0    0  0.21321229643E+02 -0.13476605941E+00  0.11522567326E+02  0.24235976428E+02  0.51100000000E-03 0.  1.
         12    1    3    3    0    0 -0.61959539877E+00 -0.31790655748E+01 -0.15490386556E+01  0.35902475045E+01  0.00000000000E+00 0. -1.
</event>
<event>
 7    1  0.9930326E-013  0.5052886E+02  0.7816164E-02  0.1300439E+00
        -11   -1    0    0    0    0  0.00000000000E+00  0.00000000000E+00  0.45593999997E+02  0.45594000000E+02  0.51100000000E-03 0. -1.
         11   -1    0    0    0    0 -0.00000000000E+00 -0.00000000000E+00 -0.45593999997E+02  0.45594000000E+02  0.51100000000E-03 0.  1.
    9900012    2    1    2    0    0  0.21721394801E+02 -0.17838047979E+02  0.29379422071E+02  0.50528863400E+02  0.30000010792E+02 0.  0.
        -12    1    1    2    0    0 -0.21721394801E+02  0.17838047979E+02 -0.29379422071E+02  0.40659136600E+02  0.00000000000E+00 0.  1.
         11    1    3    3    0    0 -0.53537003461E+01 -0.53601883901E+01  0.10402687105E+01  0.76469527411E+01  0.51100000000E-03 0. -1.
        -11    1    3    3    0    0  0.15316277290E+02 -0.80375881212E+01  0.82003291010E+01  0.19142533021E+02  0.51100000000E-03 0.  1.
         12    1    3    3    0    0  0.11758817858E+02 -0.44402714676E+01  0.20138824259E+02  0.23739377639E+02  0.00000000000E+00 0. -1.
</event>
<event>
 7    1  0.9930326E-013  0.5052886E+02  0.7816164E-02  0.1300439E+00
        -11   -1    0    0    0    0  0.00000000000E+00  0.00000000000E+00  0.45593999997E+02  0.45594000000E+02  0.51100000000E-03 0.  1.
         11   -1    0    0    0    0 -0.00000000000E+00 -0.00000000000E+00 -0.45593999997E+02  0.45594000000E+02  0.51100000000E-03 0. -1.
    9900012    2    1    2    0    0  0.45401905065E+01  0.26513823013E+02 -0.30488841598E+02  0.50528860774E+02  0.30000002809E+02 0.  0.
        -12    1    1    2    0    0 -0.45401905065E+01 -0.26513823013E+02  0.30488841598E+02  0.40659139226E+02  0.00000000000E+00 0.  1.
         11    1    3    3    0    0  0.20557346093E+01  0.30921323382E+02 -0.18053514700E+02  0.35864797194E+02  0.51100000000E-03 0. -1.
        -11    1    3    3    0    0  0.37430945458E+01 -0.64763969393E+00 -0.57537356149E+01  0.68946115003E+01  0.51100000000E-03 0.  1.
         12    1    3    3    0    0 -0.12586386487E+01 -0.37598606752E+01 -0.66815912828E+01  0.77694520794E+01  0.00000000000E+00 0. -1.
</event>
<event>
 7    1  0.9930326E-013  0.5052886E+02  0.7816164E-02  0.1300439E+00
        -11   -1    0    0    0    0  0.00000000000E+00  0.00000000000E+00  0.45593999997E+02  0.45594000000E+02  0.51100000000E-03 0.  1.
         11   -1    0    0    0    0 -0.00000000000E+00 -0.00000000000E+00 -0.45593999997E+02  0.45594000000E+02  0.51100000000E-03 0. -1.
    9900012    2    1    2    0    0  0.32530126521E+02  0.23950578830E+02 -0.46180449412E+01  0.50528859615E+02  0.29999999285E+02 0.  0.
        -12    1    1    2    0    0 -0.32530126521E+02 -0.23950578830E+02  0.46180449412E+01  0.40659140385E+02  0.00000000000E+00 0.  1.
         11    1    3    3    0    0  0.17451854306E+02  0.48218690591E+01 -0.13824097021E+02  0.22779888030E+02  0.51100000000E-03 0. -1.
        -11    1    3    3    0    0  0.96964972270E+01  0.17766346144E+02  0.51838179722E+01  0.20893469860E+02  0.51100000000E-03 0.  1.
         12    1    3    3    0    0  0.53817749885E+01  0.13623636270E+01  0.40222341078E+01  0.68555017246E+01  0.00000000000E+00 0. -1.
</event>
<event>
 7    1  0.9930326E-013  0.5052880E+02  0.7816164E-02  0.1300439E+00
        -11   -1    0    0    0    0  0.00000000000E+00  0.00000000000E+00  0.45593999997E+02  0.45594000000E+02  0.51100000000E-03 0.  1.
         11   -1    0    0    0    0 -0.00000000000E+00 -0.00000000000E+00 -0.45593999997E+02  0.45594000000E+02  0.51100000000E-03 0. -1.
    9900012    2    1    2    0    0  0.61873650631E+00 -0.38708366493E+02 -0.12427788535E+02  0.50528801787E+02  0.29999823512E+02 0.  0.
        -12    1    1    2    0    0 -0.61873650631E+00  0.38708366493E+02  0.12427788535E+02  0.40659198213E+02  0.00000000000E+00 0.  1.
         11    1    3    3    0    0  0.14796030581E+02 -0.15721525264E+02 -0.27438941024E+01  0.21762762524E+02  0.51100000000E-03 0. -1.
        -11    1    3    3    0    0 -0.81488691373E+01 -0.11253331323E+02 -0.51205605279E+01  0.14807487108E+02  0.51100000000E-03 0.  1.
         12    1    3    3    0    0 -0.60284249370E+01 -0.11733509906E+02 -0.45633339046E+01  0.13958552155E+02  0.00000000000E+00 0. -1.
</event>
<event>
 7    1  0.9930326E-013  0.5052886E+02  0.7816164E-02  0.1300439E+00
        -11   -1    0    0    0    0  0.00000000000E+00  0.00000000000E+00  0.45593999997E+02  0.45594000000E+02  0.51100000000E-03 0.  1.
         11   -1    0    0    0    0 -0.00000000000E+00 -0.00000000000E+00 -0.45593999997E+02  0.45594000000E+02  0.51100000000E-03 0. -1.
    9900012    2    1    2    0    0 -0.33606555787E+02  0.12695713860E+02 -0.19041645988E+02  0.50528855590E+02  0.29999987051E+02 0.  0.
        -12    1    1    2    0    0  0.33606555787E+02 -0.12695713860E+02  0.19041645988E+02  0.40659144410E+02  0.00000000000E+00 0.  1.
         11    1    3    3    0    0  0.21384615629E+00  0.92539277654E+01 -0.10810283243E+02  0.14231764940E+02  0.51100000000E-03 0. -1.
        -11    1    3    3    0    0 -0.12860015571E+02  0.21213229187E+01  0.15563664178E+01  0.13126396616E+02  0.51100000000E-03 0.  1.
         12    1    3    3    0    0 -0.20960386371E+02  0.13204631756E+01 -0.97877291630E+01  0.23170694034E+02  0.00000000000E+00 0. -1.
</event>
<event>
 7    1  0.9930326E-013  0.5052888E+02  0.7816164E-02  0.1300439E+00
        -11   -1    0    0    0    0  0.00000000000E+00  0.00000000000E+00  0.45593999997E+02  0.45594000000E+02  0.51100000000E-03 0.  1.
         11   -1    0    0    0    0 -0.00000000000E+00 -0.00000000000E+00 -0.45593999997E+02  0.45594000000E+02  0.51100000000E-03 0. -1.
    9900012    2    1    2    0    0  0.16879163109E+02  0.24167751335E+02 -0.28003177487E+02  0.50528876777E+02  0.30000051452E+02 0.  0.
        -12    1    1    2    0    0 -0.16879163109E+02 -0.24167751335E+02  0.28003177487E+02  0.40659123223E+02  0.00000000000E+00 0.  1.
         11    1    3    3    0    0  0.90756966008E+01  0.24900612516E+02 -0.29098071884E+02  0.39358691036E+02  0.51100000000E-03 0. -1.
        -11    1    3    3    0    0 -0.41722721718E+00  0.16501915074E+01  0.19265314995E+01  0.25707458921E+01  0.51100000000E-03 0.  1.
         12    1    3    3    0    0  0.82206937257E+01 -0.23830526879E+01 -0.83163710236E+00  0.85994398489E+01  0.00000000000E+00 0. -1.
</event>
<event>
 7    1  0.9930326E-013  0.5052886E+02  0.7816164E-02  0.1300439E+00
        -11   -1    0    0    0    0  0.00000000000E+00  0.00000000000E+00  0.45593999997E+02  0.45594000000E+02  0.51100000000E-03 0. -1.
         11   -1    0    0    0    0 -0.00000000000E+00 -0.00000000000E+00 -0.45593999997E+02  0.45594000000E+02  0.51100000000E-03 0.  1.
    9900012    2    1    2    0    0  0.13616201824E+02  0.36838621907E+02 -0.10520491535E+02  0.50528858860E+02  0.29999996990E+02 0.  0.
        -12    1    1    2    0    0 -0.13616201824E+02 -0.36838621907E+02  0.10520491535E+02  0.40659141140E+02  0.00000000000E+00 0.  1.
         11    1    3    3    0    0  0.45046881241E+01  0.14252651849E+02  0.10269998832E+02  0.18135687913E+02  0.51100000000E-03 0. -1.
        -11    1    3    3    0    0  0.80917313184E+01  0.19189970862E+02 -0.19740244159E+02  0.28695092562E+02  0.51100000000E-03 0.  1.
        -12    1    3    3    0    0  0.10197823816E+01  0.33959991960E+01 -0.10502462080E+01  0.36980783851E+01  0.00000000000E+00 0.  1.
</event>
<event>
 7    1  0.9930326E-013  0.5052885E+02  0.7816164E-02  0.1300439E+00
        -11   -1    0    0    0    0  0.00000000000E+00  0.00000000000E+00  0.45593999997E+02  0.45594000000E+02  0.51100000000E-03 0.  1.
         11   -1    0    0    0    0 -0.00000000000E+00 -0.00000000000E+00 -0.45593999997E+02  0.45594000000E+02  0.51100000000E-03 0. -1.
    9900012    2    1    2    0    0 -0.11847091145E+02  0.84620730127E+00 -0.38885687714E+02  0.50528851652E+02  0.29999975082E+02 0.  0.
        -12    1    1    2    0    0  0.11847091145E+02 -0.84620730127E+00  0.38885687714E+02  0.40659148348E+02  0.00000000000E+00 0.  1.
         11    1    3    3    0    0 -0.20042860374E+02  0.25338308109E+01 -0.33582980567E+02  0.39191237982E+02  0.51100000000E-03 0. -1.
        -11    1    3    3    0    0  0.30423243454E+01  0.93582608521E+00  0.40955365546E+00  0.32092432663E+01  0.51100000000E-03 0.  1.
         12    1    3    3    0    0  0.51534448837E+01 -0.26234495949E+01 -0.57122608023E+01  0.81283704037E+01  0.00000000000E+00 0. -1.
</event>
<event>
 7    1  0.9930326E-013  0.5052884E+02  0.7816164E-02  0.1300439E+00
        -11   -1    0    0    0    0  0.00000000000E+00  0.00000000000E+00  0.45593999997E+02  0.45594000000E+02  0.51100000000E-03 0. -1.
         11   -1    0    0    0    0 -0.00000000000E+00 -0.00000000000E+00 -0.45593999997E+02  0.45594000000E+02  0.51100000000E-03 0.  1.
    9900012    2    1    2    0    0  0.10416474113E+01  0.40504315258E+02  0.33885863680E+01  0.50528842343E+02  0.29999946784E+02 0.  0.
        -12    1    1    2    0    0 -0.10416474113E+01 -0.40504315258E+02 -0.33885863680E+01  0.40659157657E+02  0.00000000000E+00 0.  1.
         11    1    3    3    0    0  0.53844212651E+01  0.65010838121E+01  0.16605492519E+01  0.86031103196E+01  0.51100000000E-03 0. -1.
        -11    1    3    3    0    0 -0.84432739021E+00  0.22994830626E+02 -0.10334533435E+02  0.25224545701E+02  0.51100000000E-03 0.  1.
        -12    1    3    3    0    0 -0.34984464636E+01  0.11008400820E+02  0.12062570551E+02  0.16701186322E+02  0.00000000000E+00 0.  1.
</event>
<event>
 7    1  0.9930326E-013  0.5052885E+02  0.7816164E-02  0.1300439E+00
        -11   -1    0    0    0    0  0.00000000000E+00  0.00000000000E+00  0.45593999997E+02  0.45594000000E+02  0.51100000000E-03 0.  1.
         11   -1    0    0    0    0 -0.00000000000E+00 -0.00000000000E+00 -0.45593999997E+02  0.45594000000E+02  0.51100000000E-03 0. -1.
    9900012    2    1    2    0    0  0.10367871894E+02 -0.38927929970E+02  0.55036023808E+01  0.50528854184E+02  0.29999982777E+02 0.  0.
        -12    1    1    2    0    0 -0.10367871894E+02  0.38927929970E+02 -0.55036023808E+01  0.40659145816E+02  0.00000000000E+00 0.  1.
         11    1    3    3    0    0 -0.23629385597E+01 -0.31280288183E+02 -0.29175066509E+01  0.31504789363E+02  0.51100000000E-03 0. -1.
        -11    1    3    3    0    0  0.70343014167E+00 -0.36055844048E+01  0.43606319381E+01  0.57017684997E+01  0.51100000000E-03 0.  1.
         12    1    3    3    0    0  0.12027380312E+02 -0.40420573817E+01  0.40604770937E+01  0.13322296321E+02  0.00000000000E+00 0. -1.
</event>
<event>
 7    1  0.9930326E-013  0.5052886E+02  0.7816164E-02  0.1300439E+00
        -11   -1    0    0    0    0  0.00000000000E+00  0.00000000000E+00  0.45593999997E+02  0.45594000000E+02  0.51100000000E-03 0. -1.
         11   -1    0    0    0    0 -0.00000000000E+00 -0.00000000000E+00 -0.45593999997E+02  0.45594000000E+02  0.51100000000E-03 0.  1.
    9900012    2    1    2    0    0  0.38493658298E+02 -0.92464893361E+01 -0.92685851694E+01  0.50528856315E+02  0.29999989254E+02 0.  0.
        -12    1    1    2    0    0 -0.38493658298E+02  0.92464893361E+01  0.92685851694E+01  0.40659143685E+02  0.00000000000E+00 0.  1.
         11    1    3    3    0    0  0.16878265273E+02  0.91275019395E+01  0.19601158864E+01  0.19288058089E+02  0.51100000000E-03 0. -1.
        -11    1    3    3    0    0  0.88230919079E+01 -0.81922881846E+01 -0.83186428952E+01  0.14634218681E+02  0.51100000000E-03 0.  1.
         12    1    3    3    0    0  0.12792301117E+02 -0.10181703091E+02 -0.29100581605E+01  0.16606579545E+02  0.00000000000E+00 0. -1.
</event>
<event>
 7    1  0.9930326E-013  0.5052886E+02  0.7816164E-02  0.1300439E+00
        -11   -1    0    0    0    0  0.00000000000E+00  0.00000000000E+00  0.45593999997E+02  0.45594000000E+02  0.51100000000E-03 0. -1.
         11   -1    0    0    0    0 -0.00000000000E+00 -0.00000000000E+00 -0.45593999997E+02  0.45594000000E+02  0.51100000000E-03 0.  1.
    9900012    2    1    2    0    0  0.24971871218E+02  0.30947067727E+02  0.84764437142E+01  0.50528862638E+02  0.30000008474E+02 0.  0.
        -12    1    1    2    0    0 -0.24971871218E+02 -0.30947067727E+02 -0.84764437142E+01  0.40659137362E+02  0.00000000000E+00 0.  1.
         11    1    3    3    0    0  0.27017129680E+02  0.15419520516E+02  0.90576343828E+01  0.32399500767E+02  0.51100000000E-03 0. -1.
        -11    1    3    3    0    0 -0.24739420057E+01  0.51147155089E+00 -0.17322766268E+01  0.30631315296E+01  0.51100000000E-03 0.  1.
         12    1    3    3    0    0  0.42868354322E+00  0.15016075660E+02  0.11510859582E+01  0.15066230341E+02  0.00000000000E+00 0. -1.
</event>
<event>
 7    1  0.9930326E-013  0.5052885E+02  0.7816164E-02  0.1300439E+00
        -11   -1    0    0    0    0  0.00000000000E+00  0.00000000000E+00  0.45593999997E+02  0.45594000000E+02  0.51100000000E-03 0.  1.
         11   -1    0    0    0    0 -0.00000000000E+00 -0.00000000000E+00 -0.45593999997E+02  0.45594000000E+02  0.51100000000E-03 0. -1.
    9900012    2    1    2    0    0  0.54552569875E+01 -0.30952915266E+02 -0.25793864072E+02  0.50528853230E+02  0.29999979878E+02 0.  0.
        -12    1    1    2    0    0 -0.54552569875E+01  0.30952915266E+02  0.25793864072E+02  0.40659146770E+02  0.00000000000E+00 0.  1.
         11    1    3    3    0    0  0.46605188600E+01 -0.13162371951E+02 -0.28294388791E+02  0.31552193406E+02  0.51100000000E-03 0. -1.
        -11    1    3    3    0    0 -0.17587877520E+01 -0.14428799907E+02  0.25346490058E+01  0.14754932970E+02  0.51100000000E-03 0.  1.
        -12    1    3    3    0    0  0.25535258794E+01 -0.33617434081E+01 -0.34124287132E-01  0.42217268535E+01  0.00000000000E+00 0.  1.
</event>
<event>
 7    1  0.9930326E-013  0.5052886E+02  0.7816164E-02  0.1300439E+00
        -11   -1    0    0    0    0  0.00000000000E+00  0.00000000000E+00  0.45593999997E+02  0.45594000000E+02  0.51100000000E-03 0.  1.
         11   -1    0    0    0    0 -0.00000000000E+00 -0.00000000000E+00 -0.45593999997E+02  0.45594000000E+02  0.51100000000E-03 0. -1.
    9900012    2    1    2    0    0 -0.86753952937E+01  0.67859139937E+01 -0.39138916015E+02  0.50528857620E+02  0.29999993221E+02 0.  0.
        -12    1    1    2    0    0  0.86753952937E+01 -0.67859139937E+01  0.39138916015E+02  0.40659142380E+02  0.00000000000E+00 0.  1.
         11    1    3    3    0    0 -0.15091879912E+01  0.14890183269E+01 -0.16015850410E+02  0.16155565251E+02  0.51100000000E-03 0. -1.
        -11    1    3    3    0    0 -0.68564971764E+01  0.10541925802E+01  0.32490831229E+01  0.76602491426E+01  0.51100000000E-03 0.  1.
        -12    1    3    3    0    0 -0.30971012606E+00  0.42427030867E+01 -0.26372148728E+02  0.26713043226E+02  0.00000000000E+00 0.  1.
</event>
<event>
 7    1  0.9930326E-013  0.5052885E+02  0.7816164E-02  0.1300439E+00
        -11   -1    0    0    0    0  0.00000000000E+00  0.00000000000E+00  0.45593999997E+02  0.45594000000E+02  0.51100000000E-03 0. -1.
         11   -1    0    0    0    0 -0.00000000000E+00 -0.00000000000E+00 -0.45593999997E+02  0.45594000000E+02  0.51100000000E-03 0.  1.
    9900012    2    1    2    0    0  0.11677511774E+02  0.36570751338E+02  0.13393369210E+02  0.50528850065E+02  0.29999970257E+02 0.  0.
        -12    1    1    2    0    0 -0.11677511774E+02 -0.36570751338E+02 -0.13393369210E+02  0.40659149935E+02  0.00000000000E+00 0.  1.
         11    1    3    3    0    0 -0.28107366320E+00  0.64967143855E-01  0.11718507035E+01  0.12068377962E+01  0.51100000000E-03 0. -1.
        -11    1    3    3    0    0  0.12231313044E+02  0.10818982138E+01  0.19091008209E+01  0.12426592000E+02  0.51100000000E-03 0.  1.
        -12    1    3    3    0    0 -0.27272760619E+00  0.35423885980E+02  0.10312417685E+02  0.36895420269E+02  0.00000000000E+00 0.  1.
</event>
<event>
 7    1  0.9930326E-013  0.5052886E+02  0.7816164E-02  0.1300439E+00
        -11   -1    0    0    0    0  0.00000000000E+00  0.00000000000E+00  0.45593999997E+02  0.45594000000E+02  0.51100000000E-03 0. -1.
         11   -1    0    0    0    0 -0.00000000000E+00 -0.00000000000E+00 -0.45593999997E+02  0.45594000000E+02  0.51100000000E-03 0.  1.
    9900012    2    1    2    0    0  0.37549154598E+01  0.40430331222E+02  0.21106089215E+01  0.50528859050E+02  0.29999997568E+02 0.  0.
        -12    1    1    2    0    0 -0.37549154598E+01 -0.40430331222E+02 -0.21106089215E+01  0.40659140950E+02  0.00000000000E+00 0.  1.
         11    1    3    3    0    0 -0.17247099089E+01 -0.50978698051E+00  0.82097215238E+01  0.84044056777E+01  0.51100000000E-03 0. -1.
        -11    1    3    3    0    0 -0.22936123531E-02  0.21009652656E+02 -0.31535007625E+01  0.21245001231E+02  0.51100000000E-03 0.  1.
         12    1    3    3    0    0  0.54819189811E+01  0.19930465546E+02 -0.29456118399E+01  0.20879452141E+02  0.00000000000E+00 0. -1.
</event>
<event>
 7    1  0.9930326E-013  0.5052886E+02  0.7816164E-02  0.1300439E+00
        -11   -1    0    0    0    0  0.00000000000E+00  0.00000000000E+00  0.45593999997E+02  0.45594000000E+02  0.51100000000E-03 0. -1.
         11   -1    0    0    0    0 -0.00000000000E+00 -0.00000000000E+00 -0.45593999997E+02  0.45594000000E+02  0.51100000000E-03 0.  1.
    9900012    2    1    2    0    0 -0.98541447896E+01 -0.34253637176E+02  0.19564000624E+02  0.50528856505E+02  0.29999989833E+02 0.  0.
        -12    1    1    2    0    0  0.98541447896E+01  0.34253637176E+02 -0.19564000624E+02  0.40659143495E+02  0.00000000000E+00 0.  1.
         11    1    3    3    0    0  0.89363995848E+01 -0.82113345453E+01  0.59528681102E+01  0.13517466166E+02  0.51100000000E-03 0. -1.
        -11    1    3    3    0    0 -0.12282839762E+02 -0.71567845593E+01  0.35837734353E+01  0.14660530350E+02  0.51100000000E-03 0.  1.
         12    1    3    3    0    0 -0.65077046121E+01 -0.18885518071E+02  0.10027359079E+02  0.22350859989E+02  0.00000000000E+00 0. -1.
</event>
<event>
 7    1  0.9930326E-013  0.5052886E+02  0.7816164E-02  0.1300439E+00
        -11   -1    0    0    0    0  0.00000000000E+00  0.00000000000E+00  0.45593999997E+02  0.45594000000E+02  0.51100000000E-03 0.  1.
         11   -1    0    0    0    0 -0.00000000000E+00 -0.00000000000E+00 -0.45593999997E+02  0.45594000000E+02  0.51100000000E-03 0. -1.
    9900012    2    1    2    0    0 -0.22078790243E+02  0.14333390934E+02 -0.30987842961E+02  0.50528862212E+02  0.30000007180E+02 0.  0.
        -12    1    1    2    0    0  0.22078790243E+02 -0.14333390934E+02  0.30987842961E+02  0.40659137788E+02  0.00000000000E+00 0.  1.
         11    1    3    3    0    0 -0.79379301756E+01  0.14933628937E+02 -0.17571968499E+02  0.24388482648E+02  0.51100000000E-03 0. -1.
        -11    1    3    3    0    0 -0.75039094077E+01 -0.80439215983E+01 -0.11630830596E+02  0.16009045933E+02  0.51100000000E-03 0.  1.
        -12    1    3    3    0    0 -0.66369506603E+01  0.74436835949E+01 -0.17850438661E+01  0.10131333630E+02  0.00000000000E+00 0.  1.
</event>
<event>
 7    1  0.9930326E-013  0.5052884E+02  0.7816164E-02  0.1300439E+00
        -11   -1    0    0    0    0  0.00000000000E+00  0.00000000000E+00  0.45593999997E+02  0.45594000000E+02  0.51100000000E-03 0.  1.
         11   -1    0    0    0    0 -0.00000000000E+00 -0.00000000000E+00 -0.45593999997E+02  0.45594000000E+02  0.51100000000E-03 0. -1.
    9900012    2    1    2    0    0 -0.18711515800E+02  0.69279142236E+01 -0.35426687216E+02  0.50528843760E+02  0.29999951094E+02 0.  0.
        -12    1    1    2    0    0  0.18711515800E+02 -0.69279142236E+01  0.35426687216E+02  0.40659156240E+02  0.00000000000E+00 0.  1.
         11    1    3    3    0    0 -0.13626347473E+02 -0.31180013292E+01 -0.82202381281E+01  0.16216398888E+02  0.51100000000E-03 0. -1.
        -11    1    3    3    0    0  0.41366738355E+01  0.44451227930E+01 -0.21010902726E+02  0.21870738915E+02  0.51100000000E-03 0.  1.
        -12    1    3    3    0    0 -0.92218421631E+01  0.56007927598E+01 -0.61955463621E+01  0.12441705958E+02  0.00000000000E+00 0.  1.
</event>
<event>
 7    1  0.9930326E-013  0.5052886E+02  0.7816164E-02  0.1300439E+00
        -11   -1    0    0    0    0  0.00000000000E+00  0.00000000000E+00  0.45593999997E+02  0.45594000000E+02  0.51100000000E-03 0.  1.
         11   -1    0    0    0    0 -0.00000000000E+00 -0.00000000000E+00 -0.45593999997E+02  0.45594000000E+02  0.51100000000E-03 0. -1.
    9900012    2    1    2    0    0  0.13448333051E+02  0.11330337110E+01 -0.38353931262E+02  0.50528862398E+02  0.30000007746E+02 0.  0.
        -12    1    1    2    0    0 -0.13448333051E+02 -0.11330337110E+01  0.38353931262E+02  0.40659137602E+02  0.00000000000E+00 0.  1.
         11    1    3    3    0    0  0.19895374537E+02  0.42720046969E+01 -0.33100948165E+02  0.38855485092E+02  0.51100000000E-03 0. -1.
        -11    1    3    3    0    0 -0.46624358756E+01 -0.34976590741E+01  0.29340163760E+00  0.58359242691E+01  0.51100000000E-03 0.  1.
         12    1    3    3    0    0 -0.17846056106E+01  0.35868808821E+00 -0.55463847353E+01  0.58374530372E+01  0.00000000000E+00 0. -1.
</event>
<event>
 7    1  0.9930326E-013  0.5052886E+02  0.7816164E-02  0.1300439E+00
        -11   -1    0    0    0    0  0.00000000000E+00  0.00000000000E+00  0.45593999997E+02  0.45594000000E+02  0.51100000000E-03 0.  1.
         11   -1    0    0    0    0 -0.00000000000E+00 -0.00000000000E+00 -0.45593999997E+02  0.45594000000E+02  0.51100000000E-03 0. -1.
    9900012    2    1    2    0    0  0.17443723663E+02 -0.23597368508E+02 -0.28143316223E+02  0.50528861497E+02  0.30000005007E+02 0.  0.
        -12    1    1    2    0    0 -0.17443723663E+02  0.23597368508E+02  0.28143316223E+02  0.40659138503E+02  0.00000000000E+00 0.  1.
         11    1    3    3    0    0  0.54777718075E+01 -0.23284937698E+02 -0.66777798169E+01  0.24835197827E+02  0.51100000000E-03 0. -1.
        -11    1    3    3    0    0  0.59261175061E+01  0.35301070074E+01 -0.93108737269E+01  0.11587618133E+02  0.51100000000E-03 0.  1.
         12    1    3    3    0    0  0.60398343498E+01 -0.38425378182E+01 -0.12154662679E+02  0.14106045537E+02  0.00000000000E+00 0. -1.
</event>
<event>
 7    1  0.9930326E-013  0.5052886E+02  0.7816164E-02  0.1300439E+00
        -11   -1    0    0    0    0  0.00000000000E+00  0.00000000000E+00  0.45593999997E+02  0.45594000000E+02  0.51100000000E-03 0.  1.
         11   -1    0    0    0    0 -0.00000000000E+00 -0.00000000000E+00 -0.45593999997E+02  0.45594000000E+02  0.51100000000E-03 0. -1.
    9900012    2    1    2    0    0 -0.21789270793E+02 -0.33582512094E+02 -0.71139486144E+01  0.50528859514E+02  0.29999998977E+02 0.  0.
        -12    1    1    2    0    0  0.21789270793E+02  0.33582512094E+02  0.71139486144E+01  0.40659140486E+02  0.00000000000E+00 0.  1.
         11    1    3    3    0    0 -0.80604374709E+01  0.24994917541E+01  0.19344683152E+01  0.86579604512E+01  0.51100000000E-03 0. -1.
        -11    1    3    3    0    0 -0.96083835391E+01 -0.24229667929E+02  0.55247786791E+00  0.26071115708E+02  0.51100000000E-03 0.  1.
         12    1    3    3    0    0 -0.41204497831E+01 -0.11852335918E+02 -0.96008947975E+01  0.15799783354E+02  0.00000000000E+00 0. -1.
</event>
<event>
 7    1  0.9930326E-013  0.5052887E+02  0.7816164E-02  0.1300439E+00
        -11   -1    0    0    0    0  0.00000000000E+00  0.00000000000E+00  0.45593999997E+02  0.45594000000E+02  0.51100000000E-03 0.  1.
         11   -1    0    0    0    0 -0.00000000000E+00 -0.00000000000E+00 -0.45593999997E+02  0.45594000000E+02  0.51100000000E-03 0. -1.
    9900012    2    1    2    0    0 -0.33461137015E+02 -0.18884776358E+02  0.13299715474E+02  0.50528869413E+02  0.30000029067E+02 0.  0.
        -12    1    1    2    0    0  0.33461137015E+02  0.18884776358E+02 -0.13299715474E+02  0.40659130587E+02  0.00000000000E+00 0.  1.
         11    1    3    3    0    0 -0.18950260742E+02  0.51573604359E+01  0.17970328038E+01  0.19721563732E+02  0.51100000000E-03 0. -1.
        -11    1    3    3    0    0 -0.85954130419E+01 -0.94166843373E+01  0.42094795599E+01  0.13426644692E+02  0.51100000000E-03 0.  1.
         12    1    3    3    0    0 -0.59154632306E+01 -0.14625452456E+02  0.72932031101E+01  0.17380660988E+02  0.00000000000E+00 0. -1.
</event>
<event>
 7    1  0.9930326E-013  0.5052885E+02  0.7816164E-02  0.1300439E+00
        -11   -1    0    0    0    0  0.00000000000E+00  0.00000000000E+00  0.45593999997E+02  0.45594000000E+02  0.51100000000E-03 0.  1.
         11   -1    0    0    0    0 -0.00000000000E+00 -0.00000000000E+00 -0.45593999997E+02  0.45594000000E+02  0.51100000000E-03 0. -1.
    9900012    2    1    2    0    0 -0.11923826205E+02 -0.35184074848E+02 -0.16524810363E+02  0.50528854512E+02  0.29999983774E+02 0.  0.
        -12    1    1    2    0    0  0.11923826205E+02  0.35184074848E+02  0.16524810363E+02  0.40659145488E+02  0.00000000000E+00 0.  1.
         11    1    3    3    0    0 -0.11941997612E+02 -0.36165455904E+02 -0.94898733259E+01  0.39250594947E+02  0.51100000000E-03 0. -1.
        -11    1    3    3    0    0  0.42140175333E-01  0.31398997350E+01  0.72574162550E+00  0.32229562995E+01  0.51100000000E-03 0.  1.
         12    1    3    3    0    0 -0.23968768894E-01 -0.21585186788E+01 -0.77606786627E+01  0.80553032652E+01  0.00000000000E+00 0. -1.
</event>
<event>
 7    1  0.9930326E-013  0.5052886E+02  0.7816164E-02  0.1300439E+00
        -11   -1    0    0    0    0  0.00000000000E+00  0.00000000000E+00  0.45593999997E+02  0.45594000000E+02  0.51100000000E-03 0.  1.
         11   -1    0    0    0    0 -0.00000000000E+00 -0.00000000000E+00 -0.45593999997E+02  0.45594000000E+02  0.51100000000E-03 0. -1.
    9900012    2    1    2    0    0  0.43088665635E+01  0.23286538370E+02 -0.33050509477E+02  0.50528863548E+02  0.30000011240E+02 0.  0.
        -12    1    1    2    0    0 -0.43088665635E+01 -0.23286538370E+02  0.33050509477E+02  0.40659136452E+02  0.00000000000E+00 0.  1.
         11    1    3    3    0    0  0.11204255502E+02  0.10556045793E+02 -0.13569550259E+02  0.20520675882E+02  0.51100000000E-03 0. -1.
        -11    1    3    3    0    0 -0.69386897270E+01 -0.81844990426E+00 -0.94817137785E+00  0.70508371557E+01  0.51100000000E-03 0.  1.
         12    1    3    3    0    0  0.43300788195E-01  0.13548942482E+02 -0.18532787840E+02  0.22957350510E+02  0.00000000000E+00 0. -1.
</event>
<event>
 7    1  0.9930326E-013  0.5052885E+02  0.7816164E-02  0.1300439E+00
        -11   -1    0    0    0    0  0.00000000000E+00  0.00000000000E+00  0.45593999997E+02  0.45594000000E+02  0.51100000000E-03 0. -1.
         11   -1    0    0    0    0 -0.00000000000E+00 -0.00000000000E+00 -0.45593999997E+02  0.45594000000E+02  0.51100000000E-03 0.  1.
    9900012    2    1    2    0    0  0.17187432102E+02  0.68855537689E+01  0.36198721006E+02  0.50528854959E+02  0.29999985135E+02 0.  0.
        -12    1    1    2    0    0 -0.17187432102E+02 -0.68855537689E+01 -0.36198721006E+02  0.40659145041E+02  0.00000000000E+00 0.  1.
         11    1    3    3    0    0 -0.23903074881E+01  0.13212696966E+02  0.13744880936E+02  0.19214855794E+02  0.51100000000E-03 0. -1.
        -11    1    3    3    0    0  0.10943206374E+02 -0.38503792203E+01  0.73265622869E+01  0.13720703374E+02  0.51100000000E-03 0.  1.
         12    1    3    3    0    0  0.86345332165E+01 -0.24767639765E+01  0.15127277783E+02  0.17593295791E+02  0.00000000000E+00 0. -1.
</event>
<event>
 7    1  0.9930326E-013  0.5052886E+02  0.7816164E-02  0.1300439E+00
        -11   -1    0    0    0    0  0.00000000000E+00  0.00000000000E+00  0.45593999997E+02  0.45594000000E+02  0.51100000000E-03 0.  1.
         11   -1    0    0    0    0 -0.00000000000E+00 -0.00000000000E+00 -0.45593999997E+02  0.45594000000E+02  0.51100000000E-03 0. -1.
    9900012    2    1    2    0    0  0.98634249767E+01 -0.27226423016E+02 -0.28541203534E+02  0.50528861277E+02  0.30000004338E+02 0.  0.
        -12    1    1    2    0    0 -0.98634249767E+01  0.27226423016E+02  0.28541203534E+02  0.40659138723E+02  0.00000000000E+00 0.  1.
         11    1    3    3    0    0  0.17173910930E+02 -0.27749440460E+02 -0.27111407067E+02  0.42426442885E+02  0.51100000000E-03 0. -1.
        -11    1    3    3    0    0 -0.50661993037E+01  0.16326176680E+01 -0.23401865231E+00  0.53279058575E+01  0.51100000000E-03 0.  1.
         12    1    3    3    0    0 -0.22442866496E+01 -0.11096002240E+01 -0.11957778144E+01  0.27745125345E+01  0.00000000000E+00 0. -1.
</event>
<event>
 7    1  0.9930326E-013  0.5052886E+02  0.7816164E-02  0.1300439E+00
        -11   -1    0    0    0    0  0.00000000000E+00  0.00000000000E+00  0.45593999997E+02  0.45594000000E+02  0.51100000000E-03 0.  1.
         11   -1    0    0    0    0 -0.00000000000E+00 -0.00000000000E+00 -0.45593999997E+02  0.45594000000E+02  0.51100000000E-03 0. -1.
    9900012    2    1    2    0    0  0.14100545673E+02  0.37565861209E+02 -0.65685917937E+01  0.50528859395E+02  0.29999998616E+02 0.  0.
        -12    1    1    2    0    0 -0.14100545673E+02 -0.37565861209E+02  0.65685917937E+01  0.40659140605E+02  0.00000000000E+00 0.  1.
         11    1    3    3    0    0  0.11556255648E+02  0.25591573104E+02 -0.11634531644E+02  0.30394703246E+02  0.51100000000E-03 0. -1.
        -11    1    3    3    0    0  0.40900889346E+01  0.11214410740E+02  0.95779528614E+01  0.15304542366E+02  0.51100000000E-03 0.  1.
         12    1    3    3    0    0 -0.15457989099E+01  0.75987736391E+00 -0.45120130116E+01  0.48296137832E+01  0.00000000000E+00 0. -1.
</event>
<event>
 7    1  0.9930326E-013  0.5052887E+02  0.7816164E-02  0.1300439E+00
        -11   -1    0    0    0    0  0.00000000000E+00  0.00000000000E+00  0.45593999997E+02  0.45594000000E+02  0.51100000000E-03 0.  1.
         11   -1    0    0    0    0 -0.00000000000E+00 -0.00000000000E+00 -0.45593999997E+02  0.45594000000E+02  0.51100000000E-03 0. -1.
    9900012    2    1    2    0    0  0.13944236246E+02 -0.20530267989E+02 -0.32206078604E+02  0.50528866620E+02  0.30000020578E+02 0.  0.
        -12    1    1    2    0    0 -0.13944236246E+02  0.20530267989E+02  0.32206078604E+02  0.40659133380E+02  0.00000000000E+00 0.  1.
         11    1    3    3    0    0  0.17418726484E+02 -0.24450537664E+02 -0.20100331253E+02  0.36128439507E+02  0.51100000000E-03 0. -1.
        -11    1    3    3    0    0 -0.39606420416E+01  0.29114477074E+01 -0.43491485753E+01  0.65634066403E+01  0.51100000000E-03 0.  1.
         12    1    3    3    0    0  0.48615180295E+00  0.10088219676E+01 -0.77565987750E+01  0.78370204730E+01  0.00000000000E+00 0. -1.
</event>
<event>
 7    1  0.9930326E-013  0.5052886E+02  0.7816164E-02  0.1300439E+00
        -11   -1    0    0    0    0  0.00000000000E+00  0.00000000000E+00  0.45593999997E+02  0.45594000000E+02  0.51100000000E-03 0. -1.
         11   -1    0    0    0    0 -0.00000000000E+00 -0.00000000000E+00 -0.45593999997E+02  0.45594000000E+02  0.51100000000E-03 0.  1.
    9900012    2    1    2    0    0 -0.39457340927E+02 -0.31959463532E+01  0.92773794338E+01  0.50528860864E+02  0.30000003082E+02 0.  0.
        -12    1    1    2    0    0  0.39457340927E+02  0.31959463532E+01 -0.92773794338E+01  0.40659139136E+02  0.00000000000E+00 0.  1.
         11    1    3    3    0    0 -0.61720475812E+01 -0.79389909254E+01 -0.25959986091E+01  0.10385612996E+02  0.51100000000E-03 0. -1.
        -11    1    3    3    0    0 -0.15078548530E+02  0.11454906882E+02  0.54947510828E+01  0.19717246440E+02  0.51100000000E-03 0.  1.
         12    1    3    3    0    0 -0.18206744815E+02 -0.67118623101E+01  0.63786269601E+01  0.20426001428E+02  0.00000000000E+00 0. -1.
</event>
<event>
 7    1  0.9930326E-013  0.5052887E+02  0.7816164E-02  0.1300439E+00
        -11   -1    0    0    0    0  0.00000000000E+00  0.00000000000E+00  0.45593999997E+02  0.45594000000E+02  0.51100000000E-03 0.  1.
         11   -1    0    0    0    0 -0.00000000000E+00 -0.00000000000E+00 -0.45593999997E+02  0.45594000000E+02  0.51100000000E-03 0. -1.
    9900012    2    1    2    0    0  0.66409887643E+01  0.19353563786E+02 -0.35135479062E+02  0.50528867546E+02  0.30000023392E+02 0.  0.
        -12    1    1    2    0    0 -0.66409887643E+01 -0.19353563786E+02  0.35135479062E+02  0.40659132454E+02  0.00000000000E+00 0.  1.
         11    1    3    3    0    0  0.60485354255E+00  0.10680313891E+02 -0.34768724916E+02  0.36377179456E+02  0.51100000000E-03 0. -1.
        -11    1    3    3    0    0  0.84688777467E+01  0.59235544658E+01 -0.11468277503E+01  0.10398346116E+02  0.51100000000E-03 0.  1.
        -12    1    3    3    0    0 -0.24327425249E+01  0.27496954293E+01  0.78007360399E+00  0.37533419741E+01  0.00000000000E+00 0.  1.
</event>
<event>
 7    1  0.9930326E-013  0.5052883E+02  0.7816164E-02  0.1300439E+00
        -11   -1    0    0    0    0  0.00000000000E+00  0.00000000000E+00  0.45593999997E+02  0.45594000000E+02  0.51100000000E-03 0.  1.
         11   -1    0    0    0    0 -0.00000000000E+00 -0.00000000000E+00 -0.45593999997E+02  0.45594000000E+02  0.51100000000E-03 0. -1.
    9900012    2    1    2    0    0 -0.38722164667E+02 -0.10023380059E+02 -0.73002422802E+01  0.50528834715E+02  0.29999923600E+02 0.  0.
        -12    1    1    2    0    0  0.38722164667E+02  0.10023380059E+02  0.73002422802E+01  0.40659165285E+02  0.00000000000E+00 0.  1.
         11    1    3    3    0    0 -0.19656464012E+02 -0.10305858834E+02  0.98245012168E+01  0.24271549769E+02  0.51100000000E-03 0. -1.
        -11    1    3    3    0    0 -0.50398699952E+01  0.71817737756E-01 -0.82195379053E+01  0.96419007978E+01  0.51100000000E-03 0.  1.
         12    1    3    3    0    0 -0.14025830660E+02  0.21066103765E+00 -0.89052055917E+01  0.16615384149E+02  0.00000000000E+00 0. -1.
</event>
<event>
 7    1  0.9930326E-013  0.5052886E+02  0.7816164E-02  0.1300439E+00
        -11   -1    0    0    0    0  0.00000000000E+00  0.00000000000E+00  0.45593999997E+02  0.45594000000E+02  0.51100000000E-03 0.  1.
         11   -1    0    0    0    0 -0.00000000000E+00 -0.00000000000E+00 -0.45593999997E+02  0.45594000000E+02  0.51100000000E-03 0. -1.
    9900012    2    1    2    0    0 -0.13185806966E+02  0.35283427851E+02 -0.15309461783E+02  0.50528863188E+02  0.30000010145E+02 0.  0.
        -12    1    1    2    0    0  0.13185806966E+02 -0.35283427851E+02  0.15309461783E+02  0.40659136812E+02  0.00000000000E+00 0.  1.
         11    1    3    3    0    0  0.59260780354E+01  0.19313515744E+02 -0.22631250188E+01  0.20328601191E+02  0.51100000000E-03 0. -1.
        -11    1    3    3    0    0 -0.39710527457E+01 -0.83862298300E+00 -0.43889634194E+01  0.59779217605E+01  0.51100000000E-03 0.  1.
         12    1    3    3    0    0 -0.15140832256E+02  0.16808535090E+02 -0.86573733443E+01  0.24222340236E+02  0.00000000000E+00 0. -1.
</event>
<event>
 7    1  0.9930326E-013  0.5052890E+02  0.7816164E-02  0.1300439E+00
        -11   -1    0    0    0    0  0.00000000000E+00  0.00000000000E+00  0.45593999997E+02  0.45594000000E+02  0.51100000000E-03 0. -1.
         11   -1    0    0    0    0 -0.00000000000E+00 -0.00000000000E+00 -0.45593999997E+02  0.45594000000E+02  0.51100000000E-03 0.  1.
    9900012    2    1    2    0    0 -0.26597569979E+02 -0.17182681826E+02  0.25504650822E+02  0.50528898963E+02  0.30000118889E+02 0.  0.
        -12    1    1    2    0    0  0.26597569979E+02  0.17182681826E+02 -0.25504650822E+02  0.40659101037E+02  0.00000000000E+00 0.  1.
         11    1    3    3    0    0 -0.21132779771E+02 -0.23129447355E+02  0.18254959976E+02  0.36260298947E+02  0.51100000000E-03 0. -1.
        -11    1    3    3    0    0 -0.47872522128E+01  0.22707110016E+01 -0.83286103554E+00  0.53635408051E+01  0.51100000000E-03 0.  1.
         12    1    3    3    0    0 -0.67753799548E+00  0.36760545270E+01  0.80825518822E+01  0.89050592109E+01  0.00000000000E+00 0. -1.
</event>
<event>
 7    1  0.9930326E-013  0.5052887E+02  0.7816164E-02  0.1300439E+00
        -11   -1    0    0    0    0  0.00000000000E+00  0.00000000000E+00  0.45593999997E+02  0.45594000000E+02  0.51100000000E-03 0. -1.
         11   -1    0    0    0    0 -0.00000000000E+00 -0.00000000000E+00 -0.45593999997E+02  0.45594000000E+02  0.51100000000E-03 0.  1.
    9900012    2    1    2    0    0 -0.68162929650E+01 -0.15422004524E+02  0.36998167223E+02  0.50528874934E+02  0.30000045848E+02 0.  0.
        -12    1    1    2    0    0  0.68162929650E+01  0.15422004524E+02 -0.36998167223E+02  0.40659125066E+02  0.00000000000E+00 0.  1.
         11    1    3    3    0    0 -0.75561009479E+01 -0.38772969152E+01  0.19232428828E+01  0.87078674973E+01  0.51100000000E-03 0.  1.
        -11    1    3    3    0    0  0.10073204051E+02 -0.69593290940E+01  0.16695032286E+02  0.20703280045E+02  0.51100000000E-03 0. -1.
         12    1    3    3    0    0 -0.93333960685E+01 -0.45853785147E+01  0.18379892053E+02  0.21117727392E+02  0.00000000000E+00 0. -1.
</event>
<event>
 7    1  0.9930326E-013  0.5052887E+02  0.7816164E-02  0.1300439E+00
        -11   -1    0    0    0    0  0.00000000000E+00  0.00000000000E+00  0.45593999997E+02  0.45594000000E+02  0.51100000000E-03 0. -1.
         11   -1    0    0    0    0 -0.00000000000E+00 -0.00000000000E+00 -0.45593999997E+02  0.45594000000E+02  0.51100000000E-03 0.  1.
    9900012    2    1    2    0    0  0.39334509605E+02 -0.56143026040E+01  0.86279316281E+01  0.50528865186E+02  0.30000016221E+02 0.  0.
        -12    1    1    2    0    0 -0.39334509605E+02  0.56143026040E+01 -0.86279316281E+01  0.40659134814E+02  0.00000000000E+00 0.  1.
         11    1    3    3    0    0  0.18054405005E+01  0.25694662329E-01  0.12210405002E+02  0.12343187035E+02  0.51100000000E-03 0. -1.
        -11    1    3    3    0    0  0.17170109359E+02 -0.16191187304E+01 -0.22232353351E+01  0.17388990094E+02  0.51100000000E-03 0.  1.
         12    1    3    3    0    0  0.20358959746E+02 -0.40208785359E+01 -0.13592380383E+01  0.20796688058E+02  0.00000000000E+00 0. -1.
</event>
<event>
 7    1  0.9930326E-013  0.5052887E+02  0.7816164E-02  0.1300439E+00
        -11   -1    0    0    0    0  0.00000000000E+00  0.00000000000E+00  0.45593999997E+02  0.45594000000E+02  0.51100000000E-03 0. -1.
         11   -1    0    0    0    0 -0.00000000000E+00 -0.00000000000E+00 -0.45593999997E+02  0.45594000000E+02  0.51100000000E-03 0.  1.
    9900012    2    1    2    0    0 -0.25886361336E+02  0.14585071191E+02  0.27754936513E+02  0.50528874263E+02  0.30000043811E+02 0.  0.
        -12    1    1    2    0    0  0.25886361336E+02 -0.14585071191E+02 -0.27754936513E+02  0.40659125737E+02  0.00000000000E+00 0.  1.
         11    1    3    3    0    0 -0.84796058102E+01 -0.42666403186E+01  0.43934874738E+01  0.10459955389E+02  0.51100000000E-03 0.  1.
        -11    1    3    3    0    0 -0.19268893132E+02  0.12307342841E+02  0.97589428943E+01  0.24859563492E+02  0.51100000000E-03 0. -1.
         12    1    3    3    0    0  0.18621376063E+01  0.65443686689E+01  0.13602506145E+02  0.15209355382E+02  0.00000000000E+00 0. -1.
</event>
<event>
 7    1  0.9930326E-013  0.5052886E+02  0.7816164E-02  0.1300439E+00
        -11   -1    0    0    0    0  0.00000000000E+00  0.00000000000E+00  0.45593999997E+02  0.45594000000E+02  0.51100000000E-03 0. -1.
         11   -1    0    0    0    0 -0.00000000000E+00 -0.00000000000E+00 -0.45593999997E+02  0.45594000000E+02  0.51100000000E-03 0.  1.
    9900012    2    1    2    0    0  0.28677464548E+02 -0.23550478288E+02  0.16617564297E+02  0.50528862729E+02  0.30000008750E+02 0.  0.
        -12    1    1    2    0    0 -0.28677464548E+02  0.23550478288E+02 -0.16617564297E+02  0.40659137271E+02  0.00000000000E+00 0.  1.
         11    1    3    3    0    0  0.20713038107E+02 -0.27481282856E+01  0.41987038249E+01  0.21312232890E+02  0.51100000000E-03 0. -1.
        -11    1    3    3    0    0  0.70218997076E+01 -0.19804574036E+02  0.49037248939E+01  0.21577181149E+02  0.51100000000E-03 0.  1.
        -12    1    3    3    0    0  0.94252673339E+00 -0.99777596645E+00  0.75151355780E+01  0.76394486894E+01  0.00000000000E+00 0.  1.
</event>
<event>
 7    1  0.9930326E-013  0.5052886E+02  0.7816164E-02  0.1300439E+00
        -11   -1    0    0    0    0  0.00000000000E+00  0.00000000000E+00  0.45593999997E+02  0.45594000000E+02  0.51100000000E-03 0.  1.
         11   -1    0    0    0    0 -0.00000000000E+00 -0.00000000000E+00 -0.45593999997E+02  0.45594000000E+02  0.51100000000E-03 0. -1.
    9900012    2    1    2    0    0  0.23387854554E+02  0.26606676141E+02 -0.19956423766E+02  0.50528858279E+02  0.29999995226E+02 0.  0.
        -12    1    1    2    0    0 -0.23387854554E+02 -0.26606676141E+02  0.19956423766E+02  0.40659141721E+02  0.00000000000E+00 0.  1.
         11    1    3    3    0    0  0.94924298154E+01  0.12885000898E+02 -0.12011566139E+02  0.20010177243E+02  0.51100000000E-03 0. -1.
        -11    1    3    3    0    0 -0.34159717302E+01 -0.28587745224E+01  0.15780308941E+01  0.47256360837E+01  0.51100000000E-03 0.  1.
        -12    1    3    3    0    0  0.17311396469E+02  0.16580449765E+02 -0.95228885212E+01  0.25793044953E+02  0.00000000000E+00 0.  1.
</event>
<event>
 7    1  0.9930326E-013  0.5052887E+02  0.7816164E-02  0.1300439E+00
        -11   -1    0    0    0    0  0.00000000000E+00  0.00000000000E+00  0.45593999997E+02  0.45594000000E+02  0.51100000000E-03 0. -1.
         11   -1    0    0    0    0 -0.00000000000E+00 -0.00000000000E+00 -0.45593999997E+02  0.45594000000E+02  0.51100000000E-03 0.  1.
    9900012    2    1    2    0    0 -0.35874775696E+02  0.13553607384E+02  0.13507967060E+02  0.50528868450E+02  0.30000026140E+02 0.  0.
        -12    1    1    2    0    0  0.35874775696E+02 -0.13553607384E+02 -0.13507967060E+02  0.40659131550E+02  0.00000000000E+00 0.  1.
         11    1    3    3    0    0 -0.52244778700E+01  0.74901761227E+01  0.62291777505E+01  0.11054436353E+02  0.51100000000E-03 0.  1.
        -11    1    3    3    0    0 -0.29137918552E+02 -0.30090170601E+01  0.76293635217E+01  0.30270111814E+02  0.51100000000E-03 0. -1.
        -12    1    3    3    0    0 -0.15123792736E+01  0.90724483210E+01 -0.35057421270E+00  0.92043202836E+01  0.00000000000E+00 0.  1.
</event>
<event>
 7    1  0.9930326E-013  0.5052885E+02  0.7816164E-02  0.1300439E+00
        -11   -1    0    0    0    0  0.00000000000E+00  0.00000000000E+00  0.45593999997E+02  0.45594000000E+02  0.51100000000E-03 0.  1.
         11   -1    0    0    0    0 -0.00000000000E+00 -0.00000000000E+00 -0.45593999997E+02  0.45594000000E+02  0.51100000000E-03 0. -1.
    9900012    2    1    2    0    0 -0.54511727329E+01  0.89512218031E+01 -0.39285197519E+02  0.50528850967E+02  0.29999973001E+02 0.  0.
        -12    1    1    2    0    0  0.54511727329E+01 -0.89512218031E+01  0.39285197519E+02  0.40659149033E+02  0.00000000000E+00 0.  1.
         11    1    3    3    0    0 -0.74754003358E+01  0.14581676721E+02 -0.28900037628E+02  0.33222267854E+02  0.51100000000E-03 0. -1.
        -11    1    3    3    0    0  0.17667236944E+01 -0.76569652275E+01 -0.12241288460E+02  0.14546462543E+02  0.51100000000E-03 0.  1.
        -12    1    3    3    0    0  0.25750390844E+00  0.20265103100E+01  0.18561285689E+01  0.27601205705E+01  0.00000000000E+00 0.  1.
</event>
<event>
 7    1  0.9930326E-013  0.5052886E+02  0.7816164E-02  0.1300439E+00
        -11   -1    0    0    0    0  0.00000000000E+00  0.00000000000E+00  0.45593999997E+02  0.45594000000E+02  0.51100000000E-03 0. -1.
         11   -1    0    0    0    0 -0.00000000000E+00 -0.00000000000E+00 -0.45593999997E+02  0.45594000000E+02  0.51100000000E-03 0.  1.
    9900012    2    1    2    0    0 -0.34419002802E+02  0.14883901392E+02  0.15715203506E+02  0.50528857169E+02  0.29999991851E+02 0.  0.
        -12    1    1    2    0    0  0.34419002802E+02 -0.14883901392E+02 -0.15715203506E+02  0.40659142831E+02  0.00000000000E+00 0.  1.
         11    1    3    3    0    0 -0.27031809182E+02  0.18892706455E+02  0.14611507253E+02  0.36071445900E+02  0.51100000000E-03 0. -1.
        -11    1    3    3    0    0 -0.91868745199E+01 -0.55652877918E+01 -0.15957789185E+01  0.10858987166E+02  0.51100000000E-03 0.  1.
         12    1    3    3    0    0  0.17996808999E+01  0.15564827286E+01  0.26994751712E+01  0.35984241032E+01  0.00000000000E+00 0. -1.
</event>
<event>
 7    1  0.9930326E-013  0.5052894E+02  0.7816164E-02  0.1300439E+00
        -11   -1    0    0    0    0  0.00000000000E+00  0.00000000000E+00  0.45593999997E+02  0.45594000000E+02  0.51100000000E-03 0.  1.
         11   -1    0    0    0    0 -0.00000000000E+00 -0.00000000000E+00 -0.45593999997E+02  0.45594000000E+02  0.51100000000E-03 0. -1.
    9900012    2    1    2    0    0 -0.12643314777E+01  0.20720700193E+02 -0.34960164255E+02  0.50528941535E+02  0.30000248287E+02 0.  0.
        -12    1    1    2    0    0  0.12643314777E+01 -0.20720700193E+02  0.34960164255E+02  0.40659058465E+02  0.00000000000E+00 0.  1.
         11    1    3    3    0    0 -0.73053903124E+01  0.52632367498E+01 -0.16489670744E+02  0.18787752133E+02  0.51100000000E-03 0. -1.
        -11    1    3    3    0    0  0.12175324913E+02  0.98563089086E+01 -0.60363273286E+01  0.16787573080E+02  0.51100000000E-03 0.  1.
        -12    1    3    3    0    0 -0.61342660785E+01  0.56011545348E+01 -0.12434166182E+02  0.14953616321E+02  0.00000000000E+00 0.  1.
</event>
<event>
 7    1  0.9930326E-013  0.5052885E+02  0.7816164E-02  0.1300439E+00
        -11   -1    0    0    0    0  0.00000000000E+00  0.00000000000E+00  0.45593999997E+02  0.45594000000E+02  0.51100000000E-03 0.  1.
         11   -1    0    0    0    0 -0.00000000000E+00 -0.00000000000E+00 -0.45593999997E+02  0.45594000000E+02  0.51100000000E-03 0. -1.
    9900012    2    1    2    0    0  0.16328532880E+02 -0.32407086174E+02 -0.18339200075E+02  0.50528849988E+02  0.29999970024E+02 0.  0.
        -12    1    1    2    0    0 -0.16328532880E+02  0.32407086174E+02  0.18339200075E+02  0.40659150012E+02  0.00000000000E+00 0.  1.
         11    1    3    3    0    0 -0.16442409220E+01 -0.16216210312E+02  0.15574338943E+01  0.16373594770E+02  0.51100000000E-03 0. -1.
        -11    1    3    3    0    0  0.92462966714E+01 -0.37106941724E+01 -0.11901642867E+01  0.10033929672E+02  0.51100000000E-03 0.  1.
         12    1    3    3    0    0  0.87264771309E+01 -0.12480181690E+02 -0.18706469683E+02  0.24121325546E+02  0.00000000000E+00 0. -1.
</event>
<event>
 7    1  0.9930326E-013  0.5052883E+02  0.7816164E-02  0.1300439E+00
        -11   -1    0    0    0    0  0.00000000000E+00  0.00000000000E+00  0.45593999997E+02  0.45594000000E+02  0.51100000000E-03 0. -1.
         11   -1    0    0    0    0 -0.00000000000E+00 -0.00000000000E+00 -0.45593999997E+02  0.45594000000E+02  0.51100000000E-03 0.  1.
    9900012    2    1    2    0    0 -0.38531980224E+02 -0.12626645085E+02  0.30038042772E+01  0.50528825067E+02  0.29999894273E+02 0.  0.
        -12    1    1    2    0    0  0.38531980224E+02  0.12626645085E+02 -0.30038042772E+01  0.40659174933E+02  0.00000000000E+00 0.  1.
         11    1    3    3    0    0 -0.40745284245E+02 -0.11595448961E+02  0.44176389590E+01  0.42592818163E+02  0.51100000000E-03 0. -1.
        -11    1    3    3    0    0  0.21691495867E+01 -0.67803644755E+00  0.28568302016E+01  0.36505372776E+01  0.51100000000E-03 0.  1.
         12    1    3    3    0    0  0.44154434542E-01 -0.35315967636E+00 -0.42706648834E+01  0.42854696262E+01  0.00000000000E+00 0. -1.
</event>
<event>
 7    1  0.9930326E-013  0.5052886E+02  0.7816164E-02  0.1300439E+00
        -11   -1    0    0    0    0  0.00000000000E+00  0.00000000000E+00  0.45593999997E+02  0.45594000000E+02  0.51100000000E-03 0.  1.
         11   -1    0    0    0    0 -0.00000000000E+00 -0.00000000000E+00 -0.45593999997E+02  0.45594000000E+02  0.51100000000E-03 0. -1.
    9900012    2    1    2    0    0  0.28065537875E+02 -0.21969926393E+02 -0.19565626456E+02  0.50528858094E+02  0.29999994662E+02 0.  0.
        -12    1    1    2    0    0 -0.28065537875E+02  0.21969926393E+02  0.19565626456E+02  0.40659141906E+02  0.00000000000E+00 0.  1.
         11    1    3    3    0    0  0.13579812485E+02 -0.20451507112E+02 -0.22652832645E+02  0.33403985951E+02  0.51100000000E-03 0. -1.
        -11    1    3    3    0    0 -0.50478140804E+00  0.37795043870E+00 -0.12539995766E+01  0.14036260198E+01  0.51100000000E-03 0.  1.
         12    1    3    3    0    0  0.14990506798E+02 -0.18963697195E+01  0.43412057655E+01  0.15721246123E+02  0.00000000000E+00 0. -1.
</event>
<event>
 7    1  0.9930326E-013  0.5052887E+02  0.7816164E-02  0.1300439E+00
        -11   -1    0    0    0    0  0.00000000000E+00  0.00000000000E+00  0.45593999997E+02  0.45594000000E+02  0.51100000000E-03 0. -1.
         11   -1    0    0    0    0 -0.00000000000E+00 -0.00000000000E+00 -0.45593999997E+02  0.45594000000E+02  0.51100000000E-03 0.  1.
    9900012    2    1    2    0    0  0.23476730950E+02 -0.13581062138E+02  0.30291297873E+02  0.50528869762E+02  0.30000030129E+02 0.  0.
        -12    1    1    2    0    0 -0.23476730950E+02  0.13581062138E+02 -0.30291297873E+02  0.40659130238E+02  0.00000000000E+00 0.  1.
         11    1    3    3    0    0  0.90740479251E+01 -0.85039949705E+01  0.28879127301E+02  0.31442968532E+02  0.51100000000E-03 0. -1.
        -11    1    3    3    0    0  0.11567414094E+02  0.14133371325E+01  0.25044318299E+01  0.11919512143E+02  0.51100000000E-03 0.  1.
         12    1    3    3    0    0  0.28352689303E+01 -0.64904043002E+01 -0.10922612579E+01  0.71663890867E+01  0.00000000000E+00 0. -1.
</event>
<event>
 7    1  0.9930326E-013  0.5052884E+02  0.7816164E-02  0.1300439E+00
        -11   -1    0    0    0    0  0.00000000000E+00  0.00000000000E+00  0.45593999997E+02  0.45594000000E+02  0.51100000000E-03 0.  1.
         11   -1    0    0    0    0 -0.00000000000E+00 -0.00000000000E+00 -0.45593999997E+02  0.45594000000E+02  0.51100000000E-03 0. -1.
    9900012    2    1    2    0    0 -0.93458623623E+01 -0.47229333345E+01 -0.39287608874E+02  0.50528838011E+02  0.29999933619E+02 0.  0.
        -12    1    1    2    0    0  0.93458623623E+01  0.47229333345E+01  0.39287608874E+02  0.40659161989E+02  0.00000000000E+00 0.  1.
         11    1    3    3    0    0 -0.15959818074E+01  0.85889007535E+01 -0.18261209054E+02  0.20243224310E+02  0.51100000000E-03 0. -1.
        -11    1    3    3    0    0 -0.50979853913E+01 -0.14756796308E+02 -0.92912537125E+01  0.18168100840E+02  0.51100000000E-03 0.  1.
        -12    1    3    3    0    0 -0.26518951636E+01  0.14449622202E+01 -0.11735146107E+02  0.12117512861E+02  0.00000000000E+00 0.  1.
</event>
<event>
 7    1  0.9930326E-013  0.5052887E+02  0.7816164E-02  0.1300439E+00
        -11   -1    0    0    0    0  0.00000000000E+00  0.00000000000E+00  0.45593999997E+02  0.45594000000E+02  0.51100000000E-03 0.  1.
         11   -1    0    0    0    0 -0.00000000000E+00 -0.00000000000E+00 -0.45593999997E+02  0.45594000000E+02  0.51100000000E-03 0. -1.
    9900012    2    1    2    0    0  0.14231301283E+02 -0.36733999326E+02  0.10062203359E+02  0.50528873360E+02  0.30000041065E+02 0.  0.
        -12    1    1    2    0    0 -0.14231301283E+02  0.36733999326E+02 -0.10062203359E+02  0.40659126640E+02  0.00000000000E+00 0.  1.
         11    1    3    3    0    0  0.83795890632E+01 -0.91545924244E+01 -0.86801130481E+01  0.15144914596E+02  0.51100000000E-03 0. -1.
        -11    1    3    3    0    0  0.86647322573E+01 -0.19809096744E+02  0.14982644854E+02  0.26305085934E+02  0.51100000000E-03 0.  1.
         12    1    3    3    0    0 -0.28130200377E+01 -0.77703101576E+01  0.37596715528E+01  0.90788728300E+01  0.00000000000E+00 0. -1.
</event>
<event>
 7    1  0.9930326E-013  0.5052886E+02  0.7816164E-02  0.1300439E+00
        -11   -1    0    0    0    0  0.00000000000E+00  0.00000000000E+00  0.45593999997E+02  0.45594000000E+02  0.51100000000E-03 0.  1.
         11   -1    0    0    0    0 -0.00000000000E+00 -0.00000000000E+00 -0.45593999997E+02  0.45594000000E+02  0.51100000000E-03 0. -1.
    9900012    2    1    2    0    0  0.12027912364E+02 -0.32450471389E+02 -0.21341551392E+02  0.50528860990E+02  0.30000003466E+02 0.  0.
        -12    1    1    2    0    0 -0.12027912364E+02  0.32450471389E+02  0.21341551392E+02  0.40659139010E+02  0.00000000000E+00 0.  1.
         11    1    3    3    0    0  0.12762345749E+02 -0.49070817761E+01 -0.10874636956E+02  0.17470393521E+02  0.51100000000E-03 0. -1.
        -11    1    3    3    0    0  0.81162336257E+00 -0.15339260063E+02  0.20636049372E+01  0.15498712764E+02  0.51100000000E-03 0.  1.
        -12    1    3    3    0    0 -0.15460567478E+01 -0.12204129550E+02 -0.12530519373E+02  0.17559754705E+02  0.00000000000E+00 0.  1.
</event>
<event>
 7    1  0.9930326E-013  0.5052886E+02  0.7816164E-02  0.1300439E+00
        -11   -1    0    0    0    0  0.00000000000E+00  0.00000000000E+00  0.45593999997E+02  0.45594000000E+02  0.51100000000E-03 0.  1.
         11   -1    0    0    0    0 -0.00000000000E+00 -0.00000000000E+00 -0.45593999997E+02  0.45594000000E+02  0.51100000000E-03 0. -1.
    9900012    2    1    2    0    0  0.23694560684E+02  0.25030980854E+02 -0.21568104263E+02  0.50528864126E+02  0.30000012997E+02 0.  0.
        -12    1    1    2    0    0 -0.23694560684E+02 -0.25030980854E+02  0.21568104263E+02  0.40659135874E+02  0.00000000000E+00 0.  1.
         11    1    3    3    0    0  0.22162231363E+01  0.56926535817E+01  0.28099016558E+01  0.67240982568E+01  0.51100000000E-03 0.  1.
        -11    1    3    3    0    0  0.24923866422E+02  0.19230251778E+02 -0.17272966431E+02  0.35907618557E+02  0.51100000000E-03 0. -1.
        -12    1    3    3    0    0 -0.34455288746E+01  0.10807549455E+00 -0.71050394883E+01  0.78971473120E+01  0.00000000000E+00 0.  1.
</event>
<event>
 7    1  0.9930326E-013  0.5052882E+02  0.7816164E-02  0.1300439E+00
        -11   -1    0    0    0    0  0.00000000000E+00  0.00000000000E+00  0.45593999997E+02  0.45594000000E+02  0.51100000000E-03 0.  1.
         11   -1    0    0    0    0 -0.00000000000E+00 -0.00000000000E+00 -0.45593999997E+02  0.45594000000E+02  0.51100000000E-03 0. -1.
    9900012    2    1    2    0    0  0.26791042970E+02  0.70273727734E+01 -0.29766166945E+02  0.50528823347E+02  0.29999889045E+02 0.  0.
        -12    1    1    2    0    0 -0.26791042970E+02 -0.70273727734E+01  0.29766166945E+02  0.40659176653E+02  0.00000000000E+00 0.  1.
         11    1    3    3    0    0 -0.59710294771E+00  0.26917163893E+01 -0.17301292790E+02  0.17519606203E+02  0.51100000000E-03 0. -1.
        -11    1    3    3    0    0  0.24698505995E+01  0.31303868440E+01  0.16844459192E+01  0.43286074080E+01  0.51100000000E-03 0.  1.
         12    1    3    3    0    0  0.24918295319E+02  0.12052695401E+01 -0.14149320074E+02  0.28680609736E+02  0.00000000000E+00 0. -1.
</event>
<event>
 7    1  0.9930326E-013  0.5052886E+02  0.7816164E-02  0.1300439E+00
        -11   -1    0    0    0    0  0.00000000000E+00  0.00000000000E+00  0.45593999997E+02  0.45594000000E+02  0.51100000000E-03 0. -1.
         11   -1    0    0    0    0 -0.00000000000E+00 -0.00000000000E+00 -0.45593999997E+02  0.45594000000E+02  0.51100000000E-03 0.  1.
    9900012    2    1    2    0    0 -0.14554645287E+02  0.51601205965E+01  0.37612507996E+02  0.50528864474E+02  0.30000014054E+02 0.  0.
        -12    1    1    2    0    0  0.14554645287E+02 -0.51601205965E+01 -0.37612507996E+02  0.40659135526E+02  0.00000000000E+00 0.  1.
         11    1    3    3    0    0 -0.10255811316E+02  0.10926500945E+02  0.34950282955E+02  0.38027521186E+02  0.51100000000E-03 0. -1.
        -11    1    3    3    0    0 -0.18201609155E+00 -0.68795217737E+01  0.40881495740E+01  0.80046184727E+01  0.51100000000E-03 0.  1.
        -12    1    3    3    0    0 -0.41168178800E+01  0.11131414254E+01 -0.14259245329E+01  0.44967248152E+01  0.00000000000E+00 0.  1.
</event>
<event>
 7    1  0.9930326E-013  0.5052882E+02  0.7816164E-02  0.1300439E+00
        -11   -1    0    0    0    0  0.00000000000E+00  0.00000000000E+00  0.45593999997E+02  0.45594000000E+02  0.51100000000E-03 0. -1.
         11   -1    0    0    0    0 -0.00000000000E+00 -0.00000000000E+00 -0.45593999997E+02  0.45594000000E+02  0.51100000000E-03 0.  1.
    9900012    2    1    2    0    0  0.12897187605E+02  0.38531427320E+02  0.14698415406E+01  0.50528821779E+02  0.29999884280E+02 0.  0.
        -12    1    1    2    0    0 -0.12897187605E+02 -0.38531427320E+02 -0.14698415406E+01  0.40659178221E+02  0.00000000000E+00 0.  1.
         11    1    3    3    0    0 -0.23843806897E-01  0.27309546991E+02  0.97322767005E+01  0.28991880509E+02  0.51100000000E-03 0. -1.
        -11    1    3    3    0    0  0.31041306268E+01 -0.12891311990E+01  0.47082173805E+00  0.33939887399E+01  0.51100000000E-03 0.  1.
         12    1    3    3    0    0  0.98169007853E+01  0.12511011528E+02 -0.87332568980E+01  0.18142952531E+02  0.00000000000E+00 0. -1.
</event>
<event>
 7    1  0.9930326E-013  0.5052886E+02  0.7816164E-02  0.1300439E+00
        -11   -1    0    0    0    0  0.00000000000E+00  0.00000000000E+00  0.45593999997E+02  0.45594000000E+02  0.51100000000E-03 0.  1.
         11   -1    0    0    0    0 -0.00000000000E+00 -0.00000000000E+00 -0.45593999997E+02  0.45594000000E+02  0.51100000000E-03 0. -1.
    9900012    2    1    2    0    0 -0.19755344690E+02  0.35280031789E+02 -0.42674573180E+01  0.50528862296E+02  0.30000007436E+02 0.  0.
        -12    1    1    2    0    0  0.19755344690E+02 -0.35280031789E+02  0.42674573180E+01  0.40659137704E+02  0.00000000000E+00 0.  1.
         11    1    3    3    0    0  0.53770276187E+01  0.11008083711E+02  0.65832887569E+01  0.13907912285E+02  0.51100000000E-03 0.  1.
        -11    1    3    3    0    0 -0.19184453547E+02  0.18729155197E+02 -0.76239473249E+01  0.27873806438E+02  0.51100000000E-03 0. -1.
        -12    1    3    3    0    0 -0.59479187618E+01  0.55427928807E+01 -0.32267987500E+01  0.87471435730E+01  0.00000000000E+00 0.  1.
</event>
<event>
 7    1  0.9930326E-013  0.5052886E+02  0.7816164E-02  0.1300439E+00
        -11   -1    0    0    0    0  0.00000000000E+00  0.00000000000E+00  0.45593999997E+02  0.45594000000E+02  0.51100000000E-03 0. -1.
         11   -1    0    0    0    0 -0.00000000000E+00 -0.00000000000E+00 -0.45593999997E+02  0.45594000000E+02  0.51100000000E-03 0.  1.
    9900012    2    1    2    0    0  0.13217075727E+02 -0.23870538010E+02  0.30144183671E+02  0.50528862222E+02  0.30000007210E+02 0.  0.
        -12    1    1    2    0    0 -0.13217075727E+02  0.23870538010E+02 -0.30144183671E+02  0.40659137778E+02  0.00000000000E+00 0.  1.
         11    1    3    3    0    0 -0.89481601285E+01 -0.57906411678E+01  0.10206132059E+02  0.14756904373E+02  0.51100000000E-03 0. -1.
        -11    1    3    3    0    0  0.93898956497E+01 -0.56603281516E+01  0.12035652408E+02  0.16280859445E+02  0.51100000000E-03 0.  1.
         12    1    3    3    0    0  0.12775340206E+02 -0.12419568690E+02  0.79023992040E+01  0.19491098404E+02  0.00000000000E+00 0. -1.
</event>
<event>
 7    1  0.9930326E-013  0.5052886E+02  0.7816164E-02  0.1300439E+00
        -11   -1    0    0    0    0  0.00000000000E+00  0.00000000000E+00  0.45593999997E+02  0.45594000000E+02  0.51100000000E-03 0.  1.
         11   -1    0    0    0    0 -0.00000000000E+00 -0.00000000000E+00 -0.45593999997E+02  0.45594000000E+02  0.51100000000E-03 0. -1.
    9900012    2    1    2    0    0 -0.27971801816E+02  0.22503654994E+02 -0.19087408024E+02  0.50528864126E+02  0.30000012998E+02 0.  0.
        -12    1    1    2    0    0  0.27971801816E+02 -0.22503654994E+02  0.19087408024E+02  0.40659135874E+02  0.00000000000E+00 0.  1.
         11    1    3    3    0    0 -0.40917562528E+01 -0.33481767286E+01 -0.82369771804E+01  0.97877755373E+01  0.51100000000E-03 0. -1.
        -11    1    3    3    0    0 -0.15882540744E+02  0.82430763603E+01  0.12331614531E+01  0.17936669028E+02  0.51100000000E-03 0.  1.
         12    1    3    3    0    0 -0.79975048191E+01  0.17608755362E+02 -0.12083592296E+02  0.22804419561E+02  0.00000000000E+00 0. -1.
</event>
<event>
 7    1  0.9930326E-013  0.5052886E+02  0.7816164E-02  0.1300439E+00
        -11   -1    0    0    0    0  0.00000000000E+00  0.00000000000E+00  0.45593999997E+02  0.45594000000E+02  0.51100000000E-03 0.  1.
         11   -1    0    0    0    0 -0.00000000000E+00 -0.00000000000E+00 -0.45593999997E+02  0.45594000000E+02  0.51100000000E-03 0. -1.
    9900012    2    1    2    0    0  0.15508435110E+02  0.26054304726E+02 -0.27089253789E+02  0.50528855578E+02  0.29999987014E+02 0.  0.
        -12    1    1    2    0    0 -0.15508435110E+02 -0.26054304726E+02  0.27089253789E+02  0.40659144422E+02  0.00000000000E+00 0.  1.
         11    1    3    3    0    0  0.16509238329E+02  0.61907175802E+01 -0.20525884900E+02  0.27059044432E+02  0.51100000000E-03 0. -1.
        -11    1    3    3    0    0  0.47991588268E+00  0.10903429190E+02  0.18738704536E+01  0.11073684035E+02  0.51100000000E-03 0.  1.
         12    1    3    3    0    0 -0.14807191012E+01  0.89601579553E+01 -0.84372393424E+01  0.12396127111E+02  0.00000000000E+00 0. -1.
</event>
<event>
 7    1  0.9930326E-013  0.5052888E+02  0.7816164E-02  0.1300439E+00
        -11   -1    0    0    0    0  0.00000000000E+00  0.00000000000E+00  0.45593999997E+02  0.45594000000E+02  0.51100000000E-03 0. -1.
         11   -1    0    0    0    0 -0.00000000000E+00 -0.00000000000E+00 -0.45593999997E+02  0.45594000000E+02  0.51100000000E-03 0.  1.
    9900012    2    1    2    0    0  0.25607657445E+02  0.28279821588E+02 -0.14059301531E+02  0.50528875706E+02  0.30000048194E+02 0.  0.
        -12    1    1    2    0    0 -0.25607657445E+02 -0.28279821588E+02  0.14059301531E+02  0.40659124294E+02  0.00000000000E+00 0.  1.
         11    1    3    3    0    0  0.13626383791E+02  0.26976549499E+02 -0.19068056652E+02  0.35735183543E+02  0.51100000000E-03 0. -1.
        -11    1    3    3    0    0  0.40787683821E+00 -0.14290515626E+01 -0.65280848608E+00  0.16231793075E+01  0.51100000000E-03 0.  1.
         12    1    3    3    0    0  0.11573396816E+02  0.27323236513E+01  0.56615636070E+01  0.13170512855E+02  0.00000000000E+00 0. -1.
</event>
<event>
 7    1  0.9930326E-013  0.5052885E+02  0.7816164E-02  0.1300439E+00
        -11   -1    0    0    0    0  0.00000000000E+00  0.00000000000E+00  0.45593999997E+02  0.45594000000E+02  0.51100000000E-03 0.  1.
         11   -1    0    0    0    0 -0.00000000000E+00 -0.00000000000E+00 -0.45593999997E+02  0.45594000000E+02  0.51100000000E-03 0. -1.
    9900012    2    1    2    0    0  0.30393019950E+02 -0.15831153229E+02 -0.21881622111E+02  0.50528850225E+02  0.29999970744E+02 0.  0.
        -12    1    1    2    0    0 -0.30393019950E+02  0.15831153229E+02  0.21881622111E+02  0.40659149775E+02  0.00000000000E+00 0.  1.
         11    1    3    3    0    0  0.38253907780E+00  0.23037427630E+01 -0.12231222213E+02  0.12452163023E+02  0.51100000000E-03 0. -1.
        -11    1    3    3    0    0  0.12679855578E+02 -0.22843839530E+01 -0.57035771509E+00  0.12896606364E+02  0.51100000000E-03 0.  1.
         12    1    3    3    0    0  0.17330625294E+02 -0.15850512039E+02 -0.90800421825E+01  0.25180080838E+02  0.00000000000E+00 0. -1.
</event>
<event>
 7    1  0.9930326E-013  0.5052875E+02  0.7816164E-02  0.1300439E+00
        -11   -1    0    0    0    0  0.00000000000E+00  0.00000000000E+00  0.45593999997E+02  0.45594000000E+02  0.51100000000E-03 0.  1.
         11   -1    0    0    0    0 -0.00000000000E+00 -0.00000000000E+00 -0.45593999997E+02  0.45594000000E+02  0.51100000000E-03 0. -1.
    9900012    2    1    2    0    0 -0.48273308160E+01 -0.34878415128E+02 -0.20331449913E+02  0.50528747421E+02  0.29999658260E+02 0.  0.
        -12    1    1    2    0    0  0.48273308160E+01  0.34878415128E+02  0.20331449913E+02  0.40659252579E+02  0.00000000000E+00 0.  1.
         11    1    3    3    0    0  0.39748318708E+01 -0.18395992619E+01 -0.14304646782E+02  0.14960158210E+02  0.51100000000E-03 0.  1.
        -11    1    3    3    0    0 -0.86618246132E+01 -0.18839210239E+02 -0.21353230512E+01  0.20844727219E+02  0.51100000000E-03 0. -1.
        -12    1    3    3    0    0 -0.14033807361E+00 -0.14199605628E+02 -0.38914800801E+01  0.14723861992E+02  0.00000000000E+00 0.  1.
</event>
<event>
 7    1  0.9930326E-013  0.5052881E+02  0.7816164E-02  0.1300439E+00
        -11   -1    0    0    0    0  0.00000000000E+00  0.00000000000E+00  0.45593999997E+02  0.45594000000E+02  0.51100000000E-03 0.  1.
         11   -1    0    0    0    0 -0.00000000000E+00 -0.00000000000E+00 -0.45593999997E+02  0.45594000000E+02  0.51100000000E-03 0. -1.
    9900012    2    1    2    0    0  0.87216492400E+01 -0.39710713367E+02  0.40270960375E+00  0.50528805510E+02  0.29999834827E+02 0.  0.
        -12    1    1    2    0    0 -0.87216492400E+01  0.39710713367E+02 -0.40270960375E+00  0.40659194490E+02  0.00000000000E+00 0.  1.
         11    1    3    3    0    0 -0.26230545857E+01 -0.36077666675E+01 -0.67478441480E+01  0.80888686844E+01  0.51100000000E-03 0.  1.
        -11    1    3    3    0    0  0.16092802876E+02 -0.30434207533E+02  0.55024358689E+01  0.34863965542E+02  0.51100000000E-03 0. -1.
         12    1    3    3    0    0 -0.47480990503E+01 -0.56687391667E+01  0.16481178829E+01  0.75759712835E+01  0.00000000000E+00 0. -1.
</event>
<event>
 7    1  0.9930326E-013  0.5052886E+02  0.7816164E-02  0.1300439E+00
        -11   -1    0    0    0    0  0.00000000000E+00  0.00000000000E+00  0.45593999997E+02  0.45594000000E+02  0.51100000000E-03 0.  1.
         11   -1    0    0    0    0 -0.00000000000E+00 -0.00000000000E+00 -0.45593999997E+02  0.45594000000E+02  0.51100000000E-03 0. -1.
    9900012    2    1    2    0    0 -0.22913020735E+02 -0.89973207927E+01 -0.32360580900E+02  0.50528862075E+02  0.30000006762E+02 0.  0.
        -12    1    1    2    0    0  0.22913020735E+02  0.89973207927E+01  0.32360580900E+02  0.40659137925E+02  0.00000000000E+00 0.  1.
         11    1    3    3    0    0 -0.15870529044E+02 -0.17436792885E+02 -0.17435987584E+02  0.29324547763E+02  0.51100000000E-03 0. -1.
        -11    1    3    3    0    0 -0.25480288954E+01  0.71133520104E+01 -0.25539812728E+01  0.79759042546E+01  0.51100000000E-03 0.  1.
         12    1    3    3    0    0 -0.44944627956E+01  0.13261200817E+01 -0.12370612044E+02  0.13228410057E+02  0.00000000000E+00 0. -1.
</event>
<event>
 7    1  0.9930326E-013  0.5052884E+02  0.7816164E-02  0.1300439E+00
        -11   -1    0    0    0    0  0.00000000000E+00  0.00000000000E+00  0.45593999997E+02  0.45594000000E+02  0.51100000000E-03 0. -1.
         11   -1    0    0    0    0 -0.00000000000E+00 -0.00000000000E+00 -0.45593999997E+02  0.45594000000E+02  0.51100000000E-03 0.  1.
    9900012    2    1    2    0    0 -0.11400616011E+02 -0.12044378572E+02  0.37123123067E+02  0.50528839078E+02  0.29999936861E+02 0.  0.
        -12    1    1    2    0    0  0.11400616011E+02  0.12044378572E+02 -0.37123123067E+02  0.40659160922E+02  0.00000000000E+00 0.  1.
         11    1    3    3    0    0 -0.92076923087E+01 -0.25541784017E+01 -0.13129676268E+01  0.96451702530E+01  0.51100000000E-03 0. -1.
        -11    1    3    3    0    0  0.97754611743E+00  0.10161051497E+01  0.14305372677E+02  0.14374691433E+02  0.51100000000E-03 0.  1.
         12    1    3    3    0    0 -0.31704698193E+01 -0.10506305320E+02  0.24130718017E+02  0.26508977392E+02  0.00000000000E+00 0. -1.
</event>
<event>
 7    1  0.9930326E-013  0.5052887E+02  0.7816164E-02  0.1300439E+00
        -11   -1    0    0    0    0  0.00000000000E+00  0.00000000000E+00  0.45593999997E+02  0.45594000000E+02  0.51100000000E-03 0. -1.
         11   -1    0    0    0    0 -0.00000000000E+00 -0.00000000000E+00 -0.45593999997E+02  0.45594000000E+02  0.51100000000E-03 0.  1.
    9900012    2    1    2    0    0  0.10046983893E+02  0.32082648879E+02 -0.22867597397E+02  0.50528865047E+02  0.30000015798E+02 0.  0.
        -12    1    1    2    0    0 -0.10046983893E+02 -0.32082648879E+02  0.22867597397E+02  0.40659134953E+02  0.00000000000E+00 0.  1.
         11    1    3    3    0    0  0.68791560598E+01  0.28884425058E+02 -0.41654765310E+01  0.29983061785E+02  0.51100000000E-03 0. -1.
        -11    1    3    3    0    0 -0.14786312931E+01 -0.13347436250E+01 -0.50622359999E+01  0.54400482190E+01  0.51100000000E-03 0.  1.
         12    1    3    3    0    0  0.46464591258E+01  0.45329674453E+01 -0.13639884866E+02  0.15105755043E+02  0.00000000000E+00 0. -1.
</event>
<event>
 7    1  0.9930326E-013  0.5052886E+02  0.7816164E-02  0.1300439E+00
        -11   -1    0    0    0    0  0.00000000000E+00  0.00000000000E+00  0.45593999997E+02  0.45594000000E+02  0.51100000000E-03 0.  1.
         11   -1    0    0    0    0 -0.00000000000E+00 -0.00000000000E+00 -0.45593999997E+02  0.45594000000E+02  0.51100000000E-03 0. -1.
    9900012    2    1    2    0    0 -0.28900387899E+02 -0.28598594453E+02 -0.23192110948E+00  0.50528858189E+02  0.29999994953E+02 0.  0.
        -12    1    1    2    0    0  0.28900387899E+02  0.28598594453E+02  0.23192110948E+00  0.40659141811E+02  0.00000000000E+00 0.  1.
         11    1    3    3    0    0 -0.87343178092E+01 -0.87520730815E+00 -0.54232657785E+00  0.87947946993E+01  0.51100000000E-03 0. -1.
        -11    1    3    3    0    0 -0.66913818021E+01 -0.23200370499E+02 -0.77934341994E+01  0.25372611189E+02  0.51100000000E-03 0.  1.
        -12    1    3    3    0    0 -0.13474688288E+02 -0.45230166459E+01  0.81038396678E+01  0.16361452301E+02  0.00000000000E+00 0.  1.
</event>
<event>
 7    1  0.9930326E-013  0.5052884E+02  0.7816164E-02  0.1300439E+00
        -11   -1    0    0    0    0  0.00000000000E+00  0.00000000000E+00  0.45593999997E+02  0.45594000000E+02  0.51100000000E-03 0.  1.
         11   -1    0    0    0    0 -0.00000000000E+00 -0.00000000000E+00 -0.45593999997E+02  0.45594000000E+02  0.51100000000E-03 0. -1.
    9900012    2    1    2    0    0 -0.27816854605E+02 -0.29644896885E+02  0.75512334339E+00  0.50528837162E+02  0.29999931037E+02 0.  0.
        -12    1    1    2    0    0  0.27816854605E+02  0.29644896885E+02 -0.75512334339E+00  0.40659162838E+02  0.00000000000E+00 0.  1.
         11    1    3    3    0    0 -0.32427505876E+02 -0.18031396201E+02  0.12997281551E+00  0.37103790635E+02  0.51100000000E-03 0. -1.
        -11    1    3    3    0    0  0.32065202451E+01 -0.69672890191E+01 -0.19733009200E+01  0.79195205120E+01  0.51100000000E-03 0.  1.
         12    1    3    3    0    0  0.14041310259E+01 -0.46462116650E+01  0.25984514479E+01  0.55055260149E+01  0.00000000000E+00 0. -1.
</event>
<event>
 7    1  0.9930326E-013  0.5052886E+02  0.7816164E-02  0.1300439E+00
        -11   -1    0    0    0    0  0.00000000000E+00  0.00000000000E+00  0.45593999997E+02  0.45594000000E+02  0.51100000000E-03 0.  1.
         11   -1    0    0    0    0 -0.00000000000E+00 -0.00000000000E+00 -0.45593999997E+02  0.45594000000E+02  0.51100000000E-03 0. -1.
    9900012    2    1    2    0    0 -0.35543471091E+02  0.64392972798E+01  0.18664482553E+02  0.50528858400E+02  0.29999995592E+02 0.  0.
        -12    1    1    2    0    0  0.35543471091E+02 -0.64392972798E+01 -0.18664482553E+02  0.40659141600E+02  0.00000000000E+00 0.  1.
         11    1    3    3    0    0 -0.91104865858E+01  0.13548277084E+02  0.28293438986E+01  0.16569911434E+02  0.51100000000E-03 0. -1.
        -11    1    3    3    0    0 -0.22568213416E+02 -0.10081755101E+01  0.10142175526E+02  0.24762964267E+02  0.51100000000E-03 0.  1.
         12    1    3    3    0    0 -0.38647710897E+01 -0.61008042938E+01  0.56929631290E+01  0.91959826987E+01  0.00000000000E+00 0. -1.
</event>
<event>
 7    1  0.9930326E-013  0.5052886E+02  0.7816164E-02  0.1300439E+00
        -11   -1    0    0    0    0  0.00000000000E+00  0.00000000000E+00  0.45593999997E+02  0.45594000000E+02  0.51100000000E-03 0.  1.
         11   -1    0    0    0    0 -0.00000000000E+00 -0.00000000000E+00 -0.45593999997E+02  0.45594000000E+02  0.51100000000E-03 0. -1.
    9900012    2    1    2    0    0 -0.21304892936E+02 -0.32296971961E+02 -0.12496910843E+02  0.50528860296E+02  0.30000001357E+02 0.  0.
        -12    1    1    2    0    0  0.21304892936E+02  0.32296971961E+02  0.12496910843E+02  0.40659139704E+02  0.00000000000E+00 0.  1.
         11    1    3    3    0    0 -0.23159045624E+02 -0.10683639106E+02 -0.88232840416E+01  0.26987624577E+02  0.51100000000E-03 0. -1.
        -11    1    3    3    0    0 -0.28938629790E+01 -0.13515186039E+02 -0.28959627859E+01  0.14121660572E+02  0.51100000000E-03 0.  1.
         12    1    3    3    0    0  0.47480156673E+01 -0.80981468155E+01 -0.77766401511E+00  0.94195751466E+01  0.00000000000E+00 0. -1.
</event>
<event>
 7    1  0.1086252E-012  0.5052886E+02  0.7816164E-02  0.1300439E+00
        -11   -1    0    0    0    0  0.00000000000E+00  0.00000000000E+00  0.45593999997E+02  0.45594000000E+02  0.51100000000E-03 0.  1.
         11   -1    0    0    0    0 -0.00000000000E+00 -0.00000000000E+00 -0.45593999997E+02  0.45594000000E+02  0.51100000000E-03 0. -1.
    9900012    2    1    2    0    0 -0.22860347667E+02  0.31828848462E+02  0.10839491876E+02  0.50528859896E+02  0.30000000140E+02 0.  0.
        -12    1    1    2    0    0  0.22860347667E+02 -0.31828848462E+02 -0.10839491876E+02  0.40659140104E+02  0.00000000000E+00 0.  1.
         11    1    3    3    0    0 -0.52641988556E+01  0.20065972221E+02 -0.84394605744E+00  0.20762159713E+02  0.51100000000E-03 0. -1.
        -11    1    3    3    0    0 -0.20216740935E+02  0.13077890665E+02  0.87482577503E+01  0.25617959564E+02  0.51100000000E-03 0.  1.
        -12    1    3    3    0    0  0.26205921237E+01 -0.13150144237E+01  0.29351801834E+01  0.41487406188E+01  0.00000000000E+00 0.  1.
</event>
<event>
 7    1  0.9930326E-013  0.5052886E+02  0.7816164E-02  0.1300439E+00
        -11   -1    0    0    0    0  0.00000000000E+00  0.00000000000E+00  0.45593999997E+02  0.45594000000E+02  0.51100000000E-03 0. -1.
         11   -1    0    0    0    0 -0.00000000000E+00 -0.00000000000E+00 -0.45593999997E+02  0.45594000000E+02  0.51100000000E-03 0.  1.
    9900012    2    1    2    0    0 -0.54061316192E+01  0.29725901242E+02  0.27208645468E+02  0.50528857707E+02  0.29999993488E+02 0.  0.
        -12    1    1    2    0    0  0.54061316192E+01 -0.29725901242E+02 -0.27208645468E+02  0.40659142293E+02  0.00000000000E+00 0.  1.
         11    1    3    3    0    0 -0.60874048201E+01  0.10660225381E+02  0.59773880244E+01  0.13653793263E+02  0.51100000000E-03 0. -1.
        -11    1    3    3    0    0  0.79955057240E+01  0.16495524696E+02  0.22497020656E+02  0.29019758535E+02  0.51100000000E-03 0.  1.
        -12    1    3    3    0    0 -0.73142325231E+01  0.25701511652E+01 -0.12657632123E+01  0.78553059090E+01  0.00000000000E+00 0.  1.
</event>
<event>
 7    1  0.9930326E-013  0.5052884E+02  0.7816164E-02  0.1300439E+00
        -11   -1    0    0    0    0  0.00000000000E+00  0.00000000000E+00  0.45593999997E+02  0.45594000000E+02  0.51100000000E-03 0.  1.
         11   -1    0    0    0    0 -0.00000000000E+00 -0.00000000000E+00 -0.45593999997E+02  0.45594000000E+02  0.51100000000E-03 0. -1.
    9900012    2    1    2    0    0 -0.56848443435E+01 -0.52780597254E+01 -0.39912298238E+02  0.50528844570E+02  0.29999953555E+02 0.  0.
        -12    1    1    2    0    0  0.56848443435E+01  0.52780597254E+01  0.39912298238E+02  0.40659155430E+02  0.00000000000E+00 0.  1.
         11    1    3    3    0    0  0.23048582837E+01 -0.27537741243E+01 -0.27731387333E+02  0.27962930593E+02  0.51100000000E-03 0. -1.
        -11    1    3    3    0    0 -0.96947963132E+00  0.20757376637E+01  0.38446736587E+01  0.44754992355E+01  0.51100000000E-03 0.  1.
         12    1    3    3    0    0 -0.70202229959E+01 -0.46000232648E+01 -0.16025584563E+02  0.18090414742E+02  0.00000000000E+00 0. -1.
</event>
<event>
 7    1  0.9930326E-013  0.5052888E+02  0.7816164E-02  0.1300439E+00
        -11   -1    0    0    0    0  0.00000000000E+00  0.00000000000E+00  0.45593999997E+02  0.45594000000E+02  0.51100000000E-03 0.  1.
         11   -1    0    0    0    0 -0.00000000000E+00 -0.00000000000E+00 -0.45593999997E+02  0.45594000000E+02  0.51100000000E-03 0. -1.
    9900012    2    1    2    0    0  0.22877542833E+02  0.49697889839E+01 -0.33242794927E+02  0.50528878229E+02  0.30000055866E+02 0.  0.
        -12    1    1    2    0    0 -0.22877542833E+02 -0.49697889839E+01  0.33242794927E+02  0.40659121771E+02  0.00000000000E+00 0.  1.
         11    1    3    3    0    0  0.20481356665E+02  0.90913410754E+01 -0.22803587432E+02  0.31970956405E+02  0.51100000000E-03 0. -1.
        -11    1    3    3    0    0  0.34807344279E+01 -0.58732593352E+01  0.10305941440E+01  0.69045500887E+01  0.51100000000E-03 0.  1.
        -12    1    3    3    0    0 -0.10845482600E+01  0.17517072437E+01 -0.11469801638E+02  0.11653371736E+02  0.00000000000E+00 0.  1.
</event>
<event>
 7    1  0.9930326E-013  0.5052886E+02  0.7816164E-02  0.1300439E+00
        -11   -1    0    0    0    0  0.00000000000E+00  0.00000000000E+00  0.45593999997E+02  0.45594000000E+02  0.51100000000E-03 0.  1.
         11   -1    0    0    0    0 -0.00000000000E+00 -0.00000000000E+00 -0.45593999997E+02  0.45594000000E+02  0.51100000000E-03 0. -1.
    9900012    2    1    2    0    0  0.17473398839E+02 -0.19807967197E+02 -0.30911014359E+02  0.50528855393E+02  0.29999986451E+02 0.  0.
        -12    1    1    2    0    0 -0.17473398839E+02  0.19807967197E+02  0.30911014359E+02  0.40659144607E+02  0.00000000000E+00 0.  1.
         11    1    3    3    0    0  0.14754784475E+02 -0.14710681407E+02 -0.45534480495E+01  0.21327018117E+02  0.51100000000E-03 0. -1.
        -11    1    3    3    0    0 -0.11205794337E+01  0.11205126670E+01 -0.18123854637E+02  0.18193002887E+02  0.51100000000E-03 0.  1.
         12    1    3    3    0    0  0.38391937979E+01 -0.62177984568E+01 -0.82337116732E+01  0.11008834388E+02  0.00000000000E+00 0. -1.
</event>
<event>
 7    1  0.9930326E-013  0.5052886E+02  0.7816164E-02  0.1300439E+00
        -11   -1    0    0    0    0  0.00000000000E+00  0.00000000000E+00  0.45593999997E+02  0.45594000000E+02  0.51100000000E-03 0.  1.
         11   -1    0    0    0    0 -0.00000000000E+00 -0.00000000000E+00 -0.45593999997E+02  0.45594000000E+02  0.51100000000E-03 0. -1.
    9900012    2    1    2    0    0  0.69145825965E+01  0.77520345142E+01 -0.39309795327E+02  0.50528862033E+02  0.30000006635E+02 0.  0.
        -12    1    1    2    0    0 -0.69145825965E+01 -0.77520345142E+01  0.39309795327E+02  0.40659137967E+02  0.00000000000E+00 0.  1.
         11    1    3    3    0    0  0.15499458198E+01 -0.22520426404E+01 -0.13077876727E+02  0.13360572145E+02  0.51100000000E-03 0. -1.
        -11    1    3    3    0    0  0.14305835113E+02  0.90758512109E+01 -0.13937850221E+02  0.21938360525E+02  0.51100000000E-03 0.  1.
        -12    1    3    3    0    0 -0.89411983362E+01  0.92822594377E+00 -0.12294068380E+02  0.15229929363E+02  0.00000000000E+00 0.  1.
</event>
<event>
 7    1  0.9930326E-013  0.5052887E+02  0.7816164E-02  0.1300439E+00
        -11   -1    0    0    0    0  0.00000000000E+00  0.00000000000E+00  0.45593999997E+02  0.45594000000E+02  0.51100000000E-03 0. -1.
         11   -1    0    0    0    0 -0.00000000000E+00 -0.00000000000E+00 -0.45593999997E+02  0.45594000000E+02  0.51100000000E-03 0.  1.
    9900012    2    1    2    0    0  0.20918143018E+02  0.33050001768E+02  0.11103772265E+02  0.50528867168E+02  0.30000022243E+02 0.  0.
        -12    1    1    2    0    0 -0.20918143018E+02 -0.33050001768E+02 -0.11103772265E+02  0.40659132832E+02  0.00000000000E+00 0.  1.
         11    1    3    3    0    0  0.76091208617E+01  0.28711470890E+00  0.44608821477E+01  0.88249999967E+01  0.51100000000E-03 0. -1.
        -11    1    3    3    0    0 -0.30139837276E+01  0.16508086879E+02  0.80762315758E+01  0.18623279707E+02  0.51100000000E-03 0.  1.
        -12    1    3    3    0    0  0.16323005883E+02  0.16254800179E+02 -0.14333414586E+01  0.23080587464E+02  0.00000000000E+00 0.  1.
</event>
<event>
 7    1  0.9930326E-013  0.5052887E+02  0.7816164E-02  0.1300439E+00
        -11   -1    0    0    0    0  0.00000000000E+00  0.00000000000E+00  0.45593999997E+02  0.45594000000E+02  0.51100000000E-03 0.  1.
         11   -1    0    0    0    0 -0.00000000000E+00 -0.00000000000E+00 -0.45593999997E+02  0.45594000000E+02  0.51100000000E-03 0. -1.
    9900012    2    1    2    0    0  0.37871468253E+02  0.11294915492E+02 -0.95573003331E+01  0.50528865562E+02  0.30000017363E+02 0.  0.
        -12    1    1    2    0    0 -0.37871468253E+02 -0.11294915492E+02  0.95573003331E+01  0.40659134438E+02  0.00000000000E+00 0.  1.
         11    1    3    3    0    0  0.43877973896E+01 -0.38425256993E+01  0.61533156246E+01  0.84782700547E+01  0.51100000000E-03 0.  1.
        -11    1    3    3    0    0  0.30390471234E+02  0.15935406175E+02 -0.17359054483E+02  0.38455879715E+02  0.51100000000E-03 0. -1.
         12    1    3    3    0    0  0.30931996286E+01 -0.79796498400E+00  0.16484385255E+01  0.35947157928E+01  0.00000000000E+00 0. -1.
</event>
<event>
 7    1  0.9930326E-013  0.5052886E+02  0.7816164E-02  0.1300439E+00
        -11   -1    0    0    0    0  0.00000000000E+00  0.00000000000E+00  0.45593999997E+02  0.45594000000E+02  0.51100000000E-03 0.  1.
         11   -1    0    0    0    0 -0.00000000000E+00 -0.00000000000E+00 -0.45593999997E+02  0.45594000000E+02  0.51100000000E-03 0. -1.
    9900012    2    1    2    0    0  0.20040136408E+02  0.77211585820E+01 -0.34524518175E+02  0.50528859425E+02  0.29999998708E+02 0.  0.
        -12    1    1    2    0    0 -0.20040136408E+02 -0.77211585820E+01  0.34524518175E+02  0.40659140575E+02  0.00000000000E+00 0.  1.
         11    1    3    3    0    0  0.74923018839E+01  0.50418033743E+01 -0.27354465491E+02  0.28806616451E+02  0.51100000000E-03 0. -1.
        -11    1    3    3    0    0  0.16106025381E+02  0.42264918180E+00 -0.44784132559E+01  0.16722406270E+02  0.51100000000E-03 0.  1.
        -12    1    3    3    0    0 -0.35581908569E+01  0.22567060259E+01 -0.26916394284E+01  0.49998367048E+01  0.00000000000E+00 0.  1.
</event>
<event>
 7    1  0.9930326E-013  0.5052886E+02  0.7816164E-02  0.1300439E+00
        -11   -1    0    0    0    0  0.00000000000E+00  0.00000000000E+00  0.45593999997E+02  0.45594000000E+02  0.51100000000E-03 0. -1.
         11   -1    0    0    0    0 -0.00000000000E+00 -0.00000000000E+00 -0.45593999997E+02  0.45594000000E+02  0.51100000000E-03 0.  1.
    9900012    2    1    2    0    0 -0.22236921032E+02  0.31404414356E+02  0.13131944759E+02  0.50528857472E+02  0.29999992771E+02 0.  0.
        -12    1    1    2    0    0  0.22236921032E+02 -0.31404414356E+02 -0.13131944759E+02  0.40659142528E+02  0.00000000000E+00 0.  1.
         11    1    3    3    0    0 -0.17106724746E+02  0.20398002277E+02  0.74165611965E+01  0.27635555154E+02  0.51100000000E-03 0. -1.
        -11    1    3    3    0    0  0.65568140685E+01  0.74295933844E+01  0.19010742864E+01  0.10089834106E+02  0.51100000000E-03 0.  1.
        -12    1    3    3    0    0 -0.11687010354E+02  0.35768186946E+01  0.38143092758E+01  0.12803468211E+02  0.00000000000E+00 0.  1.
</event>
<event>
 7    1  0.9930326E-013  0.5052886E+02  0.7816164E-02  0.1300439E+00
        -11   -1    0    0    0    0  0.00000000000E+00  0.00000000000E+00  0.45593999997E+02  0.45594000000E+02  0.51100000000E-03 0.  1.
         11   -1    0    0    0    0 -0.00000000000E+00 -0.00000000000E+00 -0.45593999997E+02  0.45594000000E+02  0.51100000000E-03 0. -1.
    9900012    2    1    2    0    0 -0.37542266016E+02 -0.14384666021E+02 -0.60684114033E+01  0.50528856242E+02  0.29999989034E+02 0.  0.
        -12    1    1    2    0    0  0.37542266016E+02  0.14384666021E+02  0.60684114033E+01  0.40659143758E+02  0.00000000000E+00 0.  1.
         11    1    3    3    0    0 -0.22061063354E+02 -0.15890061057E+02 -0.13221799753E+02  0.30232441941E+02  0.51100000000E-03 0. -1.
        -11    1    3    3    0    0  0.14497091372E+01  0.11017556742E+01  0.17348079366E+01  0.25149713689E+01  0.51100000000E-03 0.  1.
         12    1    3    3    0    0 -0.16930911799E+02  0.40363936186E+00  0.54185804128E+01  0.17781442933E+02  0.00000000000E+00 0. -1.
</event>
<event>
 7    1  0.9930326E-013  0.5052886E+02  0.7816164E-02  0.1300439E+00
        -11   -1    0    0    0    0  0.00000000000E+00  0.00000000000E+00  0.45593999997E+02  0.45594000000E+02  0.51100000000E-03 0.  1.
         11   -1    0    0    0    0 -0.00000000000E+00 -0.00000000000E+00 -0.45593999997E+02  0.45594000000E+02  0.51100000000E-03 0. -1.
    9900012    2    1    2    0    0  0.26129552882E+02  0.20590023986E+02 -0.23376549872E+02  0.50528859509E+02  0.29999998964E+02 0.  0.
        -12    1    1    2    0    0 -0.26129552882E+02 -0.20590023986E+02  0.23376549872E+02  0.40659140491E+02  0.00000000000E+00 0.  1.
         11    1    3    3    0    0  0.68839527021E+01 -0.46658420443E+01 -0.30915710581E+01  0.88722431581E+01  0.51100000000E-03 0. -1.
        -11    1    3    3    0    0  0.12670440243E+02  0.21505831949E+02 -0.22671439058E+02  0.33719949777E+02  0.51100000000E-03 0.  1.
        -12    1    3    3    0    0  0.65751599370E+01  0.37500340814E+01  0.23864602441E+01  0.79366665739E+01  0.00000000000E+00 0.  1.
</event>
<event>
 7    1  0.9930326E-013  0.5052886E+02  0.7816164E-02  0.1300439E+00
        -11   -1    0    0    0    0  0.00000000000E+00  0.00000000000E+00  0.45593999997E+02  0.45594000000E+02  0.51100000000E-03 0.  1.
         11   -1    0    0    0    0 -0.00000000000E+00 -0.00000000000E+00 -0.45593999997E+02  0.45594000000E+02  0.51100000000E-03 0. -1.
    9900012    2    1    2    0    0 -0.93667736441E+01 -0.32348443252E+02 -0.22781737090E+02  0.50528858665E+02  0.29999996397E+02 0.  0.
        -12    1    1    2    0    0  0.93667736441E+01  0.32348443252E+02  0.22781737090E+02  0.40659141335E+02  0.00000000000E+00 0.  1.
         11    1    3    3    0    0 -0.40418933923E+01 -0.74083850617E+00 -0.13975813867E+02  0.14567399129E+02  0.51100000000E-03 0. -1.
        -11    1    3    3    0    0 -0.64545143160E+01 -0.31997181927E+02 -0.63830396333E+01  0.33259939891E+02  0.51100000000E-03 0.  1.
        -12    1    3    3    0    0  0.11296340641E+01  0.38957718207E+00 -0.24228835896E+01  0.27015196443E+01  0.00000000000E+00 0.  1.
</event>
<event>
 7    1  0.9930326E-013  0.5052887E+02  0.7816164E-02  0.1300439E+00
        -11   -1    0    0    0    0  0.00000000000E+00  0.00000000000E+00  0.45593999997E+02  0.45594000000E+02  0.51100000000E-03 0.  1.
         11   -1    0    0    0    0 -0.00000000000E+00 -0.00000000000E+00 -0.45593999997E+02  0.45594000000E+02  0.51100000000E-03 0. -1.
    9900012    2    1    2    0    0  0.54440843526E+01  0.96350785453E+01 -0.39124057051E+02  0.50528872696E+02  0.30000039047E+02 0.  0.
        -12    1    1    2    0    0 -0.54440843526E+01 -0.96350785453E+01  0.39124057051E+02  0.40659127304E+02  0.00000000000E+00 0.  1.
         11    1    3    3    0    0 -0.76183428831E+01 -0.56905582168E+01 -0.80987779261E+01  0.12490468577E+02  0.51100000000E-03 0. -1.
        -11    1    3    3    0    0  0.42202695069E+01  0.14763935121E+01 -0.25089544010E+01  0.51269157357E+01  0.51100000000E-03 0.  1.
         12    1    3    3    0    0  0.88421577288E+01  0.13849243250E+02 -0.28516324724E+02  0.32911488384E+02  0.00000000000E+00 0. -1.
</event>
<event>
 7    1  0.9930326E-013  0.5052886E+02  0.7816164E-02  0.1300439E+00
        -11   -1    0    0    0    0  0.00000000000E+00  0.00000000000E+00  0.45593999997E+02  0.45594000000E+02  0.51100000000E-03 0. -1.
         11   -1    0    0    0    0 -0.00000000000E+00 -0.00000000000E+00 -0.45593999997E+02  0.45594000000E+02  0.51100000000E-03 0.  1.
    9900012    2    1    2    0    0  0.19829661447E+02  0.56934367287E+01  0.35036191940E+02  0.50528862767E+02  0.30000008868E+02 0.  0.
        -12    1    1    2    0    0 -0.19829661447E+02 -0.56934367287E+01 -0.35036191940E+02  0.40659137233E+02  0.00000000000E+00 0.  1.
         11    1    3    3    0    0 -0.32176017999E+01  0.69837461261E+01  0.82679051788E+01  0.11290878071E+02  0.51100000000E-03 0. -1.
        -11    1    3    3    0    0  0.19810283249E+02 -0.40240924756E+01  0.28260312174E+02  0.34746019731E+02  0.51100000000E-03 0.  1.
        -12    1    3    3    0    0  0.32369799974E+01  0.27337830782E+01 -0.14920254136E+01  0.44919649662E+01  0.00000000000E+00 0.  1.
</event>
<event>
 7    1  0.9930326E-013  0.5052886E+02  0.7816164E-02  0.1300439E+00
        -11   -1    0    0    0    0  0.00000000000E+00  0.00000000000E+00  0.45593999997E+02  0.45594000000E+02  0.51100000000E-03 0.  1.
         11   -1    0    0    0    0 -0.00000000000E+00 -0.00000000000E+00 -0.45593999997E+02  0.45594000000E+02  0.51100000000E-03 0. -1.
    9900012    2    1    2    0    0  0.32218780639E+01 -0.29243382784E+02 -0.28064385363E+02  0.50528860059E+02  0.30000000636E+02 0.  0.
        -12    1    1    2    0    0 -0.32218780639E+01  0.29243382784E+02  0.28064385363E+02  0.40659139941E+02  0.00000000000E+00 0.  1.
         11    1    3    3    0    0 -0.25284783646E+00 -0.68226482322E+01 -0.13760262551E+02  0.15360901232E+02  0.51100000000E-03 0. -1.
        -11    1    3    3    0    0  0.12489866632E+02 -0.72236621832E+01 -0.71779139652E+01  0.16115226122E+02  0.51100000000E-03 0.  1.
        -12    1    3    3    0    0 -0.90151407315E+01 -0.15197072369E+02 -0.71262088463E+01  0.19052732705E+02  0.00000000000E+00 0.  1.
</event>
<event>
 7    1  0.9930326E-013  0.5052888E+02  0.7816164E-02  0.1300439E+00
        -11   -1    0    0    0    0  0.00000000000E+00  0.00000000000E+00  0.45593999997E+02  0.45594000000E+02  0.51100000000E-03 0.  1.
         11   -1    0    0    0    0 -0.00000000000E+00 -0.00000000000E+00 -0.45593999997E+02  0.45594000000E+02  0.51100000000E-03 0. -1.
    9900012    2    1    2    0    0  0.38444362874E+02 -0.11912580379E+02  0.57693534076E+01  0.50528879906E+02  0.30000060962E+02 0.  0.
        -12    1    1    2    0    0 -0.38444362874E+02  0.11912580379E+02 -0.57693534076E+01  0.40659120094E+02  0.00000000000E+00 0.  1.
         11    1    3    3    0    0  0.22383250809E+02 -0.80862205657E+01  0.58833198465E+01  0.24515512079E+02  0.51100000000E-03 0. -1.
        -11    1    3    3    0    0  0.64122457929E+01 -0.10455348872E+02 -0.51078247057E+01  0.13286123951E+02  0.51100000000E-03 0.  1.
        -12    1    3    3    0    0  0.96488662725E+01  0.66289890596E+01  0.49938582668E+01  0.12727243876E+02  0.00000000000E+00 0.  1.
</event>
<event>
 7    1  0.9930326E-013  0.5052886E+02  0.7816164E-02  0.1300439E+00
        -11   -1    0    0    0    0  0.00000000000E+00  0.00000000000E+00  0.45593999997E+02  0.45594000000E+02  0.51100000000E-03 0. -1.
         11   -1    0    0    0    0 -0.00000000000E+00 -0.00000000000E+00 -0.45593999997E+02  0.45594000000E+02  0.51100000000E-03 0.  1.
    9900012    2    1    2    0    0  0.28843955232E+02 -0.41154643238E+01  0.28359381597E+02  0.50528864192E+02  0.30000013198E+02 0.  0.
        -12    1    1    2    0    0 -0.28843955232E+02  0.41154643238E+01 -0.28359381597E+02  0.40659135808E+02  0.00000000000E+00 0.  1.
         11    1    3    3    0    0  0.19979671334E+02 -0.12941111045E+02  0.21900123294E+02  0.32346174770E+02  0.51100000000E-03 0. -1.
        -11    1    3    3    0    0 -0.91415169080E+00  0.62277547324E+01  0.22492256386E+00  0.62985071836E+01  0.51100000000E-03 0.  1.
         12    1    3    3    0    0  0.97784355895E+01  0.25978919893E+01  0.62343357394E+01  0.11884182239E+02  0.00000000000E+00 0. -1.
</event>
<event>
 7    1  0.9930326E-013  0.5052885E+02  0.7816164E-02  0.1300439E+00
        -11   -1    0    0    0    0  0.00000000000E+00  0.00000000000E+00  0.45593999997E+02  0.45594000000E+02  0.51100000000E-03 0. -1.
         11   -1    0    0    0    0 -0.00000000000E+00 -0.00000000000E+00 -0.45593999997E+02  0.45594000000E+02  0.51100000000E-03 0.  1.
    9900012    2    1    2    0    0 -0.19364923930E+02 -0.33288182885E+02  0.13040814150E+02  0.50528853031E+02  0.29999979272E+02 0.  0.
        -12    1    1    2    0    0  0.19364923930E+02  0.33288182885E+02 -0.13040814150E+02  0.40659146969E+02  0.00000000000E+00 0.  1.
         11    1    3    3    0    0 -0.31652758022E+01 -0.29875673403E+02  0.14397799132E+02  0.33314733262E+02  0.51100000000E-03 0. -1.
        -11    1    3    3    0    0 -0.26315859346E+01  0.95300448269E+00  0.49157658171E+00  0.28416737800E+01  0.51100000000E-03 0.  1.
         12    1    3    3    0    0 -0.13568062193E+02 -0.43655139641E+01 -0.18485615641E+01  0.14372445989E+02  0.00000000000E+00 0. -1.
</event>
<event>
 7    1  0.9930326E-013  0.5052886E+02  0.7816164E-02  0.1300439E+00
        -11   -1    0    0    0    0  0.00000000000E+00  0.00000000000E+00  0.45593999997E+02  0.45594000000E+02  0.51100000000E-03 0. -1.
         11   -1    0    0    0    0 -0.00000000000E+00 -0.00000000000E+00 -0.45593999997E+02  0.45594000000E+02  0.51100000000E-03 0.  1.
    9900012    2    1    2    0    0  0.37003803126E+02  0.14631929517E+02  0.83540929367E+01  0.50528859871E+02  0.30000000065E+02 0.  0.
        -12    1    1    2    0    0 -0.37003803126E+02 -0.14631929517E+02 -0.83540929367E+01  0.40659140129E+02  0.00000000000E+00 0.  1.
         11    1    3    3    0    0  0.20970852742E+01 -0.38515994574E+01  0.88137882267E+01  0.98445643984E+01  0.51100000000E-03 0. -1.
        -11    1    3    3    0    0  0.10218274794E+02  0.52699453564E+01 -0.45893328507E+01  0.12379315009E+02  0.51100000000E-03 0.  1.
         12    1    3    3    0    0  0.24688443058E+02  0.13213583618E+02  0.41296375607E+01  0.28304980464E+02  0.00000000000E+00 0. -1.
</event>
<event>
 7    1  0.9930326E-013  0.5052888E+02  0.7816164E-02  0.1300439E+00
        -11   -1    0    0    0    0  0.00000000000E+00  0.00000000000E+00  0.45593999997E+02  0.45594000000E+02  0.51100000000E-03 0.  1.
         11   -1    0    0    0    0 -0.00000000000E+00 -0.00000000000E+00 -0.45593999997E+02  0.45594000000E+02  0.51100000000E-03 0. -1.
    9900012    2    1    2    0    0 -0.26728729931E+02 -0.93344925433E+00 -0.30624623472E+02  0.50528881785E+02  0.30000066674E+02 0.  0.
        -12    1    1    2    0    0  0.26728729931E+02  0.93344925433E+00  0.30624623472E+02  0.40659118215E+02  0.00000000000E+00 0.  1.
         11    1    3    3    0    0 -0.29932382525E+02 -0.60716523213E+01 -0.30937731355E+02  0.43473620819E+02  0.51100000000E-03 0. -1.
        -11    1    3    3    0    0  0.31483773782E+01  0.41732652948E+01 -0.11010644883E+01  0.53423559040E+01  0.51100000000E-03 0.  1.
         12    1    3    3    0    0  0.55275215332E-01  0.96493777217E+00  0.14141723714E+01  0.17129050615E+01  0.00000000000E+00 0. -1.
</event>
<event>
 7    1  0.9930326E-013  0.5052887E+02  0.7816164E-02  0.1300439E+00
        -11   -1    0    0    0    0  0.00000000000E+00  0.00000000000E+00  0.45593999997E+02  0.45594000000E+02  0.51100000000E-03 0.  1.
         11   -1    0    0    0    0 -0.00000000000E+00 -0.00000000000E+00 -0.45593999997E+02  0.45594000000E+02  0.51100000000E-03 0. -1.
    9900012    2    1    2    0    0  0.25769705868E+02 -0.18167374142E+02 -0.25671652612E+02  0.50528868535E+02  0.30000026398E+02 0.  0.
        -12    1    1    2    0    0 -0.25769705868E+02  0.18167374142E+02  0.25671652612E+02  0.40659131465E+02  0.00000000000E+00 0.  1.
         11    1    3    3    0    0  0.76926884138E+01 -0.98628504589E+00 -0.21937187712E+02  0.23267797880E+02  0.51100000000E-03 0. -1.
        -11    1    3    3    0    0  0.14526976819E+02 -0.10869826039E+02  0.16775797467E+01  0.18220879443E+02  0.51100000000E-03 0.  1.
        -12    1    3    3    0    0  0.35500406353E+01 -0.63112630570E+01 -0.54120446463E+01  0.90401912115E+01  0.00000000000E+00 0.  1.
</event>
<event>
 7    1  0.9930326E-013  0.5052886E+02  0.7816164E-02  0.1300439E+00
        -11   -1    0    0    0    0  0.00000000000E+00  0.00000000000E+00  0.45593999997E+02  0.45594000000E+02  0.51100000000E-03 0. -1.
         11   -1    0    0    0    0 -0.00000000000E+00 -0.00000000000E+00 -0.45593999997E+02  0.45594000000E+02  0.51100000000E-03 0.  1.
    9900012    2    1    2    0    0  0.12731013750E+02 -0.42079217788E+01  0.38384638005E+02  0.50528858942E+02  0.29999997239E+02 0.  0.
        -12    1    1    2    0    0 -0.12731013750E+02  0.42079217788E+01 -0.38384638005E+02  0.40659141058E+02  0.00000000000E+00 0.  1.
         11    1    3    3    0    0 -0.45797202516E+01 -0.60829239725E+01  0.16755776603E+02  0.18404669285E+02  0.51100000000E-03 0. -1.
        -11    1    3    3    0    0  0.14052662348E+02 -0.58067311399E+01  0.11906693576E+02  0.19312296543E+02  0.51100000000E-03 0.  1.
        -12    1    3    3    0    0  0.32580716534E+01  0.76817333336E+01  0.97221678265E+01  0.12811893114E+02  0.00000000000E+00 0.  1.
</event>
<event>
 7    1  0.9930326E-013  0.5052886E+02  0.7816164E-02  0.1300439E+00
        -11   -1    0    0    0    0  0.00000000000E+00  0.00000000000E+00  0.45593999997E+02  0.45594000000E+02  0.51100000000E-03 0.  1.
         11   -1    0    0    0    0 -0.00000000000E+00 -0.00000000000E+00 -0.45593999997E+02  0.45594000000E+02  0.51100000000E-03 0. -1.
    9900012    2    1    2    0    0 -0.16670131268E+01  0.69790258735E+00 -0.40618953095E+02  0.50528863864E+02  0.30000012200E+02 0.  0.
        -12    1    1    2    0    0  0.16670131268E+01 -0.69790258735E+00  0.40618953095E+02  0.40659136136E+02  0.00000000000E+00 0.  1.
         11    1    3    3    0    0 -0.28526374437E+01  0.68724629929E+01 -0.19440944108E+02  0.20816306014E+02  0.51100000000E-03 0. -1.
        -11    1    3    3    0    0  0.64125598952E+01 -0.10884611769E+01  0.80260622590E+00  0.65536134429E+01  0.51100000000E-03 0.  1.
        -12    1    3    3    0    0 -0.52269355783E+01 -0.50860992287E+01 -0.21980615213E+02  0.23158944407E+02  0.00000000000E+00 0.  1.
</event>
<event>
 7    1  0.9930326E-013  0.5052885E+02  0.7816164E-02  0.1300439E+00
        -11   -1    0    0    0    0  0.00000000000E+00  0.00000000000E+00  0.45593999997E+02  0.45594000000E+02  0.51100000000E-03 0.  1.
         11   -1    0    0    0    0 -0.00000000000E+00 -0.00000000000E+00 -0.45593999997E+02  0.45594000000E+02  0.51100000000E-03 0. -1.
    9900012    2    1    2    0    0 -0.16149030631E+02  0.24706858900E+02 -0.27963299002E+02  0.50528853943E+02  0.29999982044E+02 0.  0.
        -12    1    1    2    0    0  0.16149030631E+02 -0.24706858900E+02  0.27963299002E+02  0.40659146057E+02  0.00000000000E+00 0.  1.
         11    1    3    3    0    0 -0.63262830839E+01  0.97168622980E+01 -0.24575043368E+02  0.27173001811E+02  0.51100000000E-03 0. -1.
        -11    1    3    3    0    0 -0.96236758002E+01  0.22594811372E+01 -0.38669451513E+01  0.10614784783E+02  0.51100000000E-03 0.  1.
         12    1    3    3    0    0 -0.19907174708E+00  0.12730515464E+02  0.47868951728E+00  0.12741067350E+02  0.00000000000E+00 0. -1.
</event>
<event>
 7    1  0.9930326E-013  0.5052886E+02  0.7816164E-02  0.1300439E+00
        -11   -1    0    0    0    0  0.00000000000E+00  0.00000000000E+00  0.45593999997E+02  0.45594000000E+02  0.51100000000E-03 0.  1.
         11   -1    0    0    0    0 -0.00000000000E+00 -0.00000000000E+00 -0.45593999997E+02  0.45594000000E+02  0.51100000000E-03 0. -1.
    9900012    2    1    2    0    0 -0.10520004405E+02  0.18764519926E+02 -0.34501996474E+02  0.50528862510E+02  0.30000008086E+02 0.  0.
        -12    1    1    2    0    0  0.10520004405E+02 -0.18764519926E+02  0.34501996474E+02  0.40659137490E+02  0.00000000000E+00 0.  1.
         11    1    3    3    0    0 -0.35143220194E+01 -0.67631583492E+00 -0.22314404347E+02  0.22599568668E+02  0.51100000000E-03 0. -1.
        -11    1    3    3    0    0 -0.91098523927E+00  0.86763077070E+01  0.21578989798E+01  0.89869203735E+01  0.51100000000E-03 0.  1.
         12    1    3    3    0    0 -0.60946971464E+01  0.10764528054E+02 -0.14345491107E+02  0.18942373469E+02  0.00000000000E+00 0. -1.
</event>
<event>
 7    1  0.9930326E-013  0.5052886E+02  0.7816164E-02  0.1300439E+00
        -11   -1    0    0    0    0  0.00000000000E+00  0.00000000000E+00  0.45593999997E+02  0.45594000000E+02  0.51100000000E-03 0.  1.
         11   -1    0    0    0    0 -0.00000000000E+00 -0.00000000000E+00 -0.45593999997E+02  0.45594000000E+02  0.51100000000E-03 0. -1.
    9900012    2    1    2    0    0  0.22907833719E+02 -0.30928406191E+02 -0.13108400521E+02  0.50528864256E+02  0.30000013393E+02 0.  0.
        -12    1    1    2    0    0 -0.22907833719E+02  0.30928406191E+02  0.13108400521E+02  0.40659135744E+02  0.00000000000E+00 0.  1.
         11    1    3    3    0    0  0.10800738396E+02 -0.15258401244E+02 -0.15920374137E+02  0.24554695505E+02  0.51100000000E-03 0. -1.
        -11    1    3    3    0    0  0.45479251656E+01 -0.16606125684E+02  0.52100826856E+01  0.17988662968E+02  0.51100000000E-03 0.  1.
        -12    1    3    3    0    0  0.75591701574E+01  0.93612073668E+00 -0.23981090701E+01  0.79855057832E+01  0.00000000000E+00 0.  1.
</event>
<event>
 7    1  0.9930326E-013  0.5052891E+02  0.7816164E-02  0.1300439E+00
        -11   -1    0    0    0    0  0.00000000000E+00  0.00000000000E+00  0.45593999997E+02  0.45594000000E+02  0.51100000000E-03 0.  1.
         11   -1    0    0    0    0 -0.00000000000E+00 -0.00000000000E+00 -0.45593999997E+02  0.45594000000E+02  0.51100000000E-03 0. -1.
    9900012    2    1    2    0    0 -0.79233868089E+01  0.10130115567E+00 -0.39879464197E+02  0.50528905259E+02  0.30000138026E+02 0.  0.
        -12    1    1    2    0    0  0.79233868089E+01 -0.10130115567E+00  0.39879464197E+02  0.40659094741E+02  0.00000000000E+00 0.  1.
         11    1    3    3    0    0 -0.12005890736E+02 -0.10065360637E+02 -0.29230018063E+02  0.33163939051E+02  0.51100000000E-03 0.  1.
        -11    1    3    3    0    0  0.55539256993E+01  0.99040552461E+01 -0.11021862733E+02  0.15824596657E+02  0.51100000000E-03 0. -1.
         12    1    3    3    0    0 -0.14714217724E+01  0.26260654695E+00  0.37241659937E+00  0.15403695512E+01  0.00000000000E+00 0. -1.
</event>
<event>
 7    1  0.9930326E-013  0.5052886E+02  0.7816164E-02  0.1300439E+00
        -11   -1    0    0    0    0  0.00000000000E+00  0.00000000000E+00  0.45593999997E+02  0.45594000000E+02  0.51100000000E-03 0.  1.
         11   -1    0    0    0    0 -0.00000000000E+00 -0.00000000000E+00 -0.45593999997E+02  0.45594000000E+02  0.51100000000E-03 0. -1.
    9900012    2    1    2    0    0 -0.15954553371E+02  0.54009054226E+01 -0.37006051333E+02  0.50528863414E+02  0.30000010834E+02 0.  0.
        -12    1    1    2    0    0  0.15954553371E+02 -0.54009054226E+01  0.37006051333E+02  0.40659136586E+02  0.00000000000E+00 0.  1.
         11    1    3    3    0    0 -0.48541480889E+01  0.14615988034E+02 -0.17268422980E+02  0.23138459161E+02  0.51100000000E-03 0. -1.
        -11    1    3    3    0    0 -0.13108389961E+02 -0.93560083919E+01 -0.14102911471E+02  0.21406935620E+02  0.51100000000E-03 0.  1.
         12    1    3    3    0    0  0.20079846786E+01  0.14092578013E+00 -0.56347168817E+01  0.59834686330E+01  0.00000000000E+00 0. -1.
</event>
<event>
 7    1  0.9930326E-013  0.5052886E+02  0.7816164E-02  0.1300439E+00
        -11   -1    0    0    0    0  0.00000000000E+00  0.00000000000E+00  0.45593999997E+02  0.45594000000E+02  0.51100000000E-03 0.  1.
         11   -1    0    0    0    0 -0.00000000000E+00 -0.00000000000E+00 -0.45593999997E+02  0.45594000000E+02  0.51100000000E-03 0. -1.
    9900012    2    1    2    0    0 -0.86965875523E+01 -0.35841939370E+02 -0.17114036148E+02  0.50528862206E+02  0.30000007160E+02 0.  0.
        -12    1    1    2    0    0  0.86965875523E+01  0.35841939370E+02  0.17114036148E+02  0.40659137794E+02  0.00000000000E+00 0.  1.
         11    1    3    3    0    0 -0.17822378627E+02 -0.19652648047E+02 -0.78132114023E+01  0.27657006849E+02  0.51100000000E-03 0. -1.
        -11    1    3    3    0    0  0.29436225274E+01 -0.80494321860E+01  0.66456887454E+00  0.85965065086E+01  0.51100000000E-03 0.  1.
         12    1    3    3    0    0  0.61821685469E+01 -0.81398591369E+01 -0.99653936206E+01  0.14275348848E+02  0.00000000000E+00 0. -1.
</event>
<event>
 7    1  0.9930326E-013  0.5052886E+02  0.7816164E-02  0.1300439E+00
        -11   -1    0    0    0    0  0.00000000000E+00  0.00000000000E+00  0.45593999997E+02  0.45594000000E+02  0.51100000000E-03 0.  1.
         11   -1    0    0    0    0 -0.00000000000E+00 -0.00000000000E+00 -0.45593999997E+02  0.45594000000E+02  0.51100000000E-03 0. -1.
    9900012    2    1    2    0    0 -0.32484499503E+01 -0.53323060578E+01 -0.40176860634E+02  0.50528855329E+02  0.29999986258E+02 0.  0.
        -12    1    1    2    0    0  0.32484499503E+01  0.53323060578E+01  0.40176860634E+02  0.40659144671E+02  0.00000000000E+00 0.  1.
         11    1    3    3    0    0 -0.74497648790E+01  0.73564994342E+01 -0.28288102871E+02  0.30163452140E+02  0.51100000000E-03 0. -1.
        -11    1    3    3    0    0 -0.32395203131E+00  0.14742935129E+01 -0.36224081965E+00  0.15523224386E+01  0.51100000000E-03 0.  1.
         12    1    3    3    0    0  0.45252669600E+01 -0.14163099005E+02 -0.11526516943E+02  0.18813080751E+02  0.00000000000E+00 0. -1.
</event>
<event>
 7    1  0.9930326E-013  0.5052886E+02  0.7816164E-02  0.1300439E+00
        -11   -1    0    0    0    0  0.00000000000E+00  0.00000000000E+00  0.45593999997E+02  0.45594000000E+02  0.51100000000E-03 0.  1.
         11   -1    0    0    0    0 -0.00000000000E+00 -0.00000000000E+00 -0.45593999997E+02  0.45594000000E+02  0.51100000000E-03 0. -1.
    9900012    2    1    2    0    0 -0.16849440097E+02 -0.24396562211E+02 -0.27822104543E+02  0.50528863505E+02  0.30000011111E+02 0.  0.
        -12    1    1    2    0    0  0.16849440097E+02  0.24396562211E+02  0.27822104543E+02  0.40659136495E+02  0.00000000000E+00 0.  1.
         11    1    3    3    0    0 -0.11758823474E+02 -0.85428325087E+00 -0.22040191275E+02  0.24995394797E+02  0.51100000000E-03 0. -1.
        -11    1    3    3    0    0 -0.27625146136E-01 -0.11770269440E+02 -0.46975007692E+01  0.12673062755E+02  0.51100000000E-03 0.  1.
         12    1    3    3    0    0 -0.50629914770E+01 -0.11772009520E+02 -0.10844124991E+01  0.12860405954E+02  0.00000000000E+00 0. -1.
</event>
<event>
 7    1  0.9930326E-013  0.5052886E+02  0.7816164E-02  0.1300439E+00
        -11   -1    0    0    0    0  0.00000000000E+00  0.00000000000E+00  0.45593999997E+02  0.45594000000E+02  0.51100000000E-03 0. -1.
         11   -1    0    0    0    0 -0.00000000000E+00 -0.00000000000E+00 -0.45593999997E+02  0.45594000000E+02  0.51100000000E-03 0.  1.
    9900012    2    1    2    0    0 -0.24793897866E+02  0.28229817807E+02  0.15540452689E+02  0.50528860135E+02  0.30000000867E+02 0.  0.
        -12    1    1    2    0    0  0.24793897866E+02 -0.28229817807E+02 -0.15540452689E+02  0.40659139865E+02  0.00000000000E+00 0.  1.
         11    1    3    3    0    0 -0.27598051411E+00  0.14318396581E+02  0.11838681133E+02  0.18580823908E+02  0.51100000000E-03 0. -1.
        -11    1    3    3    0    0 -0.14107153249E+02  0.90564523471E+00 -0.21334810806E+01  0.14296283009E+02  0.51100000000E-03 0.  1.
         12    1    3    3    0    0 -0.10410764102E+02  0.13005775991E+02  0.58352526371E+01  0.17651753218E+02  0.00000000000E+00 0. -1.
</event>
<event>
 7    1  0.9930326E-013  0.5052886E+02  0.7816164E-02  0.1300439E+00
        -11   -1    0    0    0    0  0.00000000000E+00  0.00000000000E+00  0.45593999997E+02  0.45594000000E+02  0.51100000000E-03 0. -1.
         11   -1    0    0    0    0 -0.00000000000E+00 -0.00000000000E+00 -0.45593999997E+02  0.45594000000E+02  0.51100000000E-03 0.  1.
    9900012    2    1    2    0    0 -0.37795578355E+02  0.12133944463E+02 -0.87992864116E+01  0.50528858435E+02  0.29999995699E+02 0.  0.
        -12    1    1    2    0    0  0.37795578355E+02 -0.12133944463E+02  0.87992864116E+01  0.40659141565E+02  0.00000000000E+00 0.  1.
         11    1    3    3    0    0 -0.19121516873E+02  0.10754989598E+02 -0.27191216767E+01  0.22106465835E+02  0.51100000000E-03 0. -1.
        -11    1    3    3    0    0  0.31134171057E+01  0.16542705697E+01  0.31792396977E+01  0.47473721687E+01  0.51100000000E-03 0.  1.
        -12    1    3    3    0    0 -0.21787478588E+02 -0.27531570415E+00 -0.92594044326E+01  0.23675020431E+02  0.00000000000E+00 0.  1.
</event>
<event>
 7    1  0.9930326E-013  0.5052886E+02  0.7816164E-02  0.1300439E+00
        -11   -1    0    0    0    0  0.00000000000E+00  0.00000000000E+00  0.45593999997E+02  0.45594000000E+02  0.51100000000E-03 0.  1.
         11   -1    0    0    0    0 -0.00000000000E+00 -0.00000000000E+00 -0.45593999997E+02  0.45594000000E+02  0.51100000000E-03 0. -1.
    9900012    2    1    2    0    0 -0.83309433317E+01 -0.36353737671E+02 -0.16191573786E+02  0.50528856857E+02  0.29999990903E+02 0.  0.
        -12    1    1    2    0    0  0.83309433317E+01  0.36353737671E+02  0.16191573786E+02  0.40659143143E+02  0.00000000000E+00 0.  1.
         11    1    3    3    0    0 -0.63025931623E+01 -0.95061645778E+00  0.45730449529E+01  0.78446856293E+01  0.51100000000E-03 0. -1.
        -11    1    3    3    0    0  0.37173538049E+01 -0.23147583204E+02 -0.15778989289E+02  0.28259614837E+02  0.51100000000E-03 0.  1.
         12    1    3    3    0    0 -0.57457039744E+01 -0.12255538010E+02 -0.49856294499E+01  0.14424556391E+02  0.00000000000E+00 0. -1.
</event>
<event>
 7    1  0.9930326E-013  0.5052885E+02  0.7816164E-02  0.1300439E+00
        -11   -1    0    0    0    0  0.00000000000E+00  0.00000000000E+00  0.45593999997E+02  0.45594000000E+02  0.51100000000E-03 0.  1.
         11   -1    0    0    0    0 -0.00000000000E+00 -0.00000000000E+00 -0.45593999997E+02  0.45594000000E+02  0.51100000000E-03 0. -1.
    9900012    2    1    2    0    0  0.13844845985E+02  0.39950673333E+01 -0.38020073545E+02  0.50528852005E+02  0.29999976154E+02 0.  0.
        -12    1    1    2    0    0 -0.13844845985E+02 -0.39950673333E+01  0.38020073545E+02  0.40659147995E+02  0.00000000000E+00 0.  1.
         11    1    3    3    0    0 -0.43772649062E+01  0.65983057227E+01 -0.21543670558E+01  0.82060577710E+01  0.51100000000E-03 0.  1.
        -11    1    3    3    0    0  0.42471650073E+01 -0.20915737328E+01 -0.22450479858E+02  0.22944217951E+02  0.51100000000E-03 0. -1.
         12    1    3    3    0    0  0.13974945884E+02 -0.51166465659E+00 -0.13415226631E+02  0.19378576283E+02  0.00000000000E+00 0. -1.
</event>
<event>
 7    1  0.1372308E-012  0.5052888E+02  0.7816164E-02  0.1300439E+00
        -11   -1    0    0    0    0  0.00000000000E+00  0.00000000000E+00  0.45593999997E+02  0.45594000000E+02  0.51100000000E-03 0. -1.
         11   -1    0    0    0    0 -0.00000000000E+00 -0.00000000000E+00 -0.45593999997E+02  0.45594000000E+02  0.51100000000E-03 0.  1.
    9900012    2    1    2    0    0 -0.27707681477E+02  0.29756472867E+02  0.29709343768E-01  0.50528878354E+02  0.30000056246E+02 0.  0.
        -12    1    1    2    0    0  0.27707681477E+02 -0.29756472867E+02 -0.29709343768E-01  0.40659121646E+02  0.00000000000E+00 0.  1.
         11    1    3    3    0    0 -0.18987102738E+02  0.15001134375E+02  0.82867329853E+00  0.24212203589E+02  0.51100000000E-03 0. -1.
        -11    1    3    3    0    0 -0.53783221922E+00  0.40642325101E+00  0.77074719375E+01  0.77368964891E+01  0.51100000000E-03 0.  1.
        -12    1    3    3    0    0 -0.81827465199E+01  0.14348915241E+02 -0.85064358922E+01  0.18579778277E+02  0.00000000000E+00 0.  1.
</event>
<event>
 7    1  0.9930326E-013  0.5052886E+02  0.7816164E-02  0.1300439E+00
        -11   -1    0    0    0    0  0.00000000000E+00  0.00000000000E+00  0.45593999997E+02  0.45594000000E+02  0.51100000000E-03 0.  1.
         11   -1    0    0    0    0 -0.00000000000E+00 -0.00000000000E+00 -0.45593999997E+02  0.45594000000E+02  0.51100000000E-03 0. -1.
    9900012    2    1    2    0    0 -0.94741917728E+01  0.63701053024E+01 -0.39023418094E+02  0.50528859440E+02  0.29999998755E+02 0.  0.
        -12    1    1    2    0    0  0.94741917728E+01 -0.63701053024E+01  0.39023418094E+02  0.40659140560E+02  0.00000000000E+00 0.  1.
         11    1    3    3    0    0 -0.65069447713E+01 -0.16922892705E+01 -0.34648344461E+02  0.35294644741E+02  0.51100000000E-03 0. -1.
        -11    1    3    3    0    0 -0.73264451973E+01  0.30851590950E+01 -0.28450945935E+01  0.84433150704E+01  0.51100000000E-03 0.  1.
         12    1    3    3    0    0  0.43591981958E+01  0.49772354779E+01 -0.15299790392E+01  0.67908996291E+01  0.00000000000E+00 0. -1.
</event>
<event>
 7    1  0.9930326E-013  0.5052885E+02  0.7816164E-02  0.1300439E+00
        -11   -1    0    0    0    0  0.00000000000E+00  0.00000000000E+00  0.45593999997E+02  0.45594000000E+02  0.51100000000E-03 0.  1.
         11   -1    0    0    0    0 -0.00000000000E+00 -0.00000000000E+00 -0.45593999997E+02  0.45594000000E+02  0.51100000000E-03 0. -1.
    9900012    2    1    2    0    0  0.24148151656E+02  0.37008555213E+00 -0.32709267761E+02  0.50528851102E+02  0.29999973408E+02 0.  0.
        -12    1    1    2    0    0 -0.24148151656E+02 -0.37008555213E+00  0.32709267761E+02  0.40659148898E+02  0.00000000000E+00 0.  1.
         11    1    3    3    0    0  0.12980866593E+02 -0.11447718836E+02 -0.22830105551E+02  0.28649029369E+02  0.51100000000E-03 0. -1.
        -11    1    3    3    0    0  0.13205842950E+02  0.89336673973E+01 -0.74877208390E+01  0.17614501549E+02  0.51100000000E-03 0.  1.
        -12    1    3    3    0    0 -0.20385578871E+01  0.28841369909E+01 -0.23914413704E+01  0.42653201837E+01  0.00000000000E+00 0.  1.
</event>
<event>
 7    1  0.9930326E-013  0.5052886E+02  0.7816164E-02  0.1300439E+00
        -11   -1    0    0    0    0  0.00000000000E+00  0.00000000000E+00  0.45593999997E+02  0.45594000000E+02  0.51100000000E-03 0.  1.
         11   -1    0    0    0    0 -0.00000000000E+00 -0.00000000000E+00 -0.45593999997E+02  0.45594000000E+02  0.51100000000E-03 0. -1.
    9900012    2    1    2    0    0 -0.13113939981E+02  0.27581535974E+02 -0.26841184313E+02  0.50528859283E+02  0.29999998277E+02 0.  0.
        -12    1    1    2    0    0  0.13113939981E+02 -0.27581535974E+02  0.26841184313E+02  0.40659140717E+02  0.00000000000E+00 0.  1.
         11    1    3    3    0    0  0.71985456944E+00 -0.29504673261E+01  0.39698595666E+01  0.49983230471E+01  0.51100000000E-03 0.  1.
        -11    1    3    3    0    0 -0.11292409998E+02  0.24654140167E+02 -0.24802182206E+02  0.36749059762E+02  0.51100000000E-03 0. -1.
        -12    1    3    3    0    0 -0.25413845525E+01  0.58778631329E+01 -0.60088616738E+01  0.87814764742E+01  0.00000000000E+00 0.  1.
</event>
<event>
 7    1  0.9930326E-013  0.5052886E+02  0.7816164E-02  0.1300439E+00
        -11   -1    0    0    0    0  0.00000000000E+00  0.00000000000E+00  0.45593999997E+02  0.45594000000E+02  0.51100000000E-03 0. -1.
         11   -1    0    0    0    0 -0.00000000000E+00 -0.00000000000E+00 -0.45593999997E+02  0.45594000000E+02  0.51100000000E-03 0.  1.
    9900012    2    1    2    0    0 -0.14016900986E+01 -0.35939192016E+02  0.18962472962E+02  0.50528860329E+02  0.30000001457E+02 0.  0.
        -12    1    1    2    0    0  0.14016900986E+01  0.35939192016E+02 -0.18962472962E+02  0.40659139671E+02  0.00000000000E+00 0.  1.
         11    1    3    3    0    0  0.54757497072E+01  0.17263014562E+01  0.19423005646E+01  0.60610628868E+01  0.51100000000E-03 0. -1.
        -11    1    3    3    0    0 -0.99166437507E+01 -0.14011810998E+02  0.83852432095E+01  0.19104527596E+02  0.51100000000E-03 0.  1.
        -12    1    3    3    0    0  0.30392039449E+01 -0.23653682474E+02  0.86349291883E+01  0.25363269846E+02  0.00000000000E+00 0.  1.
</event>
<event>
 7    1  0.9930326E-013  0.5052886E+02  0.7816164E-02  0.1300439E+00
        -11   -1    0    0    0    0  0.00000000000E+00  0.00000000000E+00  0.45593999997E+02  0.45594000000E+02  0.51100000000E-03 0.  1.
         11   -1    0    0    0    0 -0.00000000000E+00 -0.00000000000E+00 -0.45593999997E+02  0.45594000000E+02  0.51100000000E-03 0. -1.
    9900012    2    1    2    0    0 -0.36068740434E+02  0.17856802386E+02 -0.57746343457E+01  0.50528857981E+02  0.29999994319E+02 0.  0.
        -12    1    1    2    0    0  0.36068740434E+02 -0.17856802386E+02  0.57746343457E+01  0.40659142019E+02  0.00000000000E+00 0.  1.
         11    1    3    3    0    0 -0.20238121026E+02  0.94631130233E+01 -0.15252241107E+02  0.27051116609E+02  0.51100000000E-03 0. -1.
        -11    1    3    3    0    0 -0.87395774714E+01 -0.12995716311E+01  0.68590388991E+01  0.11185504713E+02  0.51100000000E-03 0.  1.
        -12    1    3    3    0    0 -0.70910419364E+01  0.96932609937E+01  0.26185678619E+01  0.12292236659E+02  0.00000000000E+00 0.  1.
</event>
<event>
 7    1  0.9930326E-013  0.5052886E+02  0.7816164E-02  0.1300439E+00
        -11   -1    0    0    0    0  0.00000000000E+00  0.00000000000E+00  0.45593999997E+02  0.45594000000E+02  0.51100000000E-03 0.  1.
         11   -1    0    0    0    0 -0.00000000000E+00 -0.00000000000E+00 -0.45593999997E+02  0.45594000000E+02  0.51100000000E-03 0. -1.
    9900012    2    1    2    0    0  0.41061654371E+01  0.37985040821E+02 -0.13908327710E+02  0.50528862030E+02  0.30000006627E+02 0.  0.
        -12    1    1    2    0    0 -0.41061654371E+01 -0.37985040821E+02  0.13908327710E+02  0.40659137970E+02  0.00000000000E+00 0.  1.
         11    1    3    3    0    0 -0.20684125459E+01  0.17715792473E+02 -0.60287389891E+01  0.18827462056E+02  0.51100000000E-03 0. -1.
        -11    1    3    3    0    0  0.78568682172E+01  0.84938434485E+01  0.63151260929E+01  0.13181675635E+02  0.51100000000E-03 0.  1.
        -12    1    3    3    0    0 -0.16822902342E+01  0.11775404900E+02 -0.14194714814E+02  0.18519724340E+02  0.00000000000E+00 0.  1.
</event>
<event>
 7    1  0.9930326E-013  0.5052885E+02  0.7816164E-02  0.1300439E+00
        -11   -1    0    0    0    0  0.00000000000E+00  0.00000000000E+00  0.45593999997E+02  0.45594000000E+02  0.51100000000E-03 0.  1.
         11   -1    0    0    0    0 -0.00000000000E+00 -0.00000000000E+00 -0.45593999997E+02  0.45594000000E+02  0.51100000000E-03 0. -1.
    9900012    2    1    2    0    0  0.33363254590E+02  0.31582808366E+01  0.23023576803E+02  0.50528848712E+02  0.29999966145E+02 0.  0.
        -12    1    1    2    0    0 -0.33363254590E+02 -0.31582808366E+01 -0.23023576803E+02  0.40659151288E+02  0.00000000000E+00 0.  1.
         11    1    3    3    0    0  0.14833855838E+01  0.36762896594E+00  0.31791924985E-01  0.15285924357E+01  0.51100000000E-03 0. -1.
        -11    1    3    3    0    0  0.35645972806E+02 -0.22279999849E+01  0.23422664563E+02  0.42710895293E+02  0.51100000000E-03 0.  1.
        -12    1    3    3    0    0 -0.37661038000E+01  0.50186518555E+01 -0.43087968457E+00  0.62893609836E+01  0.00000000000E+00 0.  1.
</event>
<event>
 7    1  0.9930326E-013  0.5052886E+02  0.7816164E-02  0.1300439E+00
        -11   -1    0    0    0    0  0.00000000000E+00  0.00000000000E+00  0.45593999997E+02  0.45594000000E+02  0.51100000000E-03 0. -1.
         11   -1    0    0    0    0 -0.00000000000E+00 -0.00000000000E+00 -0.45593999997E+02  0.45594000000E+02  0.51100000000E-03 0.  1.
    9900012    2    1    2    0    0 -0.11902550012E+02 -0.35416945001E+02  0.16035430234E+02  0.50528859420E+02  0.29999998692E+02 0.  0.
        -12    1    1    2    0    0  0.11902550012E+02  0.35416945001E+02 -0.16035430234E+02  0.40659140580E+02  0.00000000000E+00 0.  1.
         11    1    3    3    0    0 -0.49041177488E+01 -0.31111741247E+01  0.11582782056E+02  0.12957261121E+02  0.51100000000E-03 0. -1.
        -11    1    3    3    0    0  0.40765606490E+01 -0.20124440301E+02  0.48707958187E+01  0.21102987853E+02  0.51100000000E-03 0.  1.
        -12    1    3    3    0    0 -0.11074992912E+02 -0.12181330575E+02 -0.41814764096E+00  0.16468610446E+02  0.00000000000E+00 0.  1.
</event>
<event>
 7    1  0.9930326E-013  0.5052886E+02  0.7816164E-02  0.1300439E+00
        -11   -1    0    0    0    0  0.00000000000E+00  0.00000000000E+00  0.45593999997E+02  0.45594000000E+02  0.51100000000E-03 0. -1.
         11   -1    0    0    0    0 -0.00000000000E+00 -0.00000000000E+00 -0.45593999997E+02  0.45594000000E+02  0.51100000000E-03 0.  1.
    9900012    2    1    2    0    0 -0.23484655155E+01 -0.37559720405E+01  0.40417110872E+02  0.50528862436E+02  0.30000007860E+02 0.  0.
        -12    1    1    2    0    0  0.23484655155E+01  0.37559720405E+01 -0.40417110872E+02  0.40659137564E+02  0.00000000000E+00 0.  1.
         11    1    3    3    0    0 -0.63235259340E+01  0.22706592213E+01  0.19800557737E+01  0.70045338650E+01  0.51100000000E-03 0. -1.
        -11    1    3    3    0    0  0.25242940578E+01 -0.62421650897E+01  0.40465117441E+02  0.41021487239E+02  0.51100000000E-03 0.  1.
        -12    1    3    3    0    0  0.14507663607E+01  0.21553382785E+00 -0.20280623432E+01  0.25028413318E+01  0.00000000000E+00 0.  1.
</event>
<event>
 7    1  0.9930326E-013  0.5052886E+02  0.7816164E-02  0.1300439E+00
        -11   -1    0    0    0    0  0.00000000000E+00  0.00000000000E+00  0.45593999997E+02  0.45594000000E+02  0.51100000000E-03 0.  1.
         11   -1    0    0    0    0 -0.00000000000E+00 -0.00000000000E+00 -0.45593999997E+02  0.45594000000E+02  0.51100000000E-03 0. -1.
    9900012    2    1    2    0    0  0.10924283395E+02 -0.37747652457E+02 -0.10437453524E+02  0.50528859948E+02  0.30000000298E+02 0.  0.
        -12    1    1    2    0    0 -0.10924283395E+02  0.37747652457E+02  0.10437453524E+02  0.40659140052E+02  0.00000000000E+00 0.  1.
         11    1    3    3    0    0  0.13254621051E+01  0.44149542033E+01 -0.58048792838E+00  0.46460345355E+01  0.51100000000E-03 0. -1.
        -11    1    3    3    0    0  0.18323537187E+00 -0.84419654750E+01  0.24171563079E+01  0.87831088551E+01  0.51100000000E-03 0.  1.
         12    1    3    3    0    0  0.94155859176E+01 -0.33720641185E+02 -0.12274121903E+02  0.37099716557E+02  0.00000000000E+00 0. -1.
</event>
<event>
 7    1  0.9930326E-013  0.5052887E+02  0.7816164E-02  0.1300439E+00
        -11   -1    0    0    0    0  0.00000000000E+00  0.00000000000E+00  0.45593999997E+02  0.45594000000E+02  0.51100000000E-03 0.  1.
         11   -1    0    0    0    0 -0.00000000000E+00 -0.00000000000E+00 -0.45593999997E+02  0.45594000000E+02  0.51100000000E-03 0. -1.
    9900012    2    1    2    0    0  0.29553848882E+02 -0.26101632498E+02 -0.99216742858E+01  0.50528870356E+02  0.30000031933E+02 0.  0.
        -12    1    1    2    0    0 -0.29553848882E+02  0.26101632498E+02  0.99216742858E+01  0.40659129644E+02  0.00000000000E+00 0.  1.
         11    1    3    3    0    0  0.21613808867E+02 -0.85228057320E+01  0.38266922095E+01  0.23546518316E+02  0.51100000000E-03 0. -1.
        -11    1    3    3    0    0  0.12410130461E+01 -0.52232936229E+01 -0.11576458207E+02  0.12760771706E+02  0.51100000000E-03 0.  1.
         12    1    3    3    0    0  0.66990269693E+01 -0.12355533143E+02 -0.21719082881E+01  0.14221580334E+02  0.00000000000E+00 0. -1.
</event>
<event>
 7    1  0.9930326E-013  0.5052886E+02  0.7816164E-02  0.1300439E+00
        -11   -1    0    0    0    0  0.00000000000E+00  0.00000000000E+00  0.45593999997E+02  0.45594000000E+02  0.51100000000E-03 0.  1.
         11   -1    0    0    0    0 -0.00000000000E+00 -0.00000000000E+00 -0.45593999997E+02  0.45594000000E+02  0.51100000000E-03 0. -1.
    9900012    2    1    2    0    0  0.19366578797E+02  0.17903239916E+02 -0.30944714877E+02  0.50528858929E+02  0.29999997201E+02 0.  0.
        -12    1    1    2    0    0 -0.19366578797E+02 -0.17903239916E+02  0.30944714877E+02  0.40659141071E+02  0.00000000000E+00 0.  1.
         11    1    3    3    0    0  0.15238444306E+02 -0.33844755208E+01 -0.20522054134E+02  0.25784095205E+02  0.51100000000E-03 0. -1.
        -11    1    3    3    0    0 -0.45113444236E+00  0.57250932155E+01 -0.50743671704E+01  0.76635120573E+01  0.51100000000E-03 0.  1.
         12    1    3    3    0    0  0.45792689333E+01  0.15562622221E+02 -0.53482935729E+01  0.17081251667E+02  0.00000000000E+00 0. -1.
</event>
<event>
 7    1  0.9930326E-013  0.5052885E+02  0.7816164E-02  0.1300439E+00
        -11   -1    0    0    0    0  0.00000000000E+00  0.00000000000E+00  0.45593999997E+02  0.45594000000E+02  0.51100000000E-03 0.  1.
         11   -1    0    0    0    0 -0.00000000000E+00 -0.00000000000E+00 -0.45593999997E+02  0.45594000000E+02  0.51100000000E-03 0. -1.
    9900012    2    1    2    0    0 -0.31707817663E+02  0.22660521802E+02 -0.11587991440E+02  0.50528849801E+02  0.29999969455E+02 0.  0.
        -12    1    1    2    0    0  0.31707817663E+02 -0.22660521802E+02  0.11587991440E+02  0.40659150199E+02  0.00000000000E+00 0.  1.
         11    1    3    3    0    0 -0.25117475725E+02  0.17501470894E+02 -0.10127117906E+02  0.32245117267E+02  0.51100000000E-03 0. -1.
        -11    1    3    3    0    0 -0.17617390721E+01 -0.58075997911E+01  0.69546385372E+00  0.61086504340E+01  0.51100000000E-03 0.  1.
        -12    1    3    3    0    0 -0.48286028660E+01  0.10966650700E+02 -0.21563373877E+01  0.12175082100E+02  0.00000000000E+00 0.  1.
</event>
<event>
 7    1  0.9930326E-013  0.5052888E+02  0.7816164E-02  0.1300439E+00
        -11   -1    0    0    0    0  0.00000000000E+00  0.00000000000E+00  0.45593999997E+02  0.45594000000E+02  0.51100000000E-03 0.  1.
         11   -1    0    0    0    0 -0.00000000000E+00 -0.00000000000E+00 -0.45593999997E+02  0.45594000000E+02  0.51100000000E-03 0. -1.
    9900012    2    1    2    0    0  0.29820408723E+02  0.21829166092E+02 -0.16952730738E+02  0.50528876200E+02  0.30000049698E+02 0.  0.
        -12    1    1    2    0    0 -0.29820408723E+02 -0.21829166092E+02  0.16952730738E+02  0.40659123800E+02  0.00000000000E+00 0.  1.
         11    1    3    3    0    0  0.23777020589E+02  0.18399722123E+02 -0.81092942361E+01  0.31139318162E+02  0.51100000000E-03 0. -1.
        -11    1    3    3    0    0  0.13122710584E+01 -0.62858561437E+01 -0.38337021875E+01  0.74787241902E+01  0.51100000000E-03 0.  1.
        -12    1    3    3    0    0  0.47311170756E+01  0.97153001129E+01 -0.50097343139E+01  0.11910833848E+02  0.00000000000E+00 0.  1.
</event>
<event>
 7    1  0.9930326E-013  0.5052886E+02  0.7816164E-02  0.1300439E+00
        -11   -1    0    0    0    0  0.00000000000E+00  0.00000000000E+00  0.45593999997E+02  0.45594000000E+02  0.51100000000E-03 0.  1.
         11   -1    0    0    0    0 -0.00000000000E+00 -0.00000000000E+00 -0.45593999997E+02  0.45594000000E+02  0.51100000000E-03 0. -1.
    9900012    2    1    2    0    0  0.26294646545E+02 -0.13950870925E+02 -0.27697122836E+02  0.50528857733E+02  0.29999993566E+02 0.  0.
        -12    1    1    2    0    0 -0.26294646545E+02  0.13950870925E+02  0.27697122836E+02  0.40659142267E+02  0.00000000000E+00 0.  1.
         11    1    3    3    0    0  0.15054753414E+01 -0.19657552140E+01 -0.29111574031E+01  0.38217126071E+01  0.51100000000E-03 0. -1.
        -11    1    3    3    0    0 -0.56950199793E+01 -0.54247761520E+01 -0.83020388239E+01  0.11436139985E+02  0.51100000000E-03 0.  1.
        -12    1    3    3    0    0  0.30484191183E+02 -0.65603395586E+01 -0.16483926609E+02  0.35271005141E+02  0.00000000000E+00 0.  1.
</event>
<event>
 7    1  0.9930326E-013  0.5052882E+02  0.7816164E-02  0.1300439E+00
        -11   -1    0    0    0    0  0.00000000000E+00  0.00000000000E+00  0.45593999997E+02  0.45594000000E+02  0.51100000000E-03 0.  1.
         11   -1    0    0    0    0 -0.00000000000E+00 -0.00000000000E+00 -0.45593999997E+02  0.45594000000E+02  0.51100000000E-03 0. -1.
    9900012    2    1    2    0    0 -0.25343829963E+02 -0.20447505609E+02  0.24346640761E+02  0.50528817530E+02  0.29999871363E+02 0.  0.
        -12    1    1    2    0    0  0.25343829963E+02  0.20447505609E+02 -0.24346640761E+02  0.40659182470E+02  0.00000000000E+00 0.  1.
         11    1    3    3    0    0 -0.11983420123E+02  0.27983840324E+01  0.58705236642E+01  0.13634381519E+02  0.51100000000E-03 0. -1.
        -11    1    3    3    0    0 -0.16550389661E+02 -0.22740265684E+02  0.18500439832E+02  0.33664541517E+02  0.51100000000E-03 0.  1.
        -12    1    3    3    0    0  0.31899798213E+01 -0.50562395725E+00 -0.24322735197E-01  0.32298944939E+01  0.00000000000E+00 0.  1.
</event>
<event>
 7    1  0.9930326E-013  0.5052886E+02  0.7816164E-02  0.1300439E+00
        -11   -1    0    0    0    0  0.00000000000E+00  0.00000000000E+00  0.45593999997E+02  0.45594000000E+02  0.51100000000E-03 0.  1.
         11   -1    0    0    0    0 -0.00000000000E+00 -0.00000000000E+00 -0.45593999997E+02  0.45594000000E+02  0.51100000000E-03 0. -1.
    9900012    2    1    2    0    0  0.18537734972E+02 -0.32926418810E+01 -0.36037158592E+02  0.50528857020E+02  0.29999991398E+02 0.  0.
        -12    1    1    2    0    0 -0.18537734972E+02  0.32926418810E+01  0.36037158592E+02  0.40659142980E+02  0.00000000000E+00 0.  1.
         11    1    3    3    0    0  0.21379712655E+02 -0.44171430885E+01 -0.38267857746E+02  0.44057147014E+02  0.51100000000E-03 0. -1.
        -11    1    3    3    0    0 -0.85905000075E+00 -0.15682594850E+01  0.25477447497E+01  0.31126208068E+01  0.51100000000E-03 0.  1.
         12    1    3    3    0    0 -0.19829276817E+01  0.26927606925E+01 -0.31704559594E+00  0.33590891991E+01  0.00000000000E+00 0. -1.
</event>
<event>
 7    1  0.9930326E-013  0.5052885E+02  0.7816164E-02  0.1300439E+00
        -11   -1    0    0    0    0  0.00000000000E+00  0.00000000000E+00  0.45593999997E+02  0.45594000000E+02  0.51100000000E-03 0.  1.
         11   -1    0    0    0    0 -0.00000000000E+00 -0.00000000000E+00 -0.45593999997E+02  0.45594000000E+02  0.51100000000E-03 0. -1.
    9900012    2    1    2    0    0  0.33541696924E+02  0.21430688501E+02 -0.82973628740E+01  0.50528854992E+02  0.29999985233E+02 0.  0.
        -12    1    1    2    0    0 -0.33541696924E+02 -0.21430688501E+02  0.82973628740E+01  0.40659145008E+02  0.00000000000E+00 0.  1.
         11    1    3    3    0    0  0.16578888110E+02  0.18600867435E+02 -0.45640912762E+01  0.25331457315E+02  0.51100000000E-03 0. -1.
        -11    1    3    3    0    0  0.45330317330E+01 -0.29438939862E+01  0.62340336583E+01  0.82509432436E+01  0.51100000000E-03 0.  1.
        -12    1    3    3    0    0  0.12429777081E+02  0.57737150522E+01 -0.99673052562E+01  0.16946454433E+02  0.00000000000E+00 0.  1.
</event>
<event>
 7    1  0.9930326E-013  0.5052888E+02  0.7816164E-02  0.1300439E+00
        -11   -1    0    0    0    0  0.00000000000E+00  0.00000000000E+00  0.45593999997E+02  0.45594000000E+02  0.51100000000E-03 0. -1.
         11   -1    0    0    0    0 -0.00000000000E+00 -0.00000000000E+00 -0.45593999997E+02  0.45594000000E+02  0.51100000000E-03 0.  1.
    9900012    2    1    2    0    0  0.31992127132E+01  0.13358250819E+02  0.38268605969E+02  0.50528880116E+02  0.30000061602E+02 0.  0.
        -12    1    1    2    0    0 -0.31992127132E+01 -0.13358250819E+02 -0.38268605969E+02  0.40659119884E+02  0.00000000000E+00 0.  1.
         11    1    3    3    0    0  0.27116237214E+00  0.17560055064E+02  0.25172210991E+02  0.30693146944E+02  0.51100000000E-03 0. -1.
        -11    1    3    3    0    0 -0.33605594810E+01 -0.27405515044E+01 -0.89397120052E+00  0.44275464246E+01  0.51100000000E-03 0.  1.
        -12    1    3    3    0    0  0.62886098221E+01 -0.14612527406E+01  0.13990366178E+02  0.15408186748E+02  0.00000000000E+00 0.  1.
</event>
<event>
 7    1  0.9930326E-013  0.5052886E+02  0.7816164E-02  0.1300439E+00
        -11   -1    0    0    0    0  0.00000000000E+00  0.00000000000E+00  0.45593999997E+02  0.45594000000E+02  0.51100000000E-03 0.  1.
         11   -1    0    0    0    0 -0.00000000000E+00 -0.00000000000E+00 -0.45593999997E+02  0.45594000000E+02  0.51100000000E-03 0. -1.
    9900012    2    1    2    0    0  0.26652703004E+02 -0.17479238098E+02 -0.25244316698E+02  0.50528857517E+02  0.29999992908E+02 0.  0.
        -12    1    1    2    0    0 -0.26652703004E+02  0.17479238098E+02  0.25244316698E+02  0.40659142483E+02  0.00000000000E+00 0.  1.
         11    1    3    3    0    0  0.14792594635E+02 -0.15838313902E+02 -0.27507458693E+02  0.35019042352E+02  0.51100000000E-03 0. -1.
        -11    1    3    3    0    0  0.13055039883E+02 -0.46607640995E+00  0.33830348091E+01  0.13494303181E+02  0.51100000000E-03 0.  1.
         12    1    3    3    0    0 -0.11949315131E+01 -0.11748477853E+01 -0.11198928148E+01  0.20155119837E+01  0.00000000000E+00 0. -1.
</event>
<event>
 7    1  0.9930326E-013  0.5052886E+02  0.7816164E-02  0.1300439E+00
        -11   -1    0    0    0    0  0.00000000000E+00  0.00000000000E+00  0.45593999997E+02  0.45594000000E+02  0.51100000000E-03 0.  1.
         11   -1    0    0    0    0 -0.00000000000E+00 -0.00000000000E+00 -0.45593999997E+02  0.45594000000E+02  0.51100000000E-03 0. -1.
    9900012    2    1    2    0    0  0.32564739797E+02 -0.22365077740E+02 -0.96180555888E+01  0.50528856211E+02  0.29999988939E+02 0.  0.
        -12    1    1    2    0    0 -0.32564739797E+02  0.22365077740E+02  0.96180555888E+01  0.40659143789E+02  0.00000000000E+00 0.  1.
         11    1    3    3    0    0  0.18060255965E+01  0.30944709257E+01 -0.89806266322E+01  0.96689779053E+01  0.51100000000E-03 0. -1.
        -11    1    3    3    0    0  0.12332373784E+02 -0.78307852201E+01  0.35087270709E+01  0.15023974382E+02  0.51100000000E-03 0.  1.
         12    1    3    3    0    0  0.18426340416E+02 -0.17628763445E+02 -0.41461560274E+01  0.25835903924E+02  0.00000000000E+00 0. -1.
</event>
<event>
 7    1  0.9930326E-013  0.5052886E+02  0.7816164E-02  0.1300439E+00
        -11   -1    0    0    0    0  0.00000000000E+00  0.00000000000E+00  0.45593999997E+02  0.45594000000E+02  0.51100000000E-03 0. -1.
         11   -1    0    0    0    0 -0.00000000000E+00 -0.00000000000E+00 -0.45593999997E+02  0.45594000000E+02  0.51100000000E-03 0.  1.
    9900012    2    1    2    0    0 -0.14842208946E+02  0.45619448620E+01  0.37577425724E+02  0.50528862879E+02  0.30000009208E+02 0.  0.
        -12    1    1    2    0    0  0.14842208946E+02 -0.45619448620E+01 -0.37577425724E+02  0.40659137121E+02  0.00000000000E+00 0.  1.
         11    1    3    3    0    0 -0.62918410660E+01 -0.10940495767E+02  0.99618464099E+01  0.16078560128E+02  0.51100000000E-03 0. -1.
        -11    1    3    3    0    0 -0.15779225043E+01  0.10544445572E+02  0.21289376475E+02  0.23809929080E+02  0.51100000000E-03 0.  1.
         12    1    3    3    0    0 -0.69724453754E+01  0.49579950568E+01  0.63262028399E+01  0.10640373671E+02  0.00000000000E+00 0. -1.
</event>
<event>
 7    1  0.9930326E-013  0.5052886E+02  0.7816164E-02  0.1300439E+00
        -11   -1    0    0    0    0  0.00000000000E+00  0.00000000000E+00  0.45593999997E+02  0.45594000000E+02  0.51100000000E-03 0.  1.
         11   -1    0    0    0    0 -0.00000000000E+00 -0.00000000000E+00 -0.45593999997E+02  0.45594000000E+02  0.51100000000E-03 0. -1.
    9900012    2    1    2    0    0 -0.96884653913E+01  0.27677465139E+02 -0.28164825560E+02  0.50528857892E+02  0.29999994048E+02 0.  0.
        -12    1    1    2    0    0  0.96884653913E+01 -0.27677465139E+02  0.28164825560E+02  0.40659142108E+02  0.00000000000E+00 0.  1.
         11    1    3    3    0    0 -0.12631588028E+02  0.25647312066E+02 -0.19809004099E+02  0.34781292040E+02  0.51100000000E-03 0. -1.
        -11    1    3    3    0    0  0.78283997163E+01  0.13070484558E+01 -0.30595320231E+01  0.85060539762E+01  0.51100000000E-03 0.  1.
         12    1    3    3    0    0 -0.48852770796E+01  0.72310461677E+00 -0.52962894377E+01  0.72415118753E+01  0.00000000000E+00 0. -1.
</event>
<event>
 7    1  0.9930326E-013  0.5052885E+02  0.7816164E-02  0.1300439E+00
        -11   -1    0    0    0    0  0.00000000000E+00  0.00000000000E+00  0.45593999997E+02  0.45594000000E+02  0.51100000000E-03 0.  1.
         11   -1    0    0    0    0 -0.00000000000E+00 -0.00000000000E+00 -0.45593999997E+02  0.45594000000E+02  0.51100000000E-03 0. -1.
    9900012    2    1    2    0    0 -0.73170085433E+01 -0.89419593566E+01 -0.38982937554E+02  0.50528847629E+02  0.29999962854E+02 0.  0.
        -12    1    1    2    0    0  0.73170085433E+01  0.89419593566E+01  0.38982937554E+02  0.40659152371E+02  0.00000000000E+00 0.  1.
         11    1    3    3    0    0 -0.99733021581E+00 -0.41152588529E+01 -0.41769766582E+02  0.41983847175E+02  0.51100000000E-03 0. -1.
        -11    1    3    3    0    0 -0.15131206302E+01 -0.10316835728E+01  0.12914613507E+01  0.22409323322E+01  0.51100000000E-03 0.  1.
         12    1    3    3    0    0 -0.48065576973E+01 -0.37950169308E+01  0.14953676777E+01  0.63040681226E+01  0.00000000000E+00 0. -1.
</event>
<event>
 7    1  0.9930326E-013  0.5052886E+02  0.7816164E-02  0.1300439E+00
        -11   -1    0    0    0    0  0.00000000000E+00  0.00000000000E+00  0.45593999997E+02  0.45594000000E+02  0.51100000000E-03 0.  1.
         11   -1    0    0    0    0 -0.00000000000E+00 -0.00000000000E+00 -0.45593999997E+02  0.45594000000E+02  0.51100000000E-03 0. -1.
    9900012    2    1    2    0    0  0.44117334868E+01  0.37930364321E+02 -0.13963869873E+02  0.50528860908E+02  0.30000003216E+02 0.  0.
        -12    1    1    2    0    0 -0.44117334868E+01 -0.37930364321E+02  0.13963869873E+02  0.40659139092E+02  0.00000000000E+00 0.  1.
         11    1    3    3    0    0  0.12854307025E+02  0.32436812378E+02 -0.45674528750E+01  0.35188657724E+02  0.51100000000E-03 0. -1.
        -11    1    3    3    0    0 -0.22172097347E+01  0.47478924666E+01 -0.67236252961E+01  0.85244143063E+01  0.51100000000E-03 0.  1.
         12    1    3    3    0    0 -0.62253638039E+01  0.74565947587E+00 -0.26727917020E+01  0.68157888778E+01  0.00000000000E+00 0. -1.
</event>
<event>
 7    1  0.9930326E-013  0.5052883E+02  0.7816164E-02  0.1300439E+00
        -11   -1    0    0    0    0  0.00000000000E+00  0.00000000000E+00  0.45593999997E+02  0.45594000000E+02  0.51100000000E-03 0.  1.
         11   -1    0    0    0    0 -0.00000000000E+00 -0.00000000000E+00 -0.45593999997E+02  0.45594000000E+02  0.51100000000E-03 0. -1.
    9900012    2    1    2    0    0  0.39883866759E+01 -0.36295876835E+02 -0.17884911821E+02  0.50528831608E+02  0.29999914157E+02 0.  0.
        -12    1    1    2    0    0 -0.39883866759E+01  0.36295876835E+02  0.17884911821E+02  0.40659168392E+02  0.00000000000E+00 0.  1.
         11    1    3    3    0    0  0.11241458807E+02 -0.30980444069E+02 -0.98954081859E+01  0.34410425953E+02  0.51100000000E-03 0. -1.
        -11    1    3    3    0    0 -0.34077682373E+01 -0.80855682970E+01 -0.71208468252E+01  0.11300254812E+02  0.51100000000E-03 0.  1.
         12    1    3    3    0    0 -0.38453038943E+01  0.27701355313E+01 -0.86865680941E+00  0.48181508438E+01  0.00000000000E+00 0. -1.
</event>
<event>
 7    1  0.9930326E-013  0.5052887E+02  0.7816164E-02  0.1300439E+00
        -11   -1    0    0    0    0  0.00000000000E+00  0.00000000000E+00  0.45593999997E+02  0.45594000000E+02  0.51100000000E-03 0. -1.
         11   -1    0    0    0    0 -0.00000000000E+00 -0.00000000000E+00 -0.45593999997E+02  0.45594000000E+02  0.51100000000E-03 0.  1.
    9900012    2    1    2    0    0  0.39731529562E+02  0.62814458116E+01  0.59256921363E+01  0.50528870274E+02  0.30000031684E+02 0.  0.
        -12    1    1    2    0    0 -0.39731529562E+02 -0.62814458116E+01 -0.59256921363E+01  0.40659129726E+02  0.00000000000E+00 0.  1.
         11    1    3    3    0    0 -0.59439753828E+00  0.82531627200E+01  0.30420709943E+01  0.88160194823E+01  0.51100000000E-03 0. -1.
        -11    1    3    3    0    0  0.13119739130E+02 -0.52966260517E+01  0.20072619734E+01  0.14290238040E+02  0.51100000000E-03 0.  1.
         12    1    3    3    0    0  0.27206187971E+02  0.33249091433E+01  0.87635916858E+00  0.27422612751E+02  0.00000000000E+00 0. -1.
</event>
<event>
 7    1  0.9930326E-013  0.5052886E+02  0.7816164E-02  0.1300439E+00
        -11   -1    0    0    0    0  0.00000000000E+00  0.00000000000E+00  0.45593999997E+02  0.45594000000E+02  0.51100000000E-03 0.  1.
         11   -1    0    0    0    0 -0.00000000000E+00 -0.00000000000E+00 -0.45593999997E+02  0.45594000000E+02  0.51100000000E-03 0. -1.
    9900012    2    1    2    0    0  0.61175780245E+01 -0.16005211729E+02 -0.36872404095E+02  0.50528858997E+02  0.29999997407E+02 0.  0.
        -12    1    1    2    0    0 -0.61175780245E+01  0.16005211729E+02  0.36872404095E+02  0.40659141003E+02  0.00000000000E+00 0.  1.
         11    1    3    3    0    0  0.32563507658E+01  0.66583235714E+00 -0.11033630585E+02  0.11523374384E+02  0.51100000000E-03 0. -1.
        -11    1    3    3    0    0  0.32310558886E+01 -0.21828991638E+02 -0.14123247239E+02  0.26199441042E+02  0.51100000000E-03 0.  1.
        -12    1    3    3    0    0 -0.36982862990E+00  0.51579475513E+01 -0.11715526270E+02  0.12806043571E+02  0.00000000000E+00 0.  1.
</event>
<event>
 7    1  0.9930326E-013  0.5052885E+02  0.7816164E-02  0.1300439E+00
        -11   -1    0    0    0    0  0.00000000000E+00  0.00000000000E+00  0.45593999997E+02  0.45594000000E+02  0.51100000000E-03 0.  1.
         11   -1    0    0    0    0 -0.00000000000E+00 -0.00000000000E+00 -0.45593999997E+02  0.45594000000E+02  0.51100000000E-03 0. -1.
    9900012    2    1    2    0    0 -0.40387211708E+02 -0.42250167328E+01 -0.20465879783E+01  0.50528853940E+02  0.29999982037E+02 0.  0.
        -12    1    1    2    0    0  0.40387211708E+02  0.42250167328E+01  0.20465879783E+01  0.40659146060E+02  0.00000000000E+00 0.  1.
         11    1    3    3    0    0 -0.17406756247E+02  0.11726684307E+02 -0.65855224389E+01  0.21997258782E+02  0.51100000000E-03 0. -1.
        -11    1    3    3    0    0 -0.16733472225E+02 -0.10028761959E+02  0.39385914643E+01  0.19902202444E+02  0.51100000000E-03 0.  1.
         12    1    3    3    0    0 -0.62469832369E+01 -0.59229390803E+01  0.60034299624E+00  0.86293927147E+01  0.00000000000E+00 0. -1.
</event>
<event>
 7    1  0.9930326E-013  0.5052886E+02  0.7816164E-02  0.1300439E+00
        -11   -1    0    0    0    0  0.00000000000E+00  0.00000000000E+00  0.45593999997E+02  0.45594000000E+02  0.51100000000E-03 0.  1.
         11   -1    0    0    0    0 -0.00000000000E+00 -0.00000000000E+00 -0.45593999997E+02  0.45594000000E+02  0.51100000000E-03 0. -1.
    9900012    2    1    2    0    0 -0.25554732552E+01  0.13133958485E+02 -0.38394457522E+02  0.50528859854E+02  0.30000000011E+02 0.  0.
        -12    1    1    2    0    0  0.25554732552E+01 -0.13133958485E+02  0.38394457522E+02  0.40659140146E+02  0.00000000000E+00 0.  1.
         11    1    3    3    0    0  0.48746488437E+01 -0.60836355690E+01 -0.18760070910E+02  0.20315341097E+02  0.51100000000E-03 0. -1.
        -11    1    3    3    0    0 -0.57966895341E+01  0.86913256254E+01 -0.37737249415E+01  0.11107733832E+02  0.51100000000E-03 0.  1.
         12    1    3    3    0    0 -0.16334325648E+01  0.10526268429E+02 -0.15860661670E+02  0.19105784925E+02  0.00000000000E+00 0. -1.
</event>
<event>
 7    1  0.9930326E-013  0.5052886E+02  0.7816164E-02  0.1300439E+00
        -11   -1    0    0    0    0  0.00000000000E+00  0.00000000000E+00  0.45593999997E+02  0.45594000000E+02  0.51100000000E-03 0. -1.
         11   -1    0    0    0    0 -0.00000000000E+00 -0.00000000000E+00 -0.45593999997E+02  0.45594000000E+02  0.51100000000E-03 0.  1.
    9900012    2    1    2    0    0 -0.32974907223E+02 -0.14653339556E+02  0.18737673769E+02  0.50528864683E+02  0.30000014689E+02 0.  0.
        -12    1    1    2    0    0  0.32974907223E+02  0.14653339556E+02 -0.18737673769E+02  0.40659135317E+02  0.00000000000E+00 0.  1.
         11    1    3    3    0    0 -0.87846825563E+01 -0.80173654085E+01  0.12308905409E+02  0.17116014382E+02  0.51100000000E-03 0. -1.
        -11    1    3    3    0    0  0.11583014147E+01 -0.28875865716E+01 -0.45694691703E+01  0.55280979672E+01  0.51100000000E-03 0.  1.
        -12    1    3    3    0    0 -0.25348526081E+02 -0.37483875758E+01  0.10998237530E+02  0.27884752333E+02  0.00000000000E+00 0.  1.
</event>
<event>
 7    1  0.9930326E-013  0.5052884E+02  0.7816164E-02  0.1300439E+00
        -11   -1    0    0    0    0  0.00000000000E+00  0.00000000000E+00  0.45593999997E+02  0.45594000000E+02  0.51100000000E-03 0.  1.
         11   -1    0    0    0    0 -0.00000000000E+00 -0.00000000000E+00 -0.45593999997E+02  0.45594000000E+02  0.51100000000E-03 0. -1.
    9900012    2    1    2    0    0 -0.65052119745E+01 -0.34031756020E+02 -0.21276499004E+02  0.50528836082E+02  0.29999927754E+02 0.  0.
        -12    1    1    2    0    0  0.65052119745E+01  0.34031756020E+02  0.21276499004E+02  0.40659163918E+02  0.00000000000E+00 0.  1.
         11    1    3    3    0    0 -0.87663039203E+01 -0.24727992201E+02 -0.27347591374E+02  0.37897393537E+02  0.51100000000E-03 0. -1.
        -11    1    3    3    0    0  0.13631814427E+01 -0.91454399863E+01  0.34716315363E+01  0.98767181783E+01  0.51100000000E-03 0.  1.
         12    1    3    3    0    0  0.89791050308E+00 -0.15832383284E+00  0.25994608335E+01  0.27547243660E+01  0.00000000000E+00 0. -1.
</event>
<event>
 7    1  0.9930326E-013  0.5052885E+02  0.7816164E-02  0.1300439E+00
        -11   -1    0    0    0    0  0.00000000000E+00  0.00000000000E+00  0.45593999997E+02  0.45594000000E+02  0.51100000000E-03 0. -1.
         11   -1    0    0    0    0 -0.00000000000E+00 -0.00000000000E+00 -0.45593999997E+02  0.45594000000E+02  0.51100000000E-03 0.  1.
    9900012    2    1    2    0    0  0.18788738464E+02 -0.16253329481E+02  0.32186623395E+02  0.50528854192E+02  0.29999982801E+02 0.  0.
        -12    1    1    2    0    0 -0.18788738464E+02  0.16253329481E+02 -0.32186623395E+02  0.40659145808E+02  0.00000000000E+00 0.  1.
         11    1    3    3    0    0  0.42270206307E+01 -0.34584408431E+01  0.94895121938E+01  0.10948943256E+02  0.51100000000E-03 0. -1.
        -11    1    3    3    0    0  0.13048937108E+02 -0.10188185216E+02 -0.12901041220E+00  0.16555679436E+02  0.51100000000E-03 0.  1.
        -12    1    3    3    0    0  0.15127807250E+01 -0.26067034224E+01  0.22826121613E+02  0.23024231500E+02  0.00000000000E+00 0.  1.
</event>
<event>
 7    1  0.9930326E-013  0.5052886E+02  0.7816164E-02  0.1300439E+00
        -11   -1    0    0    0    0  0.00000000000E+00  0.00000000000E+00  0.45593999997E+02  0.45594000000E+02  0.51100000000E-03 0. -1.
         11   -1    0    0    0    0 -0.00000000000E+00 -0.00000000000E+00 -0.45593999997E+02  0.45594000000E+02  0.51100000000E-03 0.  1.
    9900012    2    1    2    0    0  0.25669624048E+02  0.26801263437E+02 -0.16611090595E+02  0.50528860175E+02  0.30000000988E+02 0.  0.
        -12    1    1    2    0    0 -0.25669624048E+02 -0.26801263437E+02  0.16611090595E+02  0.40659139825E+02  0.00000000000E+00 0.  1.
         11    1    3    3    0    0  0.11247844711E+02  0.15266937907E+02 -0.35870830813E+01  0.19299237524E+02  0.51100000000E-03 0. -1.
        -11    1    3    3    0    0  0.85473130169E+01 -0.50432734535E+01 -0.85065432354E+01  0.13071053707E+02  0.51100000000E-03 0.  1.
        -12    1    3    3    0    0  0.58744663194E+01  0.16577598983E+02 -0.45174642781E+01  0.18158568944E+02  0.00000000000E+00 0.  1.
</event>
<event>
 7    1  0.9930326E-013  0.5052886E+02  0.7816164E-02  0.1300439E+00
        -11   -1    0    0    0    0  0.00000000000E+00  0.00000000000E+00  0.45593999997E+02  0.45594000000E+02  0.51100000000E-03 0. -1.
         11   -1    0    0    0    0 -0.00000000000E+00 -0.00000000000E+00 -0.45593999997E+02  0.45594000000E+02  0.51100000000E-03 0.  1.
    9900012    2    1    2    0    0  0.38045295327E+02  0.69535433733E+01  0.12544693113E+02  0.50528860963E+02  0.30000003383E+02 0.  0.
        -12    1    1    2    0    0 -0.38045295327E+02 -0.69535433733E+01 -0.12544693113E+02  0.40659139037E+02  0.00000000000E+00 0.  1.
         11    1    3    3    0    0  0.37369757342E+02  0.39287580706E+01  0.18229362578E+01  0.37619901656E+02  0.51100000000E-03 0. -1.
        -11    1    3    3    0    0 -0.25116052913E+01  0.24365579715E+01  0.77852544097E+01  0.85355235559E+01  0.51100000000E-03 0.  1.
         12    1    3    3    0    0  0.31871432762E+01  0.58822733118E+00  0.29365024452E+01  0.43734357508E+01  0.00000000000E+00 0. -1.
</event>
<event>
 7    1  0.9930326E-013  0.5052887E+02  0.7816164E-02  0.1300439E+00
        -11   -1    0    0    0    0  0.00000000000E+00  0.00000000000E+00  0.45593999997E+02  0.45594000000E+02  0.51100000000E-03 0.  1.
         11   -1    0    0    0    0 -0.00000000000E+00 -0.00000000000E+00 -0.45593999997E+02  0.45594000000E+02  0.51100000000E-03 0. -1.
    9900012    2    1    2    0    0  0.24262982254E+02  0.23426972670E+02 -0.22707924081E+02  0.50528866064E+02  0.30000018889E+02 0.  0.
        -12    1    1    2    0    0 -0.24262982254E+02 -0.23426972670E+02  0.22707924081E+02  0.40659133936E+02  0.00000000000E+00 0.  1.
         11    1    3    3    0    0  0.15115297975E+02  0.90700697750E+01 -0.82217463958E+01  0.19450848636E+02  0.51100000000E-03 0. -1.
        -11    1    3    3    0    0 -0.40972962580E+01  0.96251989305E+01 -0.13359920374E+02  0.16968198600E+02  0.51100000000E-03 0.  1.
        -12    1    3    3    0    0  0.13244980537E+02  0.47317039647E+01 -0.11262573113E+01  0.14109818828E+02  0.00000000000E+00 0.  1.
</event>
<event>
 7    1  0.9930326E-013  0.5052885E+02  0.7816164E-02  0.1300439E+00
        -11   -1    0    0    0    0  0.00000000000E+00  0.00000000000E+00  0.45593999997E+02  0.45594000000E+02  0.51100000000E-03 0.  1.
         11   -1    0    0    0    0 -0.00000000000E+00 -0.00000000000E+00 -0.45593999997E+02  0.45594000000E+02  0.51100000000E-03 0. -1.
    9900012    2    1    2    0    0 -0.26225323724E+02 -0.30881526759E+02 -0.34249187300E+01  0.50528851365E+02  0.29999974209E+02 0.  0.
        -12    1    1    2    0    0  0.26225323724E+02  0.30881526759E+02  0.34249187300E+01  0.40659148635E+02  0.00000000000E+00 0.  1.
         11    1    3    3    0    0  0.47352387513E+01 -0.86335024167E+01 -0.63197831548E+01  0.11700406377E+02  0.51100000000E-03 0.  1.
        -11    1    3    3    0    0 -0.55364033827E+01 -0.25898326442E+01 -0.17476536545E+01  0.63571447284E+01  0.51100000000E-03 0. -1.
         12    1    3    3    0    0 -0.25424159093E+02 -0.19658191698E+02  0.46425180794E+01  0.32471300259E+02  0.00000000000E+00 0. -1.
</event>
<event>
 7    1  0.9930326E-013  0.5052888E+02  0.7816164E-02  0.1300439E+00
        -11   -1    0    0    0    0  0.00000000000E+00  0.00000000000E+00  0.45593999997E+02  0.45594000000E+02  0.51100000000E-03 0. -1.
         11   -1    0    0    0    0 -0.00000000000E+00 -0.00000000000E+00 -0.45593999997E+02  0.45594000000E+02  0.51100000000E-03 0.  1.
    9900012    2    1    2    0    0  0.33389305376E+02 -0.23103627194E+02 -0.21309728440E+01  0.50528876199E+02  0.30000049695E+02 0.  0.
        -12    1    1    2    0    0 -0.33389305376E+02  0.23103627194E+02  0.21309728440E+01  0.40659123801E+02  0.00000000000E+00 0.  1.
         11    1    3    3    0    0  0.12624438028E+02 -0.11734225099E+02 -0.69723602599E+01  0.18592532965E+02  0.51100000000E-03 0. -1.
        -11    1    3    3    0    0  0.13396761661E+02  0.43476612176E+01  0.35783014117E+01  0.14532020586E+02  0.51100000000E-03 0.  1.
        -12    1    3    3    0    0  0.73681056861E+01 -0.15717063312E+02  0.12630860042E+01  0.17404322647E+02  0.00000000000E+00 0.  1.
</event>
<event>
 7    1  0.9930326E-013  0.5052888E+02  0.7816164E-02  0.1300439E+00
        -11   -1    0    0    0    0  0.00000000000E+00  0.00000000000E+00  0.45593999997E+02  0.45594000000E+02  0.51100000000E-03 0.  1.
         11   -1    0    0    0    0 -0.00000000000E+00 -0.00000000000E+00 -0.45593999997E+02  0.45594000000E+02  0.51100000000E-03 0. -1.
    9900012    2    1    2    0    0  0.29269119065E+02 -0.11819612935E+02 -0.25627712296E+02  0.50528877797E+02  0.30000054552E+02 0.  0.
        -12    1    1    2    0    0 -0.29269119065E+02  0.11819612935E+02  0.25627712296E+02  0.40659122203E+02  0.00000000000E+00 0.  1.
         11    1    3    3    0    0  0.16469360787E+02 -0.82993598151E+01 -0.21706772219E+02  0.28483384253E+02  0.51100000000E-03 0. -1.
        -11    1    3    3    0    0 -0.19782070427E+01 -0.63401848343E+01 -0.92942030073E+00  0.67063454425E+01  0.51100000000E-03 0.  1.
         12    1    3    3    0    0  0.14777965321E+02  0.28199317145E+01 -0.29915197756E+01  0.15339148102E+02  0.00000000000E+00 0. -1.
</event>
<event>
 7    1  0.9930326E-013  0.5052887E+02  0.7816164E-02  0.1300439E+00
        -11   -1    0    0    0    0  0.00000000000E+00  0.00000000000E+00  0.45593999997E+02  0.45594000000E+02  0.51100000000E-03 0. -1.
         11   -1    0    0    0    0 -0.00000000000E+00 -0.00000000000E+00 -0.45593999997E+02  0.45594000000E+02  0.51100000000E-03 0.  1.
    9900012    2    1    2    0    0 -0.10260649617E+02 -0.27682337764E+02  0.27956614185E+02  0.50528867799E+02  0.30000024162E+02 0.  0.
        -12    1    1    2    0    0  0.10260649617E+02  0.27682337764E+02 -0.27956614185E+02  0.40659132201E+02  0.00000000000E+00 0.  1.
         11    1    3    3    0    0  0.42315726912E-01 -0.14635632154E+02  0.12636412437E+01  0.14690143247E+02  0.51100000000E-03 0. -1.
        -11    1    3    3    0    0  0.27639357305E+01 -0.42397958475E+01  0.16035865795E+02  0.16815594001E+02  0.51100000000E-03 0.  1.
         12    1    3    3    0    0 -0.13066901074E+02 -0.88069097631E+01  0.10657107146E+02  0.19023130551E+02  0.00000000000E+00 0. -1.
</event>
<event>
 7    1  0.9930326E-013  0.5052887E+02  0.7816164E-02  0.1300439E+00
        -11   -1    0    0    0    0  0.00000000000E+00  0.00000000000E+00  0.45593999997E+02  0.45594000000E+02  0.51100000000E-03 0.  1.
         11   -1    0    0    0    0 -0.00000000000E+00 -0.00000000000E+00 -0.45593999997E+02  0.45594000000E+02  0.51100000000E-03 0. -1.
    9900012    2    1    2    0    0 -0.12106059059E+02 -0.15370370737E+01 -0.38784611363E+02  0.50528865387E+02  0.30000016829E+02 0.  0.
        -12    1    1    2    0    0  0.12106059059E+02  0.15370370737E+01  0.38784611363E+02  0.40659134613E+02  0.00000000000E+00 0.  1.
         11    1    3    3    0    0 -0.14219149326E+02  0.25501674545E+01 -0.68513076965E+01  0.15988370117E+02  0.51100000000E-03 0. -1.
        -11    1    3    3    0    0  0.32838247642E+01 -0.53530354463E+01 -0.64619262658E+01  0.90108259831E+01  0.51100000000E-03 0.  1.
         12    1    3    3    0    0 -0.11707344981E+01  0.12658309181E+01 -0.25471377401E+02  0.25529669286E+02  0.00000000000E+00 0. -1.
</event>
<event>
 7    1  0.9930326E-013  0.5052886E+02  0.7816164E-02  0.1300439E+00
        -11   -1    0    0    0    0  0.00000000000E+00  0.00000000000E+00  0.45593999997E+02  0.45594000000E+02  0.51100000000E-03 0. -1.
         11   -1    0    0    0    0 -0.00000000000E+00 -0.00000000000E+00 -0.45593999997E+02  0.45594000000E+02  0.51100000000E-03 0.  1.
    9900012    2    1    2    0    0 -0.12926810780E+02 -0.25418645692E+02  0.28981991352E+02  0.50528858242E+02  0.29999995112E+02 0.  0.
        -12    1    1    2    0    0  0.12926810780E+02  0.25418645692E+02 -0.28981991352E+02  0.40659141758E+02  0.00000000000E+00 0.  1.
         11    1    3    3    0    0  0.52293651687E+00 -0.69950541823E+01  0.10744872187E+02  0.12831855835E+02  0.51100000000E-03 0. -1.
        -11    1    3    3    0    0 -0.19245021628E+02 -0.15889934165E+02  0.90587064751E+01  0.26550348934E+02  0.51100000000E-03 0.  1.
        -12    1    3    3    0    0  0.57952743316E+01 -0.25336573447E+01  0.91784126905E+01  0.11146653473E+02  0.00000000000E+00 0.  1.
</event>
<event>
 7    1  0.1072254E-012  0.5052886E+02  0.7816164E-02  0.1300439E+00
        -11   -1    0    0    0    0  0.00000000000E+00  0.00000000000E+00  0.45593999997E+02  0.45594000000E+02  0.51100000000E-03 0. -1.
         11   -1    0    0    0    0 -0.00000000000E+00 -0.00000000000E+00 -0.45593999997E+02  0.45594000000E+02  0.51100000000E-03 0.  1.
    9900012    2    1    2    0    0 -0.32417808938E+02  0.20449590739E+02  0.13567077262E+02  0.50528859783E+02  0.29999999798E+02 0.  0.
        -12    1    1    2    0    0  0.32417808938E+02 -0.20449590739E+02 -0.13567077262E+02  0.40659140217E+02  0.00000000000E+00 0.  1.
         11    1    3    3    0    0 -0.26213967223E+02  0.23461481706E+02  0.38885388350E+01  0.35393981634E+02  0.51100000000E-03 0. -1.
        -11    1    3    3    0    0  0.18125930364E+01 -0.30349348867E+01  0.21500281201E+01  0.41375046176E+01  0.51100000000E-03 0.  1.
        -12    1    3    3    0    0 -0.80164347512E+01  0.23043919465E-01  0.75285103072E+01  0.10997373531E+02  0.00000000000E+00 0.  1.
</event>
<event>
 7    1  0.9930326E-013  0.5052887E+02  0.7816164E-02  0.1300439E+00
        -11   -1    0    0    0    0  0.00000000000E+00  0.00000000000E+00  0.45593999997E+02  0.45594000000E+02  0.51100000000E-03 0. -1.
         11   -1    0    0    0    0 -0.00000000000E+00 -0.00000000000E+00 -0.45593999997E+02  0.45594000000E+02  0.51100000000E-03 0.  1.
    9900012    2    1    2    0    0 -0.36357143461E+02 -0.75786766744E+01 -0.16549523709E+02  0.50528868729E+02  0.30000026988E+02 0.  0.
        -12    1    1    2    0    0  0.36357143461E+02  0.75786766744E+01  0.16549523709E+02  0.40659131271E+02  0.00000000000E+00 0.  1.
         11    1    3    3    0    0 -0.31071532699E+02 -0.82265511523E+01 -0.73758602182E+00  0.32150588199E+02  0.51100000000E-03 0. -1.
        -11    1    3    3    0    0 -0.72881297346E+01  0.50590722151E+00 -0.13164062403E+02  0.15055408209E+02  0.51100000000E-03 0.  1.
         12    1    3    3    0    0  0.20025189729E+01  0.14196725638E+00 -0.26478752845E+01  0.33228723209E+01  0.00000000000E+00 0. -1.
</event>
<event>
 7    1  0.9930326E-013  0.5052885E+02  0.7816164E-02  0.1300439E+00
        -11   -1    0    0    0    0  0.00000000000E+00  0.00000000000E+00  0.45593999997E+02  0.45594000000E+02  0.51100000000E-03 0. -1.
         11   -1    0    0    0    0 -0.00000000000E+00 -0.00000000000E+00 -0.45593999997E+02  0.45594000000E+02  0.51100000000E-03 0.  1.
    9900012    2    1    2    0    0 -0.28098410594E+02 -0.24403472088E+02  0.16374257177E+02  0.50528850649E+02  0.29999972032E+02 0.  0.
        -12    1    1    2    0    0  0.28098410594E+02  0.24403472088E+02 -0.16374257177E+02  0.40659149351E+02  0.00000000000E+00 0.  1.
         11    1    3    3    0    0 -0.16206400404E+02 -0.25573189750E+02  0.13027603724E+02  0.32959883299E+02  0.51100000000E-03 0. -1.
        -11    1    3    3    0    0 -0.84853238116E+01  0.25320519563E+00  0.80436597216E+01  0.11694669514E+02  0.51100000000E-03 0.  1.
         12    1    3    3    0    0 -0.34066863787E+01  0.91651246569E+00 -0.46970062685E+01  0.58742978363E+01  0.00000000000E+00 0. -1.
</event>
<event>
 7    1  0.9930326E-013  0.5052886E+02  0.7816164E-02  0.1300439E+00
        -11   -1    0    0    0    0  0.00000000000E+00  0.00000000000E+00  0.45593999997E+02  0.45594000000E+02  0.51100000000E-03 0.  1.
         11   -1    0    0    0    0 -0.00000000000E+00 -0.00000000000E+00 -0.45593999997E+02  0.45594000000E+02  0.51100000000E-03 0. -1.
    9900012    2    1    2    0    0  0.49593257820E+01 -0.37911727185E+02 -0.13830110314E+02  0.50528856851E+02  0.29999990883E+02 0.  0.
        -12    1    1    2    0    0 -0.49593257820E+01  0.37911727185E+02  0.13830110314E+02  0.40659143149E+02  0.00000000000E+00 0.  1.
         11    1    3    3    0    0 -0.17605359979E+00 -0.27988088018E+02  0.16091301051E+01  0.28034859831E+02  0.51100000000E-03 0. -1.
        -11    1    3    3    0    0  0.62776788376E+01 -0.15531999804E+01 -0.22814298297E+01  0.68575946291E+01  0.51100000000E-03 0.  1.
         12    1    3    3    0    0 -0.11422994558E+01 -0.83704391861E+01 -0.13157810590E+02  0.15636402391E+02  0.00000000000E+00 0. -1.
</event>
<event>
 7    1  0.9930326E-013  0.5052887E+02  0.7816164E-02  0.1300439E+00
        -11   -1    0    0    0    0  0.00000000000E+00  0.00000000000E+00  0.45593999997E+02  0.45594000000E+02  0.51100000000E-03 0.  1.
         11   -1    0    0    0    0 -0.00000000000E+00 -0.00000000000E+00 -0.45593999997E+02  0.45594000000E+02  0.51100000000E-03 0. -1.
    9900012    2    1    2    0    0  0.39000906188E+02 -0.90950699327E+01 -0.70266810230E+01  0.50528865396E+02  0.30000016856E+02 0.  0.
        -12    1    1    2    0    0 -0.39000906188E+02  0.90950699327E+01  0.70266810230E+01  0.40659134604E+02  0.00000000000E+00 0.  1.
         11    1    3    3    0    0  0.22479910467E+02 -0.58478773315E+01  0.16232305990E+01  0.23284735810E+02  0.51100000000E-03 0.  1.
        -11    1    3    3    0    0  0.15040767830E+02 -0.86668913969E+01 -0.11619834314E+02  0.20889237735E+02  0.51100000000E-03 0. -1.
        -12    1    3    3    0    0  0.14802278914E+01  0.54196987957E+01  0.29699226916E+01  0.63548918513E+01  0.00000000000E+00 0.  1.
</event>
<event>
 7    1  0.9930326E-013  0.5052886E+02  0.7816164E-02  0.1300439E+00
        -11   -1    0    0    0    0  0.00000000000E+00  0.00000000000E+00  0.45593999997E+02  0.45594000000E+02  0.51100000000E-03 0.  1.
         11   -1    0    0    0    0 -0.00000000000E+00 -0.00000000000E+00 -0.45593999997E+02  0.45594000000E+02  0.51100000000E-03 0. -1.
    9900012    2    1    2    0    0 -0.87077471333E+01  0.34940089969E+02 -0.18882023211E+02  0.50528861449E+02  0.30000004861E+02 0.  0.
        -12    1    1    2    0    0  0.87077471333E+01 -0.34940089969E+02  0.18882023211E+02  0.40659138551E+02  0.00000000000E+00 0.  1.
         11    1    3    3    0    0  0.17840559780E+00  0.61946788944E+01 -0.72938954981E+01  0.95711434510E+01  0.51100000000E-03 0. -1.
        -11    1    3    3    0    0 -0.15841957398E+02  0.17297358753E+02 -0.32747907370E+00  0.23457908620E+02  0.51100000000E-03 0.  1.
        -12    1    3    3    0    0  0.69558046667E+01  0.11448052322E+02 -0.11260648639E+02  0.17499809378E+02  0.00000000000E+00 0.  1.
</event>
<event>
 7    1  0.9930326E-013  0.5052882E+02  0.7816164E-02  0.1300439E+00
        -11   -1    0    0    0    0  0.00000000000E+00  0.00000000000E+00  0.45593999997E+02  0.45594000000E+02  0.51100000000E-03 0.  1.
         11   -1    0    0    0    0 -0.00000000000E+00 -0.00000000000E+00 -0.45593999997E+02  0.45594000000E+02  0.51100000000E-03 0. -1.
    9900012    2    1    2    0    0 -0.12673854390E+02  0.16667992335E+02 -0.34852835133E+02  0.50528823048E+02  0.29999888137E+02 0.  0.
        -12    1    1    2    0    0  0.12673854390E+02 -0.16667992335E+02  0.34852835133E+02  0.40659176952E+02  0.00000000000E+00 0.  1.
         11    1    3    3    0    0 -0.12462604018E+01  0.27408486166E+00 -0.21251836463E+01  0.24788491871E+01  0.51100000000E-03 0. -1.
        -11    1    3    3    0    0 -0.36999552897E+01 -0.50794492339E+01 -0.21911933699E+02  0.22795247583E+02  0.51100000000E-03 0.  1.
        -12    1    3    3    0    0 -0.77276386983E+01  0.21473356707E+02 -0.10815717788E+02  0.25254726278E+02  0.00000000000E+00 0.  1.
</event>
<event>
 7    1  0.9930326E-013  0.5052884E+02  0.7816164E-02  0.1300439E+00
        -11   -1    0    0    0    0  0.00000000000E+00  0.00000000000E+00  0.45593999997E+02  0.45594000000E+02  0.51100000000E-03 0.  1.
         11   -1    0    0    0    0 -0.00000000000E+00 -0.00000000000E+00 -0.45593999997E+02  0.45594000000E+02  0.51100000000E-03 0. -1.
    9900012    2    1    2    0    0 -0.31072534827E+02  0.21170622318E+02 -0.15474796277E+02  0.50528843716E+02  0.29999950959E+02 0.  0.
        -12    1    1    2    0    0  0.31072534827E+02 -0.21170622318E+02  0.15474796277E+02  0.40659156284E+02  0.00000000000E+00 0.  1.
         11    1    3    3    0    0 -0.95223887660E+01  0.10065931417E+02 -0.76007879616E+00  0.13877196516E+02  0.51100000000E-03 0. -1.
        -11    1    3    3    0    0 -0.10676931857E+02  0.92676761045E+01 -0.19944315807E+02  0.24447135364E+02  0.51100000000E-03 0.  1.
        -12    1    3    3    0    0 -0.10873214204E+02  0.18370147967E+01  0.52295983265E+01  0.12204511835E+02  0.00000000000E+00 0.  1.
</event>
<event>
 7    1  0.9930326E-013  0.5052890E+02  0.7816164E-02  0.1300439E+00
        -11   -1    0    0    0    0  0.00000000000E+00  0.00000000000E+00  0.45593999997E+02  0.45594000000E+02  0.51100000000E-03 0. -1.
         11   -1    0    0    0    0 -0.00000000000E+00 -0.00000000000E+00 -0.45593999997E+02  0.45594000000E+02  0.51100000000E-03 0.  1.
    9900012    2    1    2    0    0  0.29870633691E+02  0.96742786221E+01  0.25832464795E+02  0.50528896943E+02  0.30000112749E+02 0.  0.
        -12    1    1    2    0    0 -0.29870633691E+02 -0.96742786221E+01 -0.25832464795E+02  0.40659103057E+02  0.00000000000E+00 0.  1.
         11    1    3    3    0    0  0.69585288774E+01  0.14560302143E+02  0.39098380941E+01  0.16604528202E+02  0.51100000000E-03 0. -1.
        -11    1    3    3    0    0  0.28169165269E+01 -0.32604011272E+01  0.23764508505E+00  0.43152879021E+01  0.51100000000E-03 0.  1.
         12    1    3    3    0    0  0.20095188287E+02 -0.16256223935E+01  0.21684981616E+02  0.29609080839E+02  0.00000000000E+00 0. -1.
</event>
<event>
 7    1  0.9930326E-013  0.5052887E+02  0.7816164E-02  0.1300439E+00
        -11   -1    0    0    0    0  0.00000000000E+00  0.00000000000E+00  0.45593999997E+02  0.45594000000E+02  0.51100000000E-03 0.  1.
         11   -1    0    0    0    0 -0.00000000000E+00 -0.00000000000E+00 -0.45593999997E+02  0.45594000000E+02  0.51100000000E-03 0. -1.
    9900012    2    1    2    0    0 -0.77111869697E+01  0.27906616466E+02 -0.28546866794E+02  0.50528865101E+02  0.30000015960E+02 0.  0.
        -12    1    1    2    0    0  0.77111869697E+01 -0.27906616466E+02  0.28546866794E+02  0.40659134899E+02  0.00000000000E+00 0.  1.
         11    1    3    3    0    0 -0.13009964705E+02  0.22697095447E+02 -0.31254944997E+02  0.40758912036E+02  0.51100000000E-03 0. -1.
        -11    1    3    3    0    0  0.36779364194E+01  0.56791799561E+01  0.22768547329E+00  0.67699440334E+01  0.51100000000E-03 0.  1.
         12    1    3    3    0    0  0.16208413155E+01 -0.46965893724E+00  0.24803927305E+01  0.30000090308E+01  0.00000000000E+00 0. -1.
</event>
<event>
 7    1  0.9930326E-013  0.5052884E+02  0.7816164E-02  0.1300439E+00
        -11   -1    0    0    0    0  0.00000000000E+00  0.00000000000E+00  0.45593999997E+02  0.45594000000E+02  0.51100000000E-03 0.  1.
         11   -1    0    0    0    0 -0.00000000000E+00 -0.00000000000E+00 -0.45593999997E+02  0.45594000000E+02  0.51100000000E-03 0. -1.
    9900012    2    1    2    0    0 -0.23704832239E+02 -0.32622209294E+02 -0.51999989634E+01  0.50528836213E+02  0.29999928152E+02 0.  0.
        -12    1    1    2    0    0  0.23704832239E+02  0.32622209294E+02  0.51999989634E+01  0.40659163787E+02  0.00000000000E+00 0.  1.
         11    1    3    3    0    0 -0.23349922300E+02 -0.11474414285E+02  0.52593647137E+01  0.26543209528E+02  0.51100000000E-03 0. -1.
        -11    1    3    3    0    0  0.16695742271E+01 -0.14111147071E+02 -0.60957646211E+01  0.15461898213E+02  0.51100000000E-03 0.  1.
        -12    1    3    3    0    0 -0.20244841655E+01 -0.70366479377E+01 -0.43635990560E+01  0.85237284716E+01  0.00000000000E+00 0.  1.
</event>
<event>
 7    1  0.9930326E-013  0.5052884E+02  0.7816164E-02  0.1300439E+00
        -11   -1    0    0    0    0  0.00000000000E+00  0.00000000000E+00  0.45593999997E+02  0.45594000000E+02  0.51100000000E-03 0.  1.
         11   -1    0    0    0    0 -0.00000000000E+00 -0.00000000000E+00 -0.45593999997E+02  0.45594000000E+02  0.51100000000E-03 0. -1.
    9900012    2    1    2    0    0 -0.27773133923E+02 -0.20523666562E+01 -0.29624450735E+02  0.50528840415E+02  0.29999940925E+02 0.  0.
        -12    1    1    2    0    0  0.27773133923E+02  0.20523666562E+01  0.29624450735E+02  0.40659159585E+02  0.00000000000E+00 0.  1.
         11    1    3    3    0    0 -0.14517269322E+02  0.58965414280E+01 -0.14688338561E+02  0.21477141321E+02  0.51100000000E-03 0. -1.
        -11    1    3    3    0    0 -0.18684361266E+01 -0.10207085420E+02 -0.31401369571E+00  0.10381437820E+02  0.51100000000E-03 0.  1.
        -12    1    3    3    0    0 -0.11387428474E+02  0.22581773362E+01 -0.14622098478E+02  0.18670261274E+02  0.00000000000E+00 0.  1.
</event>
<event>
 7    1  0.9930326E-013  0.5052886E+02  0.7816164E-02  0.1300439E+00
        -11   -1    0    0    0    0  0.00000000000E+00  0.00000000000E+00  0.45593999997E+02  0.45594000000E+02  0.51100000000E-03 0.  1.
         11   -1    0    0    0    0 -0.00000000000E+00 -0.00000000000E+00 -0.45593999997E+02  0.45594000000E+02  0.51100000000E-03 0. -1.
    9900012    2    1    2    0    0  0.31663635252E+02  0.24622714128E+02  0.66559431510E+01  0.50528862925E+02  0.30000009348E+02 0.  0.
        -12    1    1    2    0    0 -0.31663635252E+02 -0.24622714128E+02 -0.66559431510E+01  0.40659137075E+02  0.00000000000E+00 0.  1.
         11    1    3    3    0    0  0.73241652853E+01  0.22127381495E+02  0.13260048714E+01  0.23345721196E+02  0.51100000000E-03 0.  1.
        -11    1    3    3    0    0  0.20379775400E+02  0.61198672816E+01  0.45317804054E+01  0.21756034906E+02  0.51100000000E-03 0. -1.
        -12    1    3    3    0    0  0.39596945670E+01 -0.36245346492E+01  0.79815787428E+00  0.54271068240E+01  0.00000000000E+00 0.  1.
</event>
<event>
 7    1  0.9930326E-013  0.5052886E+02  0.7816164E-02  0.1300439E+00
        -11   -1    0    0    0    0  0.00000000000E+00  0.00000000000E+00  0.45593999997E+02  0.45594000000E+02  0.51100000000E-03 0.  1.
         11   -1    0    0    0    0 -0.00000000000E+00 -0.00000000000E+00 -0.45593999997E+02  0.45594000000E+02  0.51100000000E-03 0. -1.
    9900012    2    1    2    0    0  0.25686325165E+02 -0.24149437773E+02 -0.20252985558E+02  0.50528855035E+02  0.29999985363E+02 0.  0.
        -12    1    1    2    0    0 -0.25686325165E+02  0.24149437773E+02  0.20252985558E+02  0.40659144965E+02  0.00000000000E+00 0.  1.
         11    1    3    3    0    0  0.70425000556E+01 -0.21006157000E+01  0.15918025258E+01  0.75195231827E+01  0.51100000000E-03 0. -1.
        -11    1    3    3    0    0  0.60355883095E+00 -0.15899376285E+02 -0.17121841435E+02  0.23373316065E+02  0.51100000000E-03 0.  1.
        -12    1    3    3    0    0  0.18040266279E+02 -0.61494457886E+01 -0.47229466494E+01  0.19636015787E+02  0.00000000000E+00 0.  1.
</event>
<event>
 7    1  0.9930326E-013  0.5052887E+02  0.7816164E-02  0.1300439E+00
        -11   -1    0    0    0    0  0.00000000000E+00  0.00000000000E+00  0.45593999997E+02  0.45594000000E+02  0.51100000000E-03 0.  1.
         11   -1    0    0    0    0 -0.00000000000E+00 -0.00000000000E+00 -0.45593999997E+02  0.45594000000E+02  0.51100000000E-03 0. -1.
    9900012    2    1    2    0    0  0.28787662980E+02 -0.82628463118E+01 -0.27498381743E+02  0.50528866124E+02  0.30000019072E+02 0.  0.
        -12    1    1    2    0    0 -0.28787662980E+02  0.82628463118E+01  0.27498381743E+02  0.40659133876E+02  0.00000000000E+00 0.  1.
         11    1    3    3    0    0 -0.46205622818E+00 -0.85347739699E+01  0.16992280985E+01  0.87145418163E+01  0.51100000000E-03 0. -1.
        -11    1    3    3    0    0  0.79561610858E+01  0.23236139707E+01 -0.10693158479E+02  0.13529350303E+02  0.51100000000E-03 0.  1.
         12    1    3    3    0    0  0.21293558122E+02 -0.20516863125E+01 -0.18504451363E+02  0.28284974005E+02  0.00000000000E+00 0. -1.
</event>
<event>
 7    1  0.9930326E-013  0.5052886E+02  0.7816164E-02  0.1300439E+00
        -11   -1    0    0    0    0  0.00000000000E+00  0.00000000000E+00  0.45593999997E+02  0.45594000000E+02  0.51100000000E-03 0.  1.
         11   -1    0    0    0    0 -0.00000000000E+00 -0.00000000000E+00 -0.45593999997E+02  0.45594000000E+02  0.51100000000E-03 0. -1.
    9900012    2    1    2    0    0 -0.20801236644E+02  0.13747044937E+02 -0.32116867819E+02  0.50528857253E+02  0.29999992106E+02 0.  0.
        -12    1    1    2    0    0  0.20801236644E+02 -0.13747044937E+02  0.32116867819E+02  0.40659142747E+02  0.00000000000E+00 0.  1.
         11    1    3    3    0    0 -0.97382534793E+01 -0.14452015449E+01 -0.13103898735E+02  0.16390068659E+02  0.51100000000E-03 0. -1.
        -11    1    3    3    0    0  0.88507004306E+00  0.91097000579E+01  0.18515048288E+01  0.93379898543E+01  0.51100000000E-03 0.  1.
        -12    1    3    3    0    0 -0.11948053208E+02  0.60825464241E+01 -0.20864473912E+02  0.24800798739E+02  0.00000000000E+00 0.  1.
</event>
<event>
 7    1  0.9930326E-013  0.5052886E+02  0.7816164E-02  0.1300439E+00
        -11   -1    0    0    0    0  0.00000000000E+00  0.00000000000E+00  0.45593999997E+02  0.45594000000E+02  0.51100000000E-03 0.  1.
         11   -1    0    0    0    0 -0.00000000000E+00 -0.00000000000E+00 -0.45593999997E+02  0.45594000000E+02  0.51100000000E-03 0. -1.
    9900012    2    1    2    0    0 -0.25064211044E+02 -0.16562237987E+02 -0.27397873108E+02  0.50528857692E+02  0.29999993441E+02 0.  0.
        -12    1    1    2    0    0  0.25064211044E+02  0.16562237987E+02  0.27397873108E+02  0.40659142308E+02  0.00000000000E+00 0.  1.
         11    1    3    3    0    0 -0.10198268060E+02 -0.64337878225E+01  0.39208522488E+01  0.12679565442E+02  0.51100000000E-03 0. -1.
        -11    1    3    3    0    0 -0.38986469746E+00  0.21031321126E+01 -0.19369831583E+01  0.28856651195E+01  0.51100000000E-03 0.  1.
         12    1    3    3    0    0 -0.14476078286E+02 -0.12231582277E+02 -0.29381742198E+02  0.34963627131E+02  0.00000000000E+00 0. -1.
</event>
<event>
 7    1  0.9930326E-013  0.5052887E+02  0.7816164E-02  0.1300439E+00
        -11   -1    0    0    0    0  0.00000000000E+00  0.00000000000E+00  0.45593999997E+02  0.45594000000E+02  0.51100000000E-03 0.  1.
         11   -1    0    0    0    0 -0.00000000000E+00 -0.00000000000E+00 -0.45593999997E+02  0.45594000000E+02  0.51100000000E-03 0. -1.
    9900012    2    1    2    0    0  0.77623194471E+01  0.21927798445E+02 -0.33347901857E+02  0.50528874258E+02  0.30000043794E+02 0.  0.
        -12    1    1    2    0    0 -0.77623194471E+01 -0.21927798445E+02  0.33347901857E+02  0.40659125742E+02  0.00000000000E+00 0.  1.
         11    1    3    3    0    0  0.13726918680E+02  0.10826203056E+02 -0.13135721928E+02  0.21867376612E+02  0.51100000000E-03 0. -1.
        -11    1    3    3    0    0 -0.43780545717E+01 -0.32893861414E+01 -0.32796055279E+01  0.63830428246E+01  0.51100000000E-03 0.  1.
        -12    1    3    3    0    0 -0.15865446608E+01  0.14390981530E+02 -0.16932574401E+02  0.22278454821E+02  0.00000000000E+00 0.  1.
</event>
<event>
 7    1  0.9930326E-013  0.5052884E+02  0.7816164E-02  0.1300439E+00
        -11   -1    0    0    0    0  0.00000000000E+00  0.00000000000E+00  0.45593999997E+02  0.45594000000E+02  0.51100000000E-03 0.  1.
         11   -1    0    0    0    0 -0.00000000000E+00 -0.00000000000E+00 -0.45593999997E+02  0.45594000000E+02  0.51100000000E-03 0. -1.
    9900012    2    1    2    0    0 -0.11331812475E+02  0.38015223387E+02 -0.89219063522E+01  0.50528836259E+02  0.29999928293E+02 0.  0.
        -12    1    1    2    0    0  0.11331812475E+02 -0.38015223387E+02  0.89219063522E+01  0.40659163741E+02  0.00000000000E+00 0.  1.
         11    1    3    3    0    0 -0.66397697769E+01  0.13148167114E+02 -0.99022476087E+01  0.17748671756E+02  0.51100000000E-03 0. -1.
        -11    1    3    3    0    0 -0.80105071452E+01  0.25673979138E+02  0.51574192412E+01  0.27384674601E+02  0.51100000000E-03 0.  1.
        -12    1    3    3    0    0  0.33184644474E+01 -0.80692286415E+00 -0.41770779847E+01  0.53954899024E+01  0.00000000000E+00 0.  1.
</event>
<event>
 7    1  0.9930326E-013  0.5052886E+02  0.7816164E-02  0.1300439E+00
        -11   -1    0    0    0    0  0.00000000000E+00  0.00000000000E+00  0.45593999997E+02  0.45594000000E+02  0.51100000000E-03 0.  1.
         11   -1    0    0    0    0 -0.00000000000E+00 -0.00000000000E+00 -0.45593999997E+02  0.45594000000E+02  0.51100000000E-03 0. -1.
    9900012    2    1    2    0    0  0.38117446480E+02 -0.13283704409E+02 -0.48753788738E+01  0.50528857754E+02  0.29999993630E+02 0.  0.
        -12    1    1    2    0    0 -0.38117446480E+02  0.13283704409E+02  0.48753788738E+01  0.40659142246E+02  0.00000000000E+00 0.  1.
         11    1    3    3    0    0  0.30095306670E+02 -0.12055624048E+02  0.24619402456E+01  0.32513484968E+02  0.51100000000E-03 0. -1.
        -11    1    3    3    0    0  0.57593191416E+01  0.57683778464E+01 -0.68475578289E+01  0.10645796750E+02  0.51100000000E-03 0.  1.
        -12    1    3    3    0    0  0.22628206685E+01 -0.69964582079E+01 -0.48976129051E+00  0.73695760363E+01  0.00000000000E+00 0.  1.
</event>
<event>
 7    1  0.9930326E-013  0.5052885E+02  0.7816164E-02  0.1300439E+00
        -11   -1    0    0    0    0  0.00000000000E+00  0.00000000000E+00  0.45593999997E+02  0.45594000000E+02  0.51100000000E-03 0.  1.
         11   -1    0    0    0    0 -0.00000000000E+00 -0.00000000000E+00 -0.45593999997E+02  0.45594000000E+02  0.51100000000E-03 0. -1.
    9900012    2    1    2    0    0  0.26786185211E+02 -0.18147524667E+02 -0.24623844888E+02  0.50528854574E+02  0.29999983963E+02 0.  0.
        -12    1    1    2    0    0 -0.26786185211E+02  0.18147524667E+02  0.24623844888E+02  0.40659145426E+02  0.00000000000E+00 0.  1.
         11    1    3    3    0    0  0.14868615083E+02 -0.55107043266E+01 -0.20666546383E+02  0.26048986858E+02  0.51100000000E-03 0. -1.
        -11    1    3    3    0    0 -0.29518090638E+01  0.14768174897E+01  0.87984760434E+00  0.34158891543E+01  0.51100000000E-03 0.  1.
        -12    1    3    3    0    0  0.14869379192E+02 -0.14113637830E+02 -0.48371461095E+01  0.21063978562E+02  0.00000000000E+00 0.  1.
</event>
<event>
 7    1  0.9930326E-013  0.5052886E+02  0.7816164E-02  0.1300439E+00
        -11   -1    0    0    0    0  0.00000000000E+00  0.00000000000E+00  0.45593999997E+02  0.45594000000E+02  0.51100000000E-03 0.  1.
         11   -1    0    0    0    0 -0.00000000000E+00 -0.00000000000E+00 -0.45593999997E+02  0.45594000000E+02  0.51100000000E-03 0. -1.
    9900012    2    1    2    0    0  0.16868995521E+02 -0.35495975208E+02 -0.10422972007E+02  0.50528860666E+02  0.30000002482E+02 0.  0.
        -12    1    1    2    0    0 -0.16868995521E+02  0.35495975208E+02  0.10422972007E+02  0.40659139334E+02  0.00000000000E+00 0.  1.
         11    1    3    3    0    0  0.31280397911E+00 -0.78046640117E+01 -0.13510591527E+02  0.15605983159E+02  0.51100000000E-03 0.  1.
        -11    1    3    3    0    0  0.12383405723E+02 -0.27581010099E+02  0.43892736447E+01  0.30550394085E+02  0.51100000000E-03 0. -1.
         12    1    3    3    0    0  0.41727858186E+01 -0.11030109791E+00 -0.13016541242E+01  0.43724834224E+01  0.00000000000E+00 0. -1.
</event>
<event>
 7    1  0.9930326E-013  0.5052886E+02  0.7816164E-02  0.1300439E+00
        -11   -1    0    0    0    0  0.00000000000E+00  0.00000000000E+00  0.45593999997E+02  0.45594000000E+02  0.51100000000E-03 0.  1.
         11   -1    0    0    0    0 -0.00000000000E+00 -0.00000000000E+00 -0.45593999997E+02  0.45594000000E+02  0.51100000000E-03 0. -1.
    9900012    2    1    2    0    0 -0.80946715631E+01  0.37357902946E+02 -0.13857457549E+02  0.50528858962E+02  0.29999997300E+02 0.  0.
        -12    1    1    2    0    0  0.80946715631E+01 -0.37357902946E+02  0.13857457549E+02  0.40659141038E+02  0.00000000000E+00 0.  1.
         11    1    3    3    0    0  0.44275689465E+01  0.21730696366E+02 -0.14966058793E+02  0.26754615441E+02  0.51100000000E-03 0. -1.
        -11    1    3    3    0    0 -0.22468608683E+01  0.82375817576E+00  0.48149725135E+01  0.53768877485E+01  0.51100000000E-03 0.  1.
         12    1    3    3    0    0 -0.10275379641E+02  0.14803448404E+02 -0.37063712699E+01  0.18397355773E+02  0.00000000000E+00 0. -1.
</event>
<event>
 7    1  0.9930326E-013  0.5052886E+02  0.7816164E-02  0.1300439E+00
        -11   -1    0    0    0    0  0.00000000000E+00  0.00000000000E+00  0.45593999997E+02  0.45594000000E+02  0.51100000000E-03 0.  1.
         11   -1    0    0    0    0 -0.00000000000E+00 -0.00000000000E+00 -0.45593999997E+02  0.45594000000E+02  0.51100000000E-03 0. -1.
    9900012    2    1    2    0    0  0.23562391465E+02 -0.18592535918E+02 -0.27428034948E+02  0.50528858536E+02  0.29999996007E+02 0.  0.
        -12    1    1    2    0    0 -0.23562391465E+02  0.18592535918E+02  0.27428034948E+02  0.40659141464E+02  0.00000000000E+00 0.  1.
         11    1    3    3    0    0  0.19258201784E+02 -0.96085093046E+01 -0.10630700506E+02  0.24004449182E+02  0.51100000000E-03 0. -1.
        -11    1    3    3    0    0 -0.26346929889E+01  0.38081450392E+01 -0.87372217013E+01  0.98885094481E+01  0.51100000000E-03 0.  1.
        -12    1    3    3    0    0  0.69388826700E+01 -0.12792171653E+02 -0.80601127406E+01  0.16635899907E+02  0.00000000000E+00 0.  1.
</event>
<event>
 7    1  0.9930326E-013  0.5052885E+02  0.7816164E-02  0.1300439E+00
        -11   -1    0    0    0    0  0.00000000000E+00  0.00000000000E+00  0.45593999997E+02  0.45594000000E+02  0.51100000000E-03 0.  1.
         11   -1    0    0    0    0 -0.00000000000E+00 -0.00000000000E+00 -0.45593999997E+02  0.45594000000E+02  0.51100000000E-03 0. -1.
    9900012    2    1    2    0    0  0.30457065389E+02  0.93858679720E+01 -0.25247557855E+02  0.50528849402E+02  0.29999968243E+02 0.  0.
        -12    1    1    2    0    0 -0.30457065389E+02 -0.93858679720E+01  0.25247557855E+02  0.40659150598E+02  0.00000000000E+00 0.  1.
         11    1    3    3    0    0  0.15689430482E+02 -0.47889835194E+01  0.16828062398E+01  0.16490131264E+02  0.51100000000E-03 0. -1.
        -11    1    3    3    0    0  0.13213905164E+02  0.11190635318E+02 -0.23879948051E+02  0.29497280005E+02  0.51100000000E-03 0.  1.
         12    1    3    3    0    0  0.15537297431E+01  0.29842161735E+01 -0.30504160430E+01  0.45414381335E+01  0.00000000000E+00 0. -1.
</event>
<event>
 7    1  0.9930326E-013  0.5052888E+02  0.7816164E-02  0.1300439E+00
        -11   -1    0    0    0    0  0.00000000000E+00  0.00000000000E+00  0.45593999997E+02  0.45594000000E+02  0.51100000000E-03 0. -1.
         11   -1    0    0    0    0 -0.00000000000E+00 -0.00000000000E+00 -0.45593999997E+02  0.45594000000E+02  0.51100000000E-03 0.  1.
    9900012    2    1    2    0    0 -0.39461134755E+02  0.97269809093E+01  0.11700363329E+01  0.50528876808E+02  0.30000051545E+02 0.  0.
        -12    1    1    2    0    0  0.39461134755E+02 -0.97269809093E+01 -0.11700363329E+01  0.40659123192E+02  0.00000000000E+00 0.  1.
         11    1    3    3    0    0 -0.28694234416E+02  0.10807500995E+02  0.42515999483E+01  0.30955407748E+02  0.51100000000E-03 0. -1.
        -11    1    3    3    0    0  0.36096079400E+01  0.10959836896E+01  0.18736149786E+01  0.42119927679E+01  0.51100000000E-03 0.  1.
        -12    1    3    3    0    0 -0.14376508278E+02 -0.21765037752E+01 -0.49551785940E+01  0.15361476292E+02  0.00000000000E+00 0.  1.
</event>
<event>
 7    1  0.9930326E-013  0.5052883E+02  0.7816164E-02  0.1300439E+00
        -11   -1    0    0    0    0  0.00000000000E+00  0.00000000000E+00  0.45593999997E+02  0.45594000000E+02  0.51100000000E-03 0.  1.
         11   -1    0    0    0    0 -0.00000000000E+00 -0.00000000000E+00 -0.45593999997E+02  0.45594000000E+02  0.51100000000E-03 0. -1.
    9900012    2    1    2    0    0  0.17161991003E+02  0.18050116124E+02 -0.32137631835E+02  0.50528831203E+02  0.29999912925E+02 0.  0.
        -12    1    1    2    0    0 -0.17161991003E+02 -0.18050116124E+02  0.32137631835E+02  0.40659168797E+02  0.00000000000E+00 0.  1.
         11    1    3    3    0    0  0.80061078202E+01  0.18490917567E+02 -0.99590348758E+01  0.22476524883E+02  0.51100000000E-03 0. -1.
        -11    1    3    3    0    0  0.97884509470E+01 -0.53143858062E+01 -0.10192379440E+02  0.15097717289E+02  0.51100000000E-03 0.  1.
        -12    1    3    3    0    0 -0.63256776463E+00  0.48735843629E+01 -0.11986217520E+02  0.12954589031E+02  0.00000000000E+00 0.  1.
</event>
<event>
 7    1  0.9930326E-013  0.5052887E+02  0.7816164E-02  0.1300439E+00
        -11   -1    0    0    0    0  0.00000000000E+00  0.00000000000E+00  0.45593999997E+02  0.45594000000E+02  0.51100000000E-03 0.  1.
         11   -1    0    0    0    0 -0.00000000000E+00 -0.00000000000E+00 -0.45593999997E+02  0.45594000000E+02  0.51100000000E-03 0. -1.
    9900012    2    1    2    0    0  0.16493857167E+02  0.37047371135E+00 -0.37161548122E+02  0.50528865309E+02  0.30000016593E+02 0.  0.
        -12    1    1    2    0    0 -0.16493857167E+02 -0.37047371135E+00  0.37161548122E+02  0.40659134691E+02  0.00000000000E+00 0.  1.
         11    1    3    3    0    0  0.94189829671E+01  0.24714810048E+01 -0.66046823343E+01  0.11766362543E+02  0.51100000000E-03 0. -1.
        -11    1    3    3    0    0  0.23753826078E+01 -0.12178473885E+02 -0.19264038509E+02  0.22914206262E+02  0.51100000000E-03 0.  1.
        -12    1    3    3    0    0  0.46994915920E+01  0.10077466592E+02 -0.11292827279E+02  0.15848296504E+02  0.00000000000E+00 0.  1.
</event>
<event>
 7    1  0.1267498E-012  0.5052888E+02  0.7816164E-02  0.1300439E+00
        -11   -1    0    0    0    0  0.00000000000E+00  0.00000000000E+00  0.45593999997E+02  0.45594000000E+02  0.51100000000E-03 0. -1.
         11   -1    0    0    0    0 -0.00000000000E+00 -0.00000000000E+00 -0.45593999997E+02  0.45594000000E+02  0.51100000000E-03 0.  1.
    9900012    2    1    2    0    0  0.15845818692E+02  0.20912991135E+02  0.31059954457E+02  0.50528881230E+02  0.30000064988E+02 0.  0.
        -12    1    1    2    0    0 -0.15845818692E+02 -0.20912991135E+02 -0.31059954457E+02  0.40659118770E+02  0.00000000000E+00 0.  1.
         11    1    3    3    0    0  0.82142089084E+01  0.12445661680E+02  0.26061231541E+02  0.30025914013E+02  0.51100000000E-03 0. -1.
        -11    1    3    3    0    0  0.44478546042E+01 -0.35528626622E+01 -0.22368465306E+01  0.61163491021E+01  0.51100000000E-03 0.  1.
         12    1    3    3    0    0  0.31837551795E+01  0.12020192116E+02  0.72355694474E+01  0.14386618115E+02  0.00000000000E+00 0. -1.
</event>
<event>
 7    1  0.9930326E-013  0.5052886E+02  0.7816164E-02  0.1300439E+00
        -11   -1    0    0    0    0  0.00000000000E+00  0.00000000000E+00  0.45593999997E+02  0.45594000000E+02  0.51100000000E-03 0.  1.
         11   -1    0    0    0    0 -0.00000000000E+00 -0.00000000000E+00 -0.45593999997E+02  0.45594000000E+02  0.51100000000E-03 0. -1.
    9900012    2    1    2    0    0  0.18668358655E+02 -0.31026721132E+02  0.18493257888E+02  0.50528860482E+02  0.30000001920E+02 0.  0.
        -12    1    1    2    0    0 -0.18668358655E+02  0.31026721132E+02 -0.18493257888E+02  0.40659139518E+02  0.00000000000E+00 0.  1.
         11    1    3    3    0    0  0.11116635657E+02 -0.31723815989E+02  0.23676337428E+02  0.41116286840E+02  0.51100000000E-03 0. -1.
        -11    1    3    3    0    0  0.27506069145E+01  0.92315079219E+00 -0.28605720224E+01  0.40744224548E+01  0.51100000000E-03 0.  1.
         12    1    3    3    0    0  0.48011160829E+01 -0.22605593533E+00 -0.23225075173E+01  0.53381511870E+01  0.00000000000E+00 0. -1.
</event>
<event>
 7    1  0.9930326E-013  0.5052886E+02  0.7816164E-02  0.1300439E+00
        -11   -1    0    0    0    0  0.00000000000E+00  0.00000000000E+00  0.45593999997E+02  0.45594000000E+02  0.51100000000E-03 0.  1.
         11   -1    0    0    0    0 -0.00000000000E+00 -0.00000000000E+00 -0.45593999997E+02  0.45594000000E+02  0.51100000000E-03 0. -1.
    9900012    2    1    2    0    0 -0.21787401805E+02 -0.19449267860E+02 -0.28287821483E+02  0.50528859061E+02  0.29999997600E+02 0.  0.
        -12    1    1    2    0    0  0.21787401805E+02  0.19449267860E+02  0.28287821483E+02  0.40659140939E+02  0.00000000000E+00 0.  1.
         11    1    3    3    0    0 -0.16587331070E+02 -0.26108984061E+02 -0.26339407278E+02  0.40627367337E+02  0.51100000000E-03 0. -1.
        -11    1    3    3    0    0 -0.20822869763E+01  0.37902695058E+01 -0.33153781402E+01  0.54492012674E+01  0.51100000000E-03 0.  1.
         12    1    3    3    0    0 -0.31177837593E+01  0.28694466953E+01  0.13669639355E+01  0.44522904564E+01  0.00000000000E+00 0. -1.
</event>
<event>
 7    1  0.9930326E-013  0.5052886E+02  0.7816164E-02  0.1300439E+00
        -11   -1    0    0    0    0  0.00000000000E+00  0.00000000000E+00  0.45593999997E+02  0.45594000000E+02  0.51100000000E-03 0. -1.
         11   -1    0    0    0    0 -0.00000000000E+00 -0.00000000000E+00 -0.45593999997E+02  0.45594000000E+02  0.51100000000E-03 0.  1.
    9900012    2    1    2    0    0 -0.66229892102E+01 -0.21493826008E+02  0.33872066180E+02  0.50528863144E+02  0.30000010014E+02 0.  0.
        -12    1    1    2    0    0  0.66229892102E+01  0.21493826008E+02 -0.33872066180E+02  0.40659136856E+02  0.00000000000E+00 0.  1.
         11    1    3    3    0    0  0.51551524447E+01 -0.22270378262E+02  0.22610406310E+02  0.32152384335E+02  0.51100000000E-03 0. -1.
        -11    1    3    3    0    0 -0.72709547767E+01  0.40528058536E+01  0.92704379483E+01  0.12459255141E+02  0.51100000000E-03 0.  1.
         12    1    3    3    0    0 -0.45071868782E+01 -0.32762536000E+01  0.19912219217E+01  0.59172236689E+01  0.00000000000E+00 0. -1.
</event>
<event>
 7    1  0.9930326E-013  0.5052886E+02  0.7816164E-02  0.1300439E+00
        -11   -1    0    0    0    0  0.00000000000E+00  0.00000000000E+00  0.45593999997E+02  0.45594000000E+02  0.51100000000E-03 0. -1.
         11   -1    0    0    0    0 -0.00000000000E+00 -0.00000000000E+00 -0.45593999997E+02  0.45594000000E+02  0.51100000000E-03 0.  1.
    9900012    2    1    2    0    0 -0.33364275745E+02 -0.21828057695E+02  0.79703729553E+01  0.50528857808E+02  0.29999993792E+02 0.  0.
        -12    1    1    2    0    0  0.33364275745E+02  0.21828057695E+02 -0.79703729553E+01  0.40659142192E+02  0.00000000000E+00 0.  1.
         11    1    3    3    0    0  0.22456249239E+01 -0.26075092134E+01 -0.56606089285E+01  0.66245323835E+01  0.51100000000E-03 0. -1.
        -11    1    3    3    0    0 -0.52901610565E+01 -0.75851429298E+01  0.34481452407E+01  0.98696455424E+01  0.51100000000E-03 0.  1.
         12    1    3    3    0    0 -0.30319739613E+02 -0.11635405552E+02  0.10182836643E+02  0.34034679882E+02  0.00000000000E+00 0. -1.
</event>
<event>
 7    1  0.9930326E-013  0.5052887E+02  0.7816164E-02  0.1300439E+00
        -11   -1    0    0    0    0  0.00000000000E+00  0.00000000000E+00  0.45593999997E+02  0.45594000000E+02  0.51100000000E-03 0. -1.
         11   -1    0    0    0    0 -0.00000000000E+00 -0.00000000000E+00 -0.45593999997E+02  0.45594000000E+02  0.51100000000E-03 0.  1.
    9900012    2    1    2    0    0  0.34512404214E+02  0.30841753218E+01  0.21273146182E+02  0.50528869039E+02  0.30000027930E+02 0.  0.
        -12    1    1    2    0    0 -0.34512404214E+02 -0.30841753218E+01 -0.21273146182E+02  0.40659130961E+02  0.00000000000E+00 0.  1.
         11    1    3    3    0    0  0.10395924138E+02 -0.93262207404E+01  0.46677657317E+01  0.14725544784E+02  0.51100000000E-03 0.  1.
        -11    1    3    3    0    0  0.21744082009E+02  0.74902918686E+01  0.58344998980E+01  0.23726587703E+02  0.51100000000E-03 0. -1.
         12    1    3    3    0    0  0.23723980660E+01  0.49201041936E+01  0.10770880553E+02  0.12076736552E+02  0.00000000000E+00 0. -1.
</event>
<event>
 7    1  0.9930326E-013  0.5052886E+02  0.7816164E-02  0.1300439E+00
        -11   -1    0    0    0    0  0.00000000000E+00  0.00000000000E+00  0.45593999997E+02  0.45594000000E+02  0.51100000000E-03 0. -1.
         11   -1    0    0    0    0 -0.00000000000E+00 -0.00000000000E+00 -0.45593999997E+02  0.45594000000E+02  0.51100000000E-03 0.  1.
    9900012    2    1    2    0    0 -0.18017703188E+02 -0.69221502345E+01  0.35785640113E+02  0.50528857974E+02  0.29999994298E+02 0.  0.
        -12    1    1    2    0    0  0.18017703188E+02  0.69221502345E+01 -0.35785640113E+02  0.40659142026E+02  0.00000000000E+00 0.  1.
         11    1    3    3    0    0 -0.13234134905E+02  0.73059827222E+01  0.29647553641E+02  0.33279079726E+02  0.51100000000E-03 0. -1.
        -11    1    3    3    0    0 -0.32983988300E+01 -0.49701830743E+01 -0.13829179750E+00  0.59666807788E+01  0.51100000000E-03 0.  1.
         12    1    3    3    0    0 -0.14851694524E+01 -0.92579498824E+01  0.62763782688E+01  0.11283097469E+02  0.00000000000E+00 0. -1.
</event>
<event>
 7    1  0.9930326E-013  0.5052888E+02  0.7816164E-02  0.1300439E+00
        -11   -1    0    0    0    0  0.00000000000E+00  0.00000000000E+00  0.45593999997E+02  0.45594000000E+02  0.51100000000E-03 0.  1.
         11   -1    0    0    0    0 -0.00000000000E+00 -0.00000000000E+00 -0.45593999997E+02  0.45594000000E+02  0.51100000000E-03 0. -1.
    9900012    2    1    2    0    0 -0.89793490188E+01 -0.22181815307E+02 -0.32870999291E+02  0.50528877610E+02  0.30000053984E+02 0.  0.
        -12    1    1    2    0    0  0.89793490188E+01  0.22181815307E+02  0.32870999291E+02  0.40659122390E+02  0.00000000000E+00 0.  1.
         11    1    3    3    0    0  0.48353567223E+01 -0.45830853953E+00 -0.12005421583E+02  0.12950709208E+02  0.51100000000E-03 0.  1.
        -11    1    3    3    0    0 -0.12796605594E+02 -0.24404510705E+02 -0.15819347883E+02  0.31773967728E+02  0.51100000000E-03 0. -1.
         12    1    3    3    0    0 -0.10181001471E+01  0.26810039372E+01 -0.50462298253E+01  0.58042006745E+01  0.00000000000E+00 0. -1.
</event>
<event>
 7    1  0.9930326E-013  0.5052886E+02  0.7816164E-02  0.1300439E+00
        -11   -1    0    0    0    0  0.00000000000E+00  0.00000000000E+00  0.45593999997E+02  0.45594000000E+02  0.51100000000E-03 0.  1.
         11   -1    0    0    0    0 -0.00000000000E+00 -0.00000000000E+00 -0.45593999997E+02  0.45594000000E+02  0.51100000000E-03 0. -1.
    9900012    2    1    2    0    0 -0.98776559523E+01 -0.37220146116E+02 -0.13048310237E+02  0.50528858788E+02  0.29999996773E+02 0.  0.
        -12    1    1    2    0    0  0.98776559523E+01  0.37220146116E+02  0.13048310237E+02  0.40659141212E+02  0.00000000000E+00 0.  1.
         11    1    3    3    0    0 -0.10304968072E+02 -0.35425614439E+02 -0.16581784539E+02  0.40449006219E+02  0.51100000000E-03 0. -1.
        -11    1    3    3    0    0  0.37049351641E+01 -0.35046649442E+01  0.20299086578E+00  0.51039618429E+01  0.51100000000E-03 0.  1.
         12    1    3    3    0    0 -0.32776230446E+01  0.17101332667E+01  0.33304834356E+01  0.49758907270E+01  0.00000000000E+00 0. -1.
</event>
<event>
 7    1  0.9930326E-013  0.5052886E+02  0.7816164E-02  0.1300439E+00
        -11   -1    0    0    0    0  0.00000000000E+00  0.00000000000E+00  0.45593999997E+02  0.45594000000E+02  0.51100000000E-03 0.  1.
         11   -1    0    0    0    0 -0.00000000000E+00 -0.00000000000E+00 -0.45593999997E+02  0.45594000000E+02  0.51100000000E-03 0. -1.
    9900012    2    1    2    0    0  0.10862539024E+02  0.38308566526E+02 -0.82234242719E+01  0.50528859206E+02  0.29999998042E+02 0.  0.
        -12    1    1    2    0    0 -0.10862539024E+02 -0.38308566526E+02  0.82234242719E+01  0.40659140794E+02  0.00000000000E+00 0.  1.
         11    1    3    3    0    0  0.21012493138E+01  0.31426171226E+02 -0.27378676674E+01  0.31615113573E+02  0.51100000000E-03 0. -1.
        -11    1    3    3    0    0  0.10339253646E+02  0.92369951732E+01 -0.13912659680E+01  0.13934054221E+02  0.51100000000E-03 0.  1.
         12    1    3    3    0    0 -0.15779639357E+01 -0.23545998725E+01 -0.40942906366E+01  0.49796914120E+01  0.00000000000E+00 0. -1.
</event>
<event>
 7    1  0.9930326E-013  0.5052886E+02  0.7816164E-02  0.1300439E+00
        -11   -1    0    0    0    0  0.00000000000E+00  0.00000000000E+00  0.45593999997E+02  0.45594000000E+02  0.51100000000E-03 0.  1.
         11   -1    0    0    0    0 -0.00000000000E+00 -0.00000000000E+00 -0.45593999997E+02  0.45594000000E+02  0.51100000000E-03 0. -1.
    9900012    2    1    2    0    0  0.28699191404E+00 -0.31661702874E+02 -0.25507251032E+02  0.50528860210E+02  0.30000001094E+02 0.  0.
        -12    1    1    2    0    0 -0.28699191404E+00  0.31661702874E+02  0.25507251032E+02  0.40659139790E+02  0.00000000000E+00 0.  1.
         11    1    3    3    0    0 -0.18267552202E+01 -0.17054053217E+02 -0.12562775703E+01  0.17197557948E+02  0.51100000000E-03 0. -1.
        -11    1    3    3    0    0  0.10244035686E+01  0.31593089983E+01 -0.99751659249E+01  0.10513542291E+02  0.51100000000E-03 0.  1.
        -12    1    3    3    0    0  0.10893435657E+01 -0.17766958655E+02 -0.14275807537E+02  0.22817759971E+02  0.00000000000E+00 0.  1.
</event>
<event>
 7    1  0.9930326E-013  0.5052886E+02  0.7816164E-02  0.1300439E+00
        -11   -1    0    0    0    0  0.00000000000E+00  0.00000000000E+00  0.45593999997E+02  0.45594000000E+02  0.51100000000E-03 0. -1.
         11   -1    0    0    0    0 -0.00000000000E+00 -0.00000000000E+00 -0.45593999997E+02  0.45594000000E+02  0.51100000000E-03 0.  1.
    9900012    2    1    2    0    0 -0.57712807165E+01 -0.32585097607E+02  0.23623489588E+02  0.50528861698E+02  0.30000005618E+02 0.  0.
        -12    1    1    2    0    0  0.57712807165E+01  0.32585097607E+02 -0.23623489588E+02  0.40659138302E+02  0.00000000000E+00 0.  1.
         11    1    3    3    0    0 -0.86886651196E+00 -0.76439580114E+00  0.13056746512E+02  0.13107931175E+02  0.51100000000E-03 0. -1.
        -11    1    3    3    0    0 -0.46019426359E+01 -0.21751398942E+02 -0.78133260123E+00  0.22246611267E+02  0.51100000000E-03 0.  1.
        -12    1    3    3    0    0 -0.30047156858E+00 -0.10069302863E+02  0.11348075677E+02  0.15174319256E+02  0.00000000000E+00 0.  1.
</event>
<event>
 7    1  0.9930326E-013  0.5052883E+02  0.7816164E-02  0.1300439E+00
        -11   -1    0    0    0    0  0.00000000000E+00  0.00000000000E+00  0.45593999997E+02  0.45594000000E+02  0.51100000000E-03 0.  1.
         11   -1    0    0    0    0 -0.00000000000E+00 -0.00000000000E+00 -0.45593999997E+02  0.45594000000E+02  0.51100000000E-03 0. -1.
    9900012    2    1    2    0    0  0.22373596079E+01  0.30695461955E+02 -0.26569738225E+02  0.50528829423E+02  0.29999907515E+02 0.  0.
        -12    1    1    2    0    0 -0.22373596079E+01 -0.30695461955E+02  0.26569738225E+02  0.40659170577E+02  0.00000000000E+00 0.  1.
         11    1    3    3    0    0  0.55903953087E+01  0.27203100865E+02 -0.24810919532E+02  0.37240340287E+02  0.51100000000E-03 0. -1.
        -11    1    3    3    0    0 -0.73795062920E+01  0.29783475597E+00 -0.30475728822E+01  0.79895881864E+01  0.51100000000E-03 0.  1.
         12    1    3    3    0    0  0.40264705911E+01  0.31945263340E+01  0.12887541895E+01  0.52989009502E+01  0.00000000000E+00 0. -1.
</event>
<event>
 7    1  0.9930326E-013  0.5052886E+02  0.7816164E-02  0.1300439E+00
        -11   -1    0    0    0    0  0.00000000000E+00  0.00000000000E+00  0.45593999997E+02  0.45594000000E+02  0.51100000000E-03 0. -1.
         11   -1    0    0    0    0 -0.00000000000E+00 -0.00000000000E+00 -0.45593999997E+02  0.45594000000E+02  0.51100000000E-03 0.  1.
    9900012    2    1    2    0    0  0.21615439370E+02  0.43981406146E+01  0.34155454068E+02  0.50528857085E+02  0.29999991596E+02 0.  0.
        -12    1    1    2    0    0 -0.21615439370E+02 -0.43981406146E+01 -0.34155454068E+02  0.40659142915E+02  0.00000000000E+00 0.  1.
         11    1    3    3    0    0  0.80122094135E+01 -0.55946423015E+01  0.25488118714E+02  0.27297247444E+02  0.51100000000E-03 0. -1.
        -11    1    3    3    0    0  0.45069445589E+01  0.98553520322E+01  0.25356084167E+00  0.10839963390E+02  0.51100000000E-03 0.  1.
         12    1    3    3    0    0  0.90962853973E+01  0.13743088389E+00  0.84137745122E+01  0.12391646251E+02  0.00000000000E+00 0. -1.
</event>
<event>
 7    1  0.9930326E-013  0.5052888E+02  0.7816164E-02  0.1300439E+00
        -11   -1    0    0    0    0  0.00000000000E+00  0.00000000000E+00  0.45593999997E+02  0.45594000000E+02  0.51100000000E-03 0.  1.
         11   -1    0    0    0    0 -0.00000000000E+00 -0.00000000000E+00 -0.45593999997E+02  0.45594000000E+02  0.51100000000E-03 0. -1.
    9900012    2    1    2    0    0  0.39202049763E+02  0.10638847577E+02 -0.17828588700E+01  0.50528875942E+02  0.30000048913E+02 0.  0.
        -12    1    1    2    0    0 -0.39202049763E+02 -0.10638847577E+02  0.17828588700E+01  0.40659124058E+02  0.00000000000E+00 0.  1.
         11    1    3    3    0    0  0.31935390414E+01  0.11117657009E+01 -0.56697794408E+00  0.34287284572E+01  0.51100000000E-03 0. -1.
        -11    1    3    3    0    0  0.24666868711E+02  0.14906177846E+02 -0.11341951946E+02  0.30972381636E+02  0.51100000000E-03 0.  1.
        -12    1    3    3    0    0  0.11341642011E+02 -0.53790959700E+01  0.10126071020E+02  0.16127765849E+02  0.00000000000E+00 0.  1.
</event>
<event>
 7    1  0.9930326E-013  0.5052886E+02  0.7816164E-02  0.1300439E+00
        -11   -1    0    0    0    0  0.00000000000E+00  0.00000000000E+00  0.45593999997E+02  0.45594000000E+02  0.51100000000E-03 0.  1.
         11   -1    0    0    0    0 -0.00000000000E+00 -0.00000000000E+00 -0.45593999997E+02  0.45594000000E+02  0.51100000000E-03 0. -1.
    9900012    2    1    2    0    0 -0.18326724995E+02  0.13562892454E+02 -0.33665181963E+02  0.50528863543E+02  0.30000011226E+02 0.  0.
        -12    1    1    2    0    0  0.18326724995E+02 -0.13562892454E+02  0.33665181963E+02  0.40659136457E+02  0.00000000000E+00 0.  1.
         11    1    3    3    0    0  0.32828493349E+01 -0.13917441873E+01 -0.85593975773E+01  0.92723966042E+01  0.51100000000E-03 0. -1.
        -11    1    3    3    0    0 -0.12373237835E+02  0.18167711053E+02 -0.12447644738E+02  0.25260771944E+02  0.51100000000E-03 0.  1.
        -12    1    3    3    0    0 -0.92363364951E+01 -0.32130744117E+01 -0.12658139648E+02  0.15995694995E+02  0.00000000000E+00 0.  1.
</event>
<event>
 7    1  0.9930326E-013  0.5052884E+02  0.7816164E-02  0.1300439E+00
        -11   -1    0    0    0    0  0.00000000000E+00  0.00000000000E+00  0.45593999997E+02  0.45594000000E+02  0.51100000000E-03 0.  1.
         11   -1    0    0    0    0 -0.00000000000E+00 -0.00000000000E+00 -0.45593999997E+02  0.45594000000E+02  0.51100000000E-03 0. -1.
    9900012    2    1    2    0    0  0.12614190689E+02 -0.37903555646E+02  0.75743157211E+01  0.50528836260E+02  0.29999928296E+02 0.  0.
        -12    1    1    2    0    0 -0.12614190689E+02  0.37903555646E+02 -0.75743157211E+01  0.40659163740E+02  0.00000000000E+00 0.  1.
         11    1    3    3    0    0  0.58671765547E+01 -0.26709344785E+02  0.15847656025E+02  0.31606345270E+02  0.51100000000E-03 0. -1.
        -11    1    3    3    0    0  0.14537605632E+01 -0.83747708045E+01 -0.95562122559E+01  0.12789503460E+02  0.51100000000E-03 0.  1.
         12    1    3    3    0    0  0.52932535714E+01 -0.28194400566E+01  0.12828719521E+01  0.61329875305E+01  0.00000000000E+00 0. -1.
</event>
<event>
 7    1  0.9930326E-013  0.5052881E+02  0.7816164E-02  0.1300439E+00
        -11   -1    0    0    0    0  0.00000000000E+00  0.00000000000E+00  0.45593999997E+02  0.45594000000E+02  0.51100000000E-03 0.  1.
         11   -1    0    0    0    0 -0.00000000000E+00 -0.00000000000E+00 -0.45593999997E+02  0.45594000000E+02  0.51100000000E-03 0. -1.
    9900012    2    1    2    0    0 -0.49641876916E+01 -0.71854288248E+01 -0.39710150737E+02  0.50528811390E+02  0.29999852701E+02 0.  0.
        -12    1    1    2    0    0  0.49641876916E+01  0.71854288248E+01  0.39710150737E+02  0.40659188610E+02  0.00000000000E+00 0.  1.
         11    1    3    3    0    0 -0.65650876409E+01  0.54676848934E+01 -0.34269917235E+02  0.35318878541E+02  0.51100000000E-03 0. -1.
        -11    1    3    3    0    0  0.20406770172E+01 -0.64554013750E+00 -0.38741977483E+00  0.21751273757E+01  0.51100000000E-03 0.  1.
         12    1    3    3    0    0 -0.43977706790E+00 -0.12007573581E+02 -0.50528137275E+01  0.13034805473E+02  0.00000000000E+00 0. -1.
</event>
<event>
 7    1  0.9930326E-013  0.5052886E+02  0.7816164E-02  0.1300439E+00
        -11   -1    0    0    0    0  0.00000000000E+00  0.00000000000E+00  0.45593999997E+02  0.45594000000E+02  0.51100000000E-03 0. -1.
         11   -1    0    0    0    0 -0.00000000000E+00 -0.00000000000E+00 -0.45593999997E+02  0.45594000000E+02  0.51100000000E-03 0.  1.
    9900012    2    1    2    0    0 -0.34251493785E+02  0.48499287026E+01  0.21365360775E+02  0.50528864790E+02  0.30000015017E+02 0.  0.
        -12    1    1    2    0    0  0.34251493785E+02 -0.48499287026E+01 -0.21365360775E+02  0.40659135210E+02  0.00000000000E+00 0.  1.
         11    1    3    3    0    0 -0.29486619589E+02  0.49906315563E+01  0.16828192295E+02  0.34315524100E+02  0.51100000000E-03 0. -1.
        -11    1    3    3    0    0  0.16983744699E+01 -0.99821520141E+00 -0.45910118336E+01  0.49958281941E+01  0.51100000000E-03 0.  1.
        -12    1    3    3    0    0 -0.64632486665E+01  0.85751234771E+00  0.91281803140E+01  0.11217512496E+02  0.00000000000E+00 0.  1.
</event>
<event>
 7    1  0.9930326E-013  0.5052897E+02  0.7816164E-02  0.1300438E+00
        -11   -1    0    0    0    0  0.00000000000E+00  0.00000000000E+00  0.45593999997E+02  0.45594000000E+02  0.51100000000E-03 0.  1.
         11   -1    0    0    0    0 -0.00000000000E+00 -0.00000000000E+00 -0.45593999997E+02  0.45594000000E+02  0.51100000000E-03 0. -1.
    9900012    2    1    2    0    0  0.27294903301E+00 -0.39839676896E+02  0.81167821361E+01  0.50528972606E+02  0.30000342731E+02 0.  0.
        -12    1    1    2    0    0 -0.27294903301E+00  0.39839676896E+02 -0.81167821361E+01  0.40659027394E+02  0.00000000000E+00 0.  1.
         11    1    3    3    0    0  0.41904220576E+01  0.56669852147E+00 -0.54991163451E+01  0.69369348471E+01  0.51100000000E-03 0. -1.
        -11    1    3    3    0    0 -0.38651276413E+01 -0.21883663194E+02  0.35290350587E+01  0.22500844766E+02  0.51100000000E-03 0.  1.
         12    1    3    3    0    0 -0.52345383335E-01 -0.18522712224E+02  0.10086863423E+02  0.21091192993E+02  0.00000000000E+00 0. -1.
</event>
<event>
 7    1  0.9930326E-013  0.5052887E+02  0.7816164E-02  0.1300439E+00
        -11   -1    0    0    0    0  0.00000000000E+00  0.00000000000E+00  0.45593999997E+02  0.45594000000E+02  0.51100000000E-03 0.  1.
         11   -1    0    0    0    0 -0.00000000000E+00 -0.00000000000E+00 -0.45593999997E+02  0.45594000000E+02  0.51100000000E-03 0. -1.
    9900012    2    1    2    0    0  0.16661750566E+02  0.34643099601E+02 -0.13244129852E+02  0.50528865019E+02  0.30000015713E+02 0.  0.
        -12    1    1    2    0    0 -0.16661750566E+02 -0.34643099601E+02  0.13244129852E+02  0.40659134981E+02  0.00000000000E+00 0.  1.
         11    1    3    3    0    0  0.82348421200E+01  0.65196006423E+01  0.53729559631E+01  0.11797731702E+02  0.51100000000E-03 0.  1.
        -11    1    3    3    0    0  0.11108576593E+02  0.27884755917E+02 -0.19618453266E+02  0.35858664159E+02  0.51100000000E-03 0. -1.
         12    1    3    3    0    0 -0.26816681469E+01  0.23874304093E+00  0.10013674510E+01  0.28724691576E+01  0.00000000000E+00 0. -1.
</event>
<event>
 7    1  0.9930326E-013  0.5052883E+02  0.7816164E-02  0.1300439E+00
        -11   -1    0    0    0    0  0.00000000000E+00  0.00000000000E+00  0.45593999997E+02  0.45594000000E+02  0.51100000000E-03 0. -1.
         11   -1    0    0    0    0 -0.00000000000E+00 -0.00000000000E+00 -0.45593999997E+02  0.45594000000E+02  0.51100000000E-03 0.  1.
    9900012    2    1    2    0    0 -0.82014449770E+01 -0.26357299265E+02  0.29852930218E+02  0.50528826781E+02  0.29999899483E+02 0.  0.
        -12    1    1    2    0    0  0.82014449770E+01  0.26357299265E+02 -0.29852930218E+02  0.40659173219E+02  0.00000000000E+00 0.  1.
         11    1    3    3    0    0  0.39553521904E+01 -0.66341825691E+01  0.18245938949E+02  0.19813416609E+02  0.51100000000E-03 0. -1.
        -11    1    3    3    0    0 -0.11545967949E+02 -0.22645828500E+02  0.99238757815E+01  0.27287840426E+02  0.51100000000E-03 0.  1.
         12    1    3    3    0    0 -0.61082921865E+00  0.29227118038E+01  0.16831154870E+01  0.34275697462E+01  0.00000000000E+00 0. -1.
</event>
<event>
 7    1  0.9930326E-013  0.5052885E+02  0.7816164E-02  0.1300439E+00
        -11   -1    0    0    0    0  0.00000000000E+00  0.00000000000E+00  0.45593999997E+02  0.45594000000E+02  0.51100000000E-03 0.  1.
         11   -1    0    0    0    0 -0.00000000000E+00 -0.00000000000E+00 -0.45593999997E+02  0.45594000000E+02  0.51100000000E-03 0. -1.
    9900012    2    1    2    0    0 -0.14677406275E+02  0.34801371909E+02 -0.15053403949E+02  0.50528847130E+02  0.29999961335E+02 0.  0.
        -12    1    1    2    0    0  0.14677406275E+02 -0.34801371909E+02  0.15053403949E+02  0.40659152870E+02  0.00000000000E+00 0.  1.
         11    1    3    3    0    0 -0.65042344140E+01  0.12534495658E+02 -0.16287504562E+02  0.21556935121E+02  0.51100000000E-03 0. -1.
        -11    1    3    3    0    0 -0.98825997022E+01  0.87027775866E+01  0.60306129696E+01  0.14483521935E+02  0.51100000000E-03 0.  1.
        -12    1    3    3    0    0  0.17094278414E+01  0.13564098665E+02 -0.47965123567E+01  0.14488390074E+02  0.00000000000E+00 0.  1.
</event>
<event>
 7    1  0.9930326E-013  0.5052886E+02  0.7816164E-02  0.1300439E+00
        -11   -1    0    0    0    0  0.00000000000E+00  0.00000000000E+00  0.45593999997E+02  0.45594000000E+02  0.51100000000E-03 0.  1.
         11   -1    0    0    0    0 -0.00000000000E+00 -0.00000000000E+00 -0.45593999997E+02  0.45594000000E+02  0.51100000000E-03 0. -1.
    9900012    2    1    2    0    0 -0.16052258018E+02 -0.34613800934E+02  0.14049033842E+02  0.50528861366E+02  0.30000004609E+02 0.  0.
        -12    1    1    2    0    0  0.16052258018E+02  0.34613800934E+02 -0.14049033842E+02  0.40659138634E+02  0.00000000000E+00 0.  1.
         11    1    3    3    0    0 -0.13837225865E+02 -0.28246719487E+02  0.19527440823E+02  0.37022519185E+02  0.51100000000E-03 0. -1.
        -11    1    3    3    0    0  0.40629288645E+01 -0.14118057989E+01 -0.13652779853E+01  0.45127121347E+01  0.51100000000E-03 0.  1.
         12    1    3    3    0    0 -0.62779610175E+01 -0.49552756480E+01 -0.41131289960E+01  0.89936300470E+01  0.00000000000E+00 0. -1.
</event>
<event>
 7    1  0.9930326E-013  0.5052886E+02  0.7816164E-02  0.1300439E+00
        -11   -1    0    0    0    0  0.00000000000E+00  0.00000000000E+00  0.45593999997E+02  0.45594000000E+02  0.51100000000E-03 0.  1.
         11   -1    0    0    0    0 -0.00000000000E+00 -0.00000000000E+00 -0.45593999997E+02  0.45594000000E+02  0.51100000000E-03 0. -1.
    9900012    2    1    2    0    0  0.35201385664E+02 -0.47349311302E+01 -0.19789106045E+02  0.50528857811E+02  0.29999993802E+02 0.  0.
        -12    1    1    2    0    0 -0.35201385664E+02  0.47349311302E+01  0.19789106045E+02  0.40659142189E+02  0.00000000000E+00 0.  1.
         11    1    3    3    0    0  0.20383935939E+02 -0.71004270517E+01 -0.89619762212E+01  0.23371733498E+02  0.51100000000E-03 0. -1.
        -11    1    3    3    0    0  0.22700579162E+01  0.34011721114E+00 -0.13894165880E+02  0.14082495816E+02  0.51100000000E-03 0.  1.
         12    1    3    3    0    0  0.12547391810E+02  0.20253787104E+01  0.30670360562E+01  0.13074628496E+02  0.00000000000E+00 0. -1.
</event>
<event>
 7    1  0.9930326E-013  0.5052886E+02  0.7816164E-02  0.1300439E+00
        -11   -1    0    0    0    0  0.00000000000E+00  0.00000000000E+00  0.45593999997E+02  0.45594000000E+02  0.51100000000E-03 0.  1.
         11   -1    0    0    0    0 -0.00000000000E+00 -0.00000000000E+00 -0.45593999997E+02  0.45594000000E+02  0.51100000000E-03 0. -1.
    9900012    2    1    2    0    0  0.22486475145E+02 -0.28840737667E+02 -0.17768952924E+02  0.50528863246E+02  0.30000010321E+02 0.  0.
        -12    1    1    2    0    0 -0.22486475145E+02  0.28840737667E+02  0.17768952924E+02  0.40659136754E+02  0.00000000000E+00 0.  1.
         11    1    3    3    0    0  0.11040236856E+02 -0.24101858631E+02 -0.17551943718E+02  0.31793979742E+02  0.51100000000E-03 0. -1.
        -11    1    3    3    0    0  0.13785824439E+02 -0.64244664109E+01  0.16517617399E+01  0.15298726784E+02  0.51100000000E-03 0.  1.
         12    1    3    3    0    0 -0.23395861500E+01  0.16855873747E+01 -0.18687709451E+01  0.34361567188E+01  0.00000000000E+00 0. -1.
</event>
<event>
 7    1  0.9930326E-013  0.5052886E+02  0.7816164E-02  0.1300439E+00
        -11   -1    0    0    0    0  0.00000000000E+00  0.00000000000E+00  0.45593999997E+02  0.45594000000E+02  0.51100000000E-03 0.  1.
         11   -1    0    0    0    0 -0.00000000000E+00 -0.00000000000E+00 -0.45593999997E+02  0.45594000000E+02  0.51100000000E-03 0. -1.
    9900012    2    1    2    0    0  0.22068015427E+02 -0.30873782213E+02 -0.14593768524E+02  0.50528858189E+02  0.29999994953E+02 0.  0.
        -12    1    1    2    0    0 -0.22068015427E+02  0.30873782213E+02  0.14593768524E+02  0.40659141811E+02  0.00000000000E+00 0.  1.
         11    1    3    3    0    0  0.83037280609E+01 -0.10081317883E+02 -0.15296620084E+01  0.13150085022E+02  0.51100000000E-03 0. -1.
        -11    1    3    3    0    0 -0.29611964023E+01 -0.14579256033E+02 -0.12655828887E+02  0.19531855920E+02  0.51100000000E-03 0.  1.
        -12    1    3    3    0    0  0.16725483768E+02 -0.62132082984E+01 -0.40827762881E+00  0.17846917248E+02  0.00000000000E+00 0.  1.
</event>
<event>
 7    1  0.9930326E-013  0.5052886E+02  0.7816164E-02  0.1300439E+00
        -11   -1    0    0    0    0  0.00000000000E+00  0.00000000000E+00  0.45593999997E+02  0.45594000000E+02  0.51100000000E-03 0.  1.
         11   -1    0    0    0    0 -0.00000000000E+00 -0.00000000000E+00 -0.45593999997E+02  0.45594000000E+02  0.51100000000E-03 0. -1.
    9900012    2    1    2    0    0 -0.40124006429E+02 -0.63044031123E+01 -0.18665759976E+01  0.50528862079E+02  0.30000006775E+02 0.  0.
        -12    1    1    2    0    0  0.40124006429E+02  0.63044031123E+01  0.18665759976E+01  0.40659137921E+02  0.00000000000E+00 0.  1.
         11    1    3    3    0    0 -0.25292252305E+02 -0.27961469734E+01 -0.11224249278E+02  0.27811872225E+02  0.51100000000E-03 0. -1.
        -11    1    3    3    0    0  0.23567793550E+01  0.85236288557E+00  0.29284488189E+01  0.38544447282E+01  0.51100000000E-03 0.  1.
         12    1    3    3    0    0 -0.17188533479E+02 -0.43606190245E+01  0.64292244612E+01  0.18862545125E+02  0.00000000000E+00 0. -1.
</event>
<event>
 7    1  0.9930326E-013  0.5052886E+02  0.7816164E-02  0.1300439E+00
        -11   -1    0    0    0    0  0.00000000000E+00  0.00000000000E+00  0.45593999997E+02  0.45594000000E+02  0.51100000000E-03 0. -1.
         11   -1    0    0    0    0 -0.00000000000E+00 -0.00000000000E+00 -0.45593999997E+02  0.45594000000E+02  0.51100000000E-03 0.  1.
    9900012    2    1    2    0    0 -0.10712586322E+02 -0.25064469366E+02  0.30169166107E+02  0.50528859406E+02  0.29999998649E+02 0.  0.
        -12    1    1    2    0    0  0.10712586322E+02  0.25064469366E+02 -0.30169166107E+02  0.40659140594E+02  0.00000000000E+00 0.  1.
         11    1    3    3    0    0 -0.17555731644E+01  0.38225435964E+01 -0.11000513908E+01  0.43478718938E+01  0.51100000000E-03 0. -1.
        -11    1    3    3    0    0 -0.92169750907E+01 -0.13851865529E+02  0.79649992332E+01  0.18446355236E+02  0.51100000000E-03 0.  1.
         12    1    3    3    0    0  0.25996193298E+00 -0.15035147433E+02  0.23304218264E+02  0.27734632275E+02  0.00000000000E+00 0. -1.
</event>
<event>
 7    1  0.9930326E-013  0.5052875E+02  0.7816164E-02  0.1300439E+00
        -11   -1    0    0    0    0  0.00000000000E+00  0.00000000000E+00  0.45593999997E+02  0.45594000000E+02  0.51100000000E-03 0.  1.
         11   -1    0    0    0    0 -0.00000000000E+00 -0.00000000000E+00 -0.45593999997E+02  0.45594000000E+02  0.51100000000E-03 0. -1.
    9900012    2    1    2    0    0  0.14199349058E+02  0.18425446847E+02 -0.33347508474E+02  0.50528746114E+02  0.29999654286E+02 0.  0.
        -12    1    1    2    0    0 -0.14199349058E+02 -0.18425446847E+02  0.33347508474E+02  0.40659253886E+02  0.00000000000E+00 0.  1.
         11    1    3    3    0    0  0.12833066561E+02  0.16228225274E+02 -0.38874003658E+02  0.44036701211E+02  0.51100000000E-03 0. -1.
        -11    1    3    3    0    0 -0.10748150520E+00  0.16620724856E+01  0.18173291479E+01  0.24651009542E+01  0.51100000000E-03 0.  1.
         12    1    3    3    0    0  0.14737640030E+01  0.53514908700E+00  0.37091660363E+01  0.40269439487E+01  0.00000000000E+00 0. -1.
</event>
<event>
 7    1  0.9930326E-013  0.5052886E+02  0.7816164E-02  0.1300439E+00
        -11   -1    0    0    0    0  0.00000000000E+00  0.00000000000E+00  0.45593999997E+02  0.45594000000E+02  0.51100000000E-03 0. -1.
         11   -1    0    0    0    0 -0.00000000000E+00 -0.00000000000E+00 -0.45593999997E+02  0.45594000000E+02  0.51100000000E-03 0.  1.
    9900012    2    1    2    0    0  0.23278138424E+02  0.32947593663E+02 -0.50744112136E+01  0.50528864424E+02  0.30000013903E+02 0.  0.
        -12    1    1    2    0    0 -0.23278138424E+02 -0.32947593663E+02  0.50744112136E+01  0.40659135576E+02  0.00000000000E+00 0.  1.
         11    1    3    3    0    0  0.61655302436E+01  0.74199269343E+01  0.32388018246E+01  0.10176390147E+02  0.51100000000E-03 0. -1.
        -11    1    3    3    0    0  0.11232905441E+02  0.25700976342E+01 -0.11689936724E+02  0.16414572409E+02  0.51100000000E-03 0.  1.
        -12    1    3    3    0    0  0.58797027394E+01  0.22957569094E+02  0.33767236857E+01  0.23937901869E+02  0.00000000000E+00 0.  1.
</event>
<event>
 7    1  0.9930326E-013  0.5052884E+02  0.7816164E-02  0.1300439E+00
        -11   -1    0    0    0    0  0.00000000000E+00  0.00000000000E+00  0.45593999997E+02  0.45594000000E+02  0.51100000000E-03 0.  1.
         11   -1    0    0    0    0 -0.00000000000E+00 -0.00000000000E+00 -0.45593999997E+02  0.45594000000E+02  0.51100000000E-03 0. -1.
    9900012    2    1    2    0    0  0.30946008375E+02 -0.19786520527E+02 -0.17435753984E+02  0.50528839336E+02  0.29999937646E+02 0.  0.
        -12    1    1    2    0    0 -0.30946008375E+02  0.19786520527E+02  0.17435753984E+02  0.40659160664E+02  0.00000000000E+00 0.  1.
         11    1    3    3    0    0  0.47880607802E+01  0.38677749950E+01 -0.10253659666E+02  0.11959211774E+02  0.51100000000E-03 0. -1.
        -11    1    3    3    0    0  0.26214207224E+02 -0.24889966360E+02 -0.56285915248E+01  0.36583823318E+02  0.51100000000E-03 0.  1.
        -12    1    3    3    0    0 -0.56259629246E-01  0.12356708380E+01 -0.15535027935E+01  0.19858042439E+01  0.00000000000E+00 0.  1.
</event>
<event>
 7    1  0.9930326E-013  0.5052888E+02  0.7816164E-02  0.1300439E+00
        -11   -1    0    0    0    0  0.00000000000E+00  0.00000000000E+00  0.45593999997E+02  0.45594000000E+02  0.51100000000E-03 0. -1.
         11   -1    0    0    0    0 -0.00000000000E+00 -0.00000000000E+00 -0.45593999997E+02  0.45594000000E+02  0.51100000000E-03 0.  1.
    9900012    2    1    2    0    0 -0.22128424954E+02  0.11035402419E+02  0.32275635547E+02  0.50528881127E+02  0.30000064674E+02 0.  0.
        -12    1    1    2    0    0  0.22128424954E+02 -0.11035402419E+02 -0.32275635547E+02  0.40659118873E+02  0.00000000000E+00 0.  1.
         11    1    3    3    0    0  0.16241741703E+01  0.63908727473E+01  0.17682474810E+02  0.18871966296E+02  0.51100000000E-03 0. -1.
        -11    1    3    3    0    0 -0.18199447576E+02  0.95402927730E+01  0.12094384068E+02  0.23843472996E+02  0.51100000000E-03 0.  1.
        -12    1    3    3    0    0 -0.55531515488E+01 -0.48957631013E+01  0.24987766687E+01  0.78134418349E+01  0.00000000000E+00 0.  1.
</event>
<event>
 7    1  0.9930326E-013  0.5052886E+02  0.7816164E-02  0.1300439E+00
        -11   -1    0    0    0    0  0.00000000000E+00  0.00000000000E+00  0.45593999997E+02  0.45594000000E+02  0.51100000000E-03 0.  1.
         11   -1    0    0    0    0 -0.00000000000E+00 -0.00000000000E+00 -0.45593999997E+02  0.45594000000E+02  0.51100000000E-03 0. -1.
    9900012    2    1    2    0    0  0.26225759230E+02  0.53776839875E+00 -0.31065834800E+02  0.50528859160E+02  0.29999997902E+02 0.  0.
        -12    1    1    2    0    0 -0.26225759230E+02 -0.53776839875E+00  0.31065834800E+02  0.40659140840E+02  0.00000000000E+00 0.  1.
         11    1    3    3    0    0  0.90894050244E+01  0.93244353118E+01 -0.99116539032E+01  0.16364695565E+02  0.51100000000E-03 0. -1.
        -11    1    3    3    0    0 -0.29412279460E+01 -0.50015388880E+01 -0.19416210103E+01  0.61185051677E+01  0.51100000000E-03 0.  1.
        -12    1    3    3    0    0  0.20077582151E+02 -0.37851280251E+01 -0.19212559887E+02  0.28045658427E+02  0.00000000000E+00 0.  1.
</event>
<event>
 7    1  0.9930326E-013  0.5052885E+02  0.7816164E-02  0.1300439E+00
        -11   -1    0    0    0    0  0.00000000000E+00  0.00000000000E+00  0.45593999997E+02  0.45594000000E+02  0.51100000000E-03 0.  1.
         11   -1    0    0    0    0 -0.00000000000E+00 -0.00000000000E+00 -0.45593999997E+02  0.45594000000E+02  0.51100000000E-03 0. -1.
    9900012    2    1    2    0    0  0.20651859155E+01 -0.11322872701E+02 -0.38996072901E+02  0.50528854156E+02  0.29999982693E+02 0.  0.
        -12    1    1    2    0    0 -0.20651859155E+01  0.11322872701E+02  0.38996072901E+02  0.40659145844E+02  0.00000000000E+00 0.  1.
         11    1    3    3    0    0  0.93475633718E+00 -0.19741884753E+01 -0.18526610093E+02  0.18654931555E+02  0.51100000000E-03 0. -1.
        -11    1    3    3    0    0  0.10739652136E+02 -0.67918097492E+01 -0.53716082681E+01  0.13795759614E+02  0.51100000000E-03 0.  1.
        -12    1    3    3    0    0 -0.96092225581E+01 -0.25568744767E+01 -0.15097854540E+02  0.18078162987E+02  0.00000000000E+00 0.  1.
</event>
<event>
 7    1  0.9930326E-013  0.5052886E+02  0.7816164E-02  0.1300439E+00
        -11   -1    0    0    0    0  0.00000000000E+00  0.00000000000E+00  0.45593999997E+02  0.45594000000E+02  0.51100000000E-03 0.  1.
         11   -1    0    0    0    0 -0.00000000000E+00 -0.00000000000E+00 -0.45593999997E+02  0.45594000000E+02  0.51100000000E-03 0. -1.
    9900012    2    1    2    0    0  0.28045707892E+02 -0.13232004229E+02 -0.26296729997E+02  0.50528859876E+02  0.30000000080E+02 0.  0.
        -12    1    1    2    0    0 -0.28045707892E+02  0.13232004229E+02  0.26296729997E+02  0.40659140124E+02  0.00000000000E+00 0.  1.
         11    1    3    3    0    0  0.20982463416E+02 -0.80210167956E+01 -0.99258748941E+01  0.24558572314E+02  0.51100000000E-03 0. -1.
        -11    1    3    3    0    0 -0.40279382708E+00  0.52619746569E+01 -0.10665856604E+02  0.11900046955E+02  0.51100000000E-03 0.  1.
        -12    1    3    3    0    0  0.74660383032E+01 -0.10472962090E+02 -0.57049984983E+01  0.14070240607E+02  0.00000000000E+00 0.  1.
</event>
<event>
 7    1  0.9930326E-013  0.5052886E+02  0.7816164E-02  0.1300439E+00
        -11   -1    0    0    0    0  0.00000000000E+00  0.00000000000E+00  0.45593999997E+02  0.45594000000E+02  0.51100000000E-03 0. -1.
         11   -1    0    0    0    0 -0.00000000000E+00 -0.00000000000E+00 -0.45593999997E+02  0.45594000000E+02  0.51100000000E-03 0.  1.
    9900012    2    1    2    0    0  0.23425954075E+01  0.40591449165E+02  0.11040883469E+00  0.50528859716E+02  0.29999999592E+02 0.  0.
        -12    1    1    2    0    0 -0.23425954075E+01 -0.40591449165E+02 -0.11040883469E+00  0.40659140284E+02  0.00000000000E+00 0.  1.
         11    1    3    3    0    0 -0.59235570795E+01  0.14889822782E+02 -0.21380562088E+01  0.16166837525E+02  0.51100000000E-03 0. -1.
        -11    1    3    3    0    0  0.78200157293E+01  0.61746755779E-01 -0.26451717313E+01  0.82555067935E+01  0.51100000000E-03 0.  1.
        -12    1    3    3    0    0  0.44613675764E+00  0.25639879627E+02  0.48936367749E+01  0.26106515397E+02  0.00000000000E+00 0.  1.
</event>
<event>
 7    1  0.9930326E-013  0.5052887E+02  0.7816164E-02  0.1300439E+00
        -11   -1    0    0    0    0  0.00000000000E+00  0.00000000000E+00  0.45593999997E+02  0.45594000000E+02  0.51100000000E-03 0.  1.
         11   -1    0    0    0    0 -0.00000000000E+00 -0.00000000000E+00 -0.45593999997E+02  0.45594000000E+02  0.51100000000E-03 0. -1.
    9900012    2    1    2    0    0  0.20229368263E+02  0.34697186272E+02  0.63279356576E+01  0.50528870088E+02  0.30000031120E+02 0.  0.
        -12    1    1    2    0    0 -0.20229368263E+02 -0.34697186272E+02 -0.63279356576E+01  0.40659129912E+02  0.00000000000E+00 0.  1.
         11    1    3    3    0    0  0.22895187200E+02  0.15399941268E+02 -0.57825516292E+00  0.27598589951E+02  0.51100000000E-03 0. -1.
        -11    1    3    3    0    0 -0.27652396236E+01  0.22726794117E+00  0.12150249073E+01  0.30289415115E+01  0.51100000000E-03 0.  1.
         12    1    3    3    0    0  0.99420686631E-01  0.19069977063E+02  0.56911659132E+01  0.19901338626E+02  0.00000000000E+00 0. -1.
</event>
<event>
 7    1  0.9930326E-013  0.5052886E+02  0.7816164E-02  0.1300439E+00
        -11   -1    0    0    0    0  0.00000000000E+00  0.00000000000E+00  0.45593999997E+02  0.45594000000E+02  0.51100000000E-03 0.  1.
         11   -1    0    0    0    0 -0.00000000000E+00 -0.00000000000E+00 -0.45593999997E+02  0.45594000000E+02  0.51100000000E-03 0. -1.
    9900012    2    1    2    0    0 -0.22363816391E+02  0.33556695972E+02 -0.51936190895E+01  0.50528858255E+02  0.29999995152E+02 0.  0.
        -12    1    1    2    0    0  0.22363816391E+02 -0.33556695972E+02  0.51936190895E+01  0.40659141745E+02  0.00000000000E+00 0.  1.
         11    1    3    3    0    0  0.38370001099E+00  0.22232191869E+01 -0.91916144116E+01  0.94644442523E+01  0.51100000000E-03 0. -1.
        -11    1    3    3    0    0 -0.63925973553E+01  0.89697580292E+01  0.72225610062E+01  0.13171455797E+02  0.51100000000E-03 0.  1.
        -12    1    3    3    0    0 -0.16354919047E+02  0.22363718756E+02 -0.32245656841E+01  0.27892958206E+02  0.00000000000E+00 0.  1.
</event>
<event>
 7    1  0.9930326E-013  0.5052888E+02  0.7816164E-02  0.1300439E+00
        -11   -1    0    0    0    0  0.00000000000E+00  0.00000000000E+00  0.45593999997E+02  0.45594000000E+02  0.51100000000E-03 0.  1.
         11   -1    0    0    0    0 -0.00000000000E+00 -0.00000000000E+00 -0.45593999997E+02  0.45594000000E+02  0.51100000000E-03 0. -1.
    9900012    2    1    2    0    0 -0.19423618272E+01  0.13140468710E+02 -0.38428107765E+02  0.50528878591E+02  0.30000056964E+02 0.  0.
        -12    1    1    2    0    0  0.19423618272E+01 -0.13140468710E+02  0.38428107765E+02  0.40659121409E+02  0.00000000000E+00 0.  1.
         11    1    3    3    0    0 -0.15408431400E+02  0.96181055046E+01 -0.18577296852E+02  0.25981602535E+02  0.51100000000E-03 0. -1.
        -11    1    3    3    0    0  0.64192825510E+01  0.30749853426E+01 -0.76395603656E+01  0.10441532750E+02  0.51100000000E-03 0.  1.
         12    1    3    3    0    0  0.70467870218E+01  0.44737786323E+00 -0.12211250547E+02  0.14105743306E+02  0.00000000000E+00 0. -1.
</event>
<event>
 7    1  0.9930326E-013  0.5052886E+02  0.7816164E-02  0.1300439E+00
        -11   -1    0    0    0    0  0.00000000000E+00  0.00000000000E+00  0.45593999997E+02  0.45594000000E+02  0.51100000000E-03 0.  1.
         11   -1    0    0    0    0 -0.00000000000E+00 -0.00000000000E+00 -0.45593999997E+02  0.45594000000E+02  0.51100000000E-03 0. -1.
    9900012    2    1    2    0    0  0.14640320977E+02  0.10439765232E+02 -0.36466938673E+02  0.50528864340E+02  0.30000013648E+02 0.  0.
        -12    1    1    2    0    0 -0.14640320977E+02 -0.10439765232E+02  0.36466938673E+02  0.40659135660E+02  0.00000000000E+00 0.  1.
         11    1    3    3    0    0  0.13968754072E+02  0.59270878754E+01 -0.71432625927E+01  0.16771483588E+02  0.51100000000E-03 0. -1.
        -11    1    3    3    0    0 -0.85082199554E+00  0.10397818540E+02 -0.15841946891E+02  0.18968547915E+02  0.51100000000E-03 0.  1.
         12    1    3    3    0    0  0.15223889000E+01 -0.58851411837E+01 -0.13481729190E+02  0.14788832837E+02  0.00000000000E+00 0. -1.
</event>
<event>
 7    1  0.9930326E-013  0.5052886E+02  0.7816164E-02  0.1300439E+00
        -11   -1    0    0    0    0  0.00000000000E+00  0.00000000000E+00  0.45593999997E+02  0.45594000000E+02  0.51100000000E-03 0.  1.
         11   -1    0    0    0    0 -0.00000000000E+00 -0.00000000000E+00 -0.45593999997E+02  0.45594000000E+02  0.51100000000E-03 0. -1.
    9900012    2    1    2    0    0  0.55520697824E+01 -0.11461607285E+02 -0.38613103360E+02  0.50528859927E+02  0.30000000233E+02 0.  0.
        -12    1    1    2    0    0 -0.55520697824E+01  0.11461607285E+02  0.38613103360E+02  0.40659140073E+02  0.00000000000E+00 0.  1.
         11    1    3    3    0    0  0.23172389544E+01 -0.94720172681E+01 -0.39859330918E+02  0.41034801924E+02  0.51100000000E-03 0. -1.
        -11    1    3    3    0    0  0.11485142523E+01 -0.50767196047E+00  0.48859576875E+01  0.50447396952E+01  0.51100000000E-03 0.  1.
         12    1    3    3    0    0  0.20863165757E+01 -0.14819180560E+01 -0.36397301297E+01  0.44493183069E+01  0.00000000000E+00 0. -1.
</event>
<event>
 7    1  0.9930326E-013  0.5052888E+02  0.7816164E-02  0.1300439E+00
        -11   -1    0    0    0    0  0.00000000000E+00  0.00000000000E+00  0.45593999997E+02  0.45594000000E+02  0.51100000000E-03 0. -1.
         11   -1    0    0    0    0 -0.00000000000E+00 -0.00000000000E+00 -0.45593999997E+02  0.45594000000E+02  0.51100000000E-03 0.  1.
    9900012    2    1    2    0    0  0.78060884839E+01 -0.79528253178E+01  0.39102195684E+02  0.50528878572E+02  0.30000056908E+02 0.  0.
        -12    1    1    2    0    0 -0.78060884839E+01  0.79528253178E+01 -0.39102195684E+02  0.40659121428E+02  0.00000000000E+00 0.  1.
         11    1    3    3    0    0  0.16375679433E+02 -0.10018076018E+02  0.29529134940E+02  0.35220654942E+02  0.51100000000E-03 0. -1.
        -11    1    3    3    0    0 -0.29575174191E+01 -0.25438183893E+00 -0.98566080208E+00  0.31278022448E+01  0.51100000000E-03 0.  1.
         12    1    3    3    0    0 -0.56120735300E+01  0.23196325393E+01  0.10558721546E+02  0.12180421385E+02  0.00000000000E+00 0. -1.
</event>
<event>
 7    1  0.9930326E-013  0.5052885E+02  0.7816164E-02  0.1300439E+00
        -11   -1    0    0    0    0  0.00000000000E+00  0.00000000000E+00  0.45593999997E+02  0.45594000000E+02  0.51100000000E-03 0.  1.
         11   -1    0    0    0    0 -0.00000000000E+00 -0.00000000000E+00 -0.45593999997E+02  0.45594000000E+02  0.51100000000E-03 0. -1.
    9900012    2    1    2    0    0  0.44837322787E+01  0.13182725700E+02 -0.38200497529E+02  0.50528854368E+02  0.29999983337E+02 0.  0.
        -12    1    1    2    0    0 -0.44837322787E+01 -0.13182725700E+02  0.38200497529E+02  0.40659145632E+02  0.00000000000E+00 0.  1.
         11    1    3    3    0    0  0.90773221986E+01 -0.35793664128E+01 -0.10105303824E+02  0.14047306071E+02  0.51100000000E-03 0.  1.
        -11    1    3    3    0    0 -0.84915777867E+01  0.48030033991E+01 -0.17499547590E+02  0.20035216522E+02  0.51100000000E-03 0. -1.
        -12    1    3    3    0    0  0.38979878669E+01  0.11959088714E+02 -0.10595646116E+02  0.16446331776E+02  0.00000000000E+00 0.  1.
</event>
<event>
 7    1  0.9930326E-013  0.5052887E+02  0.7816164E-02  0.1300439E+00
        -11   -1    0    0    0    0  0.00000000000E+00  0.00000000000E+00  0.45593999997E+02  0.45594000000E+02  0.51100000000E-03 0. -1.
         11   -1    0    0    0    0 -0.00000000000E+00 -0.00000000000E+00 -0.45593999997E+02  0.45594000000E+02  0.51100000000E-03 0.  1.
    9900012    2    1    2    0    0 -0.29758942073E+01  0.98987369425E+01  0.39323328552E+02  0.50528866859E+02  0.30000021305E+02 0.  0.
        -12    1    1    2    0    0  0.29758942073E+01 -0.98987369425E+01 -0.39323328552E+02  0.40659133141E+02  0.00000000000E+00 0.  1.
         11    1    3    3    0    0 -0.88261341653E+01 -0.11094128756E+01  0.12434554287E+02  0.15288871175E+02  0.51100000000E-03 0. -1.
        -11    1    3    3    0    0  0.78641714106E+01  0.15745975014E+02  0.21536702767E+02  0.27813854236E+02  0.51100000000E-03 0.  1.
         12    1    3    3    0    0 -0.20139314526E+01 -0.47378251963E+01  0.53520714975E+01  0.74261414476E+01  0.00000000000E+00 0. -1.
</event>
<event>
 7    1  0.9930326E-013  0.5052886E+02  0.7816164E-02  0.1300439E+00
        -11   -1    0    0    0    0  0.00000000000E+00  0.00000000000E+00  0.45593999997E+02  0.45594000000E+02  0.51100000000E-03 0.  1.
         11   -1    0    0    0    0 -0.00000000000E+00 -0.00000000000E+00 -0.45593999997E+02  0.45594000000E+02  0.51100000000E-03 0. -1.
    9900012    2    1    2    0    0 -0.95118435456E+01  0.36327824368E+02 -0.15587808269E+02  0.50528858868E+02  0.29999997015E+02 0.  0.
        -12    1    1    2    0    0  0.95118435456E+01 -0.36327824368E+02  0.15587808269E+02  0.40659141132E+02  0.00000000000E+00 0.  1.
         11    1    3    3    0    0 -0.14870498556E+02  0.15458171255E+02 -0.12676032474E+02  0.24915227982E+02  0.51100000000E-03 0. -1.
        -11    1    3    3    0    0  0.16485473309E+01  0.15340453911E+02  0.40793463766E+01  0.15958956784E+02  0.51100000000E-03 0.  1.
        -12    1    3    3    0    0  0.37101076790E+01  0.55291992017E+01 -0.69911221718E+01  0.96546741023E+01  0.00000000000E+00 0.  1.
</event>
<event>
 7    1  0.9930326E-013  0.5052885E+02  0.7816164E-02  0.1300439E+00
        -11   -1    0    0    0    0  0.00000000000E+00  0.00000000000E+00  0.45593999997E+02  0.45594000000E+02  0.51100000000E-03 0. -1.
         11   -1    0    0    0    0 -0.00000000000E+00 -0.00000000000E+00 -0.45593999997E+02  0.45594000000E+02  0.51100000000E-03 0.  1.
    9900012    2    1    2    0    0 -0.61375654559E+01 -0.37273566653E+02 -0.15039204222E+02  0.50528854111E+02  0.29999982557E+02 0.  0.
        -12    1    1    2    0    0  0.61375654559E+01  0.37273566653E+02  0.15039204222E+02  0.40659145889E+02  0.00000000000E+00 0.  1.
         11    1    3    3    0    0 -0.12788201428E+02 -0.11231452946E+02  0.23970308874E+01  0.17188059471E+02  0.51100000000E-03 0. -1.
        -11    1    3    3    0    0 -0.90248208355E+00 -0.40080114150E+01 -0.63039957397E+01  0.75245592536E+01  0.51100000000E-03 0.  1.
         12    1    3    3    0    0  0.75531180555E+01 -0.22034102292E+02 -0.11132239370E+02  0.25816235387E+02  0.00000000000E+00 0. -1.
</event>
<event>
 7    1  0.9930326E-013  0.5052886E+02  0.7816164E-02  0.1300439E+00
        -11   -1    0    0    0    0  0.00000000000E+00  0.00000000000E+00  0.45593999997E+02  0.45594000000E+02  0.51100000000E-03 0. -1.
         11   -1    0    0    0    0 -0.00000000000E+00 -0.00000000000E+00 -0.45593999997E+02  0.45594000000E+02  0.51100000000E-03 0.  1.
    9900012    2    1    2    0    0 -0.20482539259E+02  0.34700823820E+02 -0.54299328601E+01  0.50528858849E+02  0.29999996958E+02 0.  0.
        -12    1    1    2    0    0  0.20482539259E+02 -0.34700823820E+02  0.54299328601E+01  0.40659141151E+02  0.00000000000E+00 0.  1.
         11    1    3    3    0    0 -0.63156396399E+01  0.17607339854E+02 -0.99473571991E+01  0.21186213354E+02  0.51100000000E-03 0.  1.
        -11    1    3    3    0    0 -0.17602077426E+02  0.89644735364E+01  0.53873833774E+01  0.20474833709E+02  0.51100000000E-03 0. -1.
        -12    1    3    3    0    0  0.34351778075E+01  0.81290104297E+01 -0.86995903843E+00  0.88678117855E+01  0.00000000000E+00 0.  1.
</event>
<event>
 7    1  0.9930326E-013  0.5052885E+02  0.7816164E-02  0.1300439E+00
        -11   -1    0    0    0    0  0.00000000000E+00  0.00000000000E+00  0.45593999997E+02  0.45594000000E+02  0.51100000000E-03 0.  1.
         11   -1    0    0    0    0 -0.00000000000E+00 -0.00000000000E+00 -0.45593999997E+02  0.45594000000E+02  0.51100000000E-03 0. -1.
    9900012    2    1    2    0    0 -0.61896573362E+01 -0.13434493104E+02 -0.37873060089E+02  0.50528854124E+02  0.29999982595E+02 0.  0.
        -12    1    1    2    0    0  0.61896573362E+01  0.13434493104E+02  0.37873060089E+02  0.40659145876E+02  0.00000000000E+00 0.  1.
         11    1    3    3    0    0  0.81615103109E+01 -0.15208479521E+02 -0.16118674544E+02  0.23616091319E+02  0.51100000000E-03 0. -1.
        -11    1    3    3    0    0 -0.85388858616E+01  0.42317742210E+01 -0.13375367518E+02  0.16423183045E+02  0.51100000000E-03 0.  1.
         12    1    3    3    0    0 -0.58122817855E+01 -0.24577878037E+01 -0.83790180272E+01  0.10489579760E+02  0.00000000000E+00 0. -1.
</event>
<event>
 7    1  0.9930326E-013  0.5052885E+02  0.7816164E-02  0.1300439E+00
        -11   -1    0    0    0    0  0.00000000000E+00  0.00000000000E+00  0.45593999997E+02  0.45594000000E+02  0.51100000000E-03 0.  1.
         11   -1    0    0    0    0 -0.00000000000E+00 -0.00000000000E+00 -0.45593999997E+02  0.45594000000E+02  0.51100000000E-03 0. -1.
    9900012    2    1    2    0    0  0.32519965379E+02 -0.20759422840E+02 -0.12832160899E+02  0.50528854187E+02  0.29999982787E+02 0.  0.
        -12    1    1    2    0    0 -0.32519965379E+02  0.20759422840E+02  0.12832160899E+02  0.40659145813E+02  0.00000000000E+00 0.  1.
         11    1    3    3    0    0  0.15671062773E+02 -0.14844668228E+02 -0.69369992574E+01  0.22673075270E+02  0.51100000000E-03 0. -1.
        -11    1    3    3    0    0  0.68837812451E+01  0.53006459670E+01 -0.90277056667E+01  0.12529276187E+02  0.51100000000E-03 0.  1.
        -12    1    3    3    0    0  0.99651213608E+01 -0.11215400579E+02  0.31325440246E+01  0.15326502730E+02  0.00000000000E+00 0.  1.
</event>
<event>
 7    1  0.9930326E-013  0.5052886E+02  0.7816164E-02  0.1300439E+00
        -11   -1    0    0    0    0  0.00000000000E+00  0.00000000000E+00  0.45593999997E+02  0.45594000000E+02  0.51100000000E-03 0. -1.
         11   -1    0    0    0    0 -0.00000000000E+00 -0.00000000000E+00 -0.45593999997E+02  0.45594000000E+02  0.51100000000E-03 0.  1.
    9900012    2    1    2    0    0 -0.33345924279E+02 -0.63281329587E+01  0.22386812334E+02  0.50528864504E+02  0.30000014147E+02 0.  0.
        -12    1    1    2    0    0  0.33345924279E+02  0.63281329587E+01 -0.22386812334E+02  0.40659135496E+02  0.00000000000E+00 0.  1.
         11    1    3    3    0    0 -0.19910450597E+02 -0.12545615314E+02  0.15200691467E+01  0.23582389977E+02  0.51100000000E-03 0. -1.
        -11    1    3    3    0    0 -0.12962869182E+02  0.35908965445E+01  0.13271955089E+02  0.18896436373E+02  0.51100000000E-03 0.  1.
        -12    1    3    3    0    0 -0.47260450024E+00  0.26265858108E+01  0.75947880979E+01  0.80500381544E+01  0.00000000000E+00 0.  1.
</event>
<event>
 7    1  0.9930326E-013  0.5052885E+02  0.7816164E-02  0.1300439E+00
        -11   -1    0    0    0    0  0.00000000000E+00  0.00000000000E+00  0.45593999997E+02  0.45594000000E+02  0.51100000000E-03 0. -1.
         11   -1    0    0    0    0 -0.00000000000E+00 -0.00000000000E+00 -0.45593999997E+02  0.45594000000E+02  0.51100000000E-03 0.  1.
    9900012    2    1    2    0    0  0.18513053136E+02  0.81538172466E+01  0.35269651008E+02  0.50528853989E+02  0.29999982185E+02 0.  0.
        -12    1    1    2    0    0 -0.18513053136E+02 -0.81538172466E+01 -0.35269651008E+02  0.40659146011E+02  0.00000000000E+00 0.  1.
         11    1    3    3    0    0  0.96883186001E+00 -0.27303473745E+01  0.24649037292E+02  0.24818712127E+02  0.51100000000E-03 0. -1.
        -11    1    3    3    0    0  0.17944347139E+02  0.70480260933E+01  0.10253005192E+02  0.21835713448E+02  0.51100000000E-03 0.  1.
         12    1    3    3    0    0 -0.40012586247E+00  0.38361385278E+01  0.36760852408E+00  0.38744284143E+01  0.00000000000E+00 0. -1.
</event>
<event>
 7    1  0.9930326E-013  0.5052885E+02  0.7816164E-02  0.1300439E+00
        -11   -1    0    0    0    0  0.00000000000E+00  0.00000000000E+00  0.45593999997E+02  0.45594000000E+02  0.51100000000E-03 0. -1.
         11   -1    0    0    0    0 -0.00000000000E+00 -0.00000000000E+00 -0.45593999997E+02  0.45594000000E+02  0.51100000000E-03 0.  1.
    9900012    2    1    2    0    0 -0.27594350163E+02  0.10095716676E+02 -0.28103282036E+02  0.50528854444E+02  0.29999983569E+02 0.  0.
        -12    1    1    2    0    0  0.27594350163E+02 -0.10095716676E+02  0.28103282036E+02  0.40659145556E+02  0.00000000000E+00 0.  1.
         11    1    3    3    0    0  0.21036655755E+00  0.47567033928E+01  0.93769674002E+00  0.48528091548E+01  0.51100000000E-03 0. -1.
        -11    1    3    3    0    0 -0.91731336469E+01 -0.61607262802E+01 -0.18083860951E+02  0.21192615609E+02  0.51100000000E-03 0.  1.
        -12    1    3    3    0    0 -0.18631583074E+02  0.11499739563E+02 -0.10957117824E+02  0.24483429680E+02  0.00000000000E+00 0.  1.
</event>
<event>
 7    1  0.9930326E-013  0.5052887E+02  0.7816164E-02  0.1300439E+00
        -11   -1    0    0    0    0  0.00000000000E+00  0.00000000000E+00  0.45593999997E+02  0.45594000000E+02  0.51100000000E-03 0.  1.
         11   -1    0    0    0    0 -0.00000000000E+00 -0.00000000000E+00 -0.45593999997E+02  0.45594000000E+02  0.51100000000E-03 0. -1.
    9900012    2    1    2    0    0  0.77707777688E+01 -0.71859480223E+01 -0.39257384108E+02  0.50528867654E+02  0.30000023722E+02 0.  0.
        -12    1    1    2    0    0 -0.77707777688E+01  0.71859480223E+01  0.39257384108E+02  0.40659132346E+02  0.00000000000E+00 0.  1.
         11    1    3    3    0    0  0.10200625056E+02 -0.68984165831E+01 -0.29185993558E+02  0.31677486060E+02  0.51100000000E-03 0. -1.
        -11    1    3    3    0    0  0.45690569269E+01  0.22076132147E+01  0.13269320173E+01  0.52450534932E+01  0.51100000000E-03 0.  1.
         12    1    3    3    0    0 -0.69989042137E+01 -0.24951446539E+01 -0.11398322567E+02  0.13606328101E+02  0.00000000000E+00 0. -1.
</event>
<event>
 7    1  0.9930326E-013  0.5052885E+02  0.7816164E-02  0.1300439E+00
        -11   -1    0    0    0    0  0.00000000000E+00  0.00000000000E+00  0.45593999997E+02  0.45594000000E+02  0.51100000000E-03 0.  1.
         11   -1    0    0    0    0 -0.00000000000E+00 -0.00000000000E+00 -0.45593999997E+02  0.45594000000E+02  0.51100000000E-03 0. -1.
    9900012    2    1    2    0    0  0.26835309034E+02 -0.31036684367E+01 -0.30387498131E+02  0.50528848369E+02  0.29999965101E+02 0.  0.
        -12    1    1    2    0    0 -0.26835309034E+02  0.31036684367E+01  0.30387498131E+02  0.40659151631E+02  0.00000000000E+00 0.  1.
         11    1    3    3    0    0  0.14214557773E+02 -0.20321720574E+01  0.42041905233E+00  0.14365240283E+02  0.51100000000E-03 0. -1.
        -11    1    3    3    0    0  0.31955641442E+01  0.61287360437E+01 -0.91064582863E+01  0.11432437119E+02  0.51100000000E-03 0.  1.
         12    1    3    3    0    0  0.94251871177E+01 -0.72002324231E+01 -0.21701458897E+02  0.24731170967E+02  0.00000000000E+00 0. -1.
</event>
<event>
 7    1  0.9930326E-013  0.5052886E+02  0.7816164E-02  0.1300439E+00
        -11   -1    0    0    0    0  0.00000000000E+00  0.00000000000E+00  0.45593999997E+02  0.45594000000E+02  0.51100000000E-03 0.  1.
         11   -1    0    0    0    0 -0.00000000000E+00 -0.00000000000E+00 -0.45593999997E+02  0.45594000000E+02  0.51100000000E-03 0. -1.
    9900012    2    1    2    0    0 -0.23015478537E+02  0.11302394709E+02 -0.31554855314E+02  0.50528864835E+02  0.30000015153E+02 0.  0.
        -12    1    1    2    0    0  0.23015478537E+02 -0.11302394709E+02  0.31554855314E+02  0.40659135165E+02  0.00000000000E+00 0.  1.
         11    1    3    3    0    0  0.88790227498E-01  0.77911382405E+01 -0.19442880382E+02  0.20946009563E+02  0.51100000000E-03 0. -1.
        -11    1    3    3    0    0 -0.66450485870E+01 -0.74274234863E+00  0.25274474801E+01  0.71481695521E+01  0.51100000000E-03 0.  1.
        -12    1    3    3    0    0 -0.16459220178E+02  0.42539988176E+01 -0.14639422412E+02  0.22434685720E+02  0.00000000000E+00 0.  1.
</event>
<event>
 7    1  0.9930326E-013  0.5052874E+02  0.7816164E-02  0.1300439E+00
        -11   -1    0    0    0    0  0.00000000000E+00  0.00000000000E+00  0.45593999997E+02  0.45594000000E+02  0.51100000000E-03 0. -1.
         11   -1    0    0    0    0 -0.00000000000E+00 -0.00000000000E+00 -0.45593999997E+02  0.45594000000E+02  0.51100000000E-03 0.  1.
    9900012    2    1    2    0    0  0.37501684787E+02 -0.70179173971E+01  0.14055173031E+02  0.50528740103E+02  0.29999636015E+02 0.  0.
        -12    1    1    2    0    0 -0.37501684787E+02  0.70179173971E+01 -0.14055173031E+02  0.40659259897E+02  0.00000000000E+00 0.  1.
         11    1    3    3    0    0  0.34142661645E+02 -0.12455790107E+02  0.13910418116E+02  0.38914878695E+02  0.51100000000E-03 0. -1.
        -11    1    3    3    0    0 -0.71111996916E+00 -0.11578316385E+01 -0.29660140195E+01  0.32624385265E+01  0.51100000000E-03 0.  1.
         12    1    3    3    0    0  0.40701431106E+01  0.65957043481E+01  0.31107689345E+01  0.83514228819E+01  0.00000000000E+00 0. -1.
</event>
<event>
 7    1  0.9930326E-013  0.5052886E+02  0.7816164E-02  0.1300439E+00
        -11   -1    0    0    0    0  0.00000000000E+00  0.00000000000E+00  0.45593999997E+02  0.45594000000E+02  0.51100000000E-03 0.  1.
         11   -1    0    0    0    0 -0.00000000000E+00 -0.00000000000E+00 -0.45593999997E+02  0.45594000000E+02  0.51100000000E-03 0. -1.
    9900012    2    1    2    0    0 -0.33443740596E+02 -0.11394210595E+01 -0.23095094788E+02  0.50528862421E+02  0.30000007814E+02 0.  0.
        -12    1    1    2    0    0  0.33443740596E+02  0.11394210595E+01  0.23095094788E+02  0.40659137579E+02  0.00000000000E+00 0.  1.
         11    1    3    3    0    0 -0.22657288492E+02  0.12447102391E+01 -0.21889392861E+02  0.31528519557E+02  0.51100000000E-03 0. -1.
        -11    1    3    3    0    0  0.37901876654E+01 -0.20888130374E+01 -0.88476941902E+00  0.44171800541E+01  0.51100000000E-03 0.  1.
        -12    1    3    3    0    0 -0.14576639770E+02 -0.29531826129E+00 -0.32093250840E+00  0.14583162809E+02  0.00000000000E+00 0.  1.
</event>
<event>
 7    1  0.9930326E-013  0.5052887E+02  0.7816164E-02  0.1300439E+00
        -11   -1    0    0    0    0  0.00000000000E+00  0.00000000000E+00  0.45593999997E+02  0.45594000000E+02  0.51100000000E-03 0. -1.
         11   -1    0    0    0    0 -0.00000000000E+00 -0.00000000000E+00 -0.45593999997E+02  0.45594000000E+02  0.51100000000E-03 0.  1.
    9900012    2    1    2    0    0  0.31444554918E+02 -0.25606706316E+02 -0.29498510148E+01  0.50528867405E+02  0.30000022965E+02 0.  0.
        -12    1    1    2    0    0 -0.31444554918E+02  0.25606706316E+02  0.29498510148E+01  0.40659132595E+02  0.00000000000E+00 0.  1.
         11    1    3    3    0    0  0.30272068197E+02 -0.11035491100E+02 -0.18607360323E+01  0.32274487069E+02  0.51100000000E-03 0. -1.
        -11    1    3    3    0    0 -0.22133172391E+01 -0.30078183337E+01  0.37294072554E+01  0.52777100211E+01  0.51100000000E-03 0.  1.
         12    1    3    3    0    0  0.33858039606E+01 -0.11563396882E+02 -0.48185222378E+01  0.12976670315E+02  0.00000000000E+00 0. -1.
</event>
<event>
 7    1  0.9930326E-013  0.5052886E+02  0.7816164E-02  0.1300439E+00
        -11   -1    0    0    0    0  0.00000000000E+00  0.00000000000E+00  0.45593999997E+02  0.45594000000E+02  0.51100000000E-03 0. -1.
         11   -1    0    0    0    0 -0.00000000000E+00 -0.00000000000E+00 -0.45593999997E+02  0.45594000000E+02  0.51100000000E-03 0.  1.
    9900012    2    1    2    0    0 -0.38502075853E+02 -0.79655503723E+01  0.10358841188E+02  0.50528862915E+02  0.30000009316E+02 0.  0.
        -12    1    1    2    0    0  0.38502075853E+02  0.79655503723E+01 -0.10358841188E+02  0.40659137085E+02  0.00000000000E+00 0.  1.
         11    1    3    3    0    0 -0.28617699852E+02 -0.69705726105E+01  0.97664240816E+01  0.31031349744E+02  0.51100000000E-03 0. -1.
        -11    1    3    3    0    0 -0.19263913949E+01  0.73903118682E+01  0.18811267524E+01  0.78655153318E+01  0.51100000000E-03 0.  1.
        -12    1    3    3    0    0 -0.79579846065E+01 -0.83852896300E+01 -0.12887096460E+01  0.11631997839E+02  0.00000000000E+00 0.  1.
</event>
<event>
 7    1  0.9930326E-013  0.5052881E+02  0.7816164E-02  0.1300439E+00
        -11   -1    0    0    0    0  0.00000000000E+00  0.00000000000E+00  0.45593999997E+02  0.45594000000E+02  0.51100000000E-03 0.  1.
         11   -1    0    0    0    0 -0.00000000000E+00 -0.00000000000E+00 -0.45593999997E+02  0.45594000000E+02  0.51100000000E-03 0. -1.
    9900012    2    1    2    0    0 -0.90047374774E+01 -0.29384616079E+02 -0.26620074776E+02  0.50528814811E+02  0.29999863098E+02 0.  0.
        -12    1    1    2    0    0  0.90047374774E+01  0.29384616079E+02  0.26620074776E+02  0.40659185189E+02  0.00000000000E+00 0.  1.
         11    1    3    3    0    0 -0.10545487883E+01 -0.14918733031E+01 -0.15257898977E+01  0.23802928753E+01  0.51100000000E-03 0. -1.
        -11    1    3    3    0    0 -0.12469978865E+02 -0.31578567867E+02 -0.16465206872E+02  0.37733398456E+02  0.51100000000E-03 0.  1.
        -12    1    3    3    0    0  0.45197901763E+01  0.36858250911E+01 -0.86290780067E+01  0.10415123479E+02  0.00000000000E+00 0.  1.
</event>
<event>
 7    1  0.9930326E-013  0.5052885E+02  0.7816164E-02  0.1300439E+00
        -11   -1    0    0    0    0  0.00000000000E+00  0.00000000000E+00  0.45593999997E+02  0.45594000000E+02  0.51100000000E-03 0.  1.
         11   -1    0    0    0    0 -0.00000000000E+00 -0.00000000000E+00 -0.45593999997E+02  0.45594000000E+02  0.51100000000E-03 0. -1.
    9900012    2    1    2    0    0 -0.36790774110E+02  0.17005151890E+02  0.32296315718E+01  0.50528846412E+02  0.29999959155E+02 0.  0.
        -12    1    1    2    0    0  0.36790774110E+02 -0.17005151890E+02 -0.32296315718E+01  0.40659153588E+02  0.00000000000E+00 0.  1.
         11    1    3    3    0    0 -0.15194326029E+02  0.22324877556E+01 -0.82375651430E+01  0.17427249491E+02  0.51100000000E-03 0. -1.
        -11    1    3    3    0    0 -0.25025290549E+01  0.64732238415E+01  0.10076889516E+02  0.12235562151E+02  0.51100000000E-03 0.  1.
         12    1    3    3    0    0 -0.19093919025E+02  0.82994402930E+01  0.13903071983E+01  0.20866034770E+02  0.00000000000E+00 0. -1.
</event>
<event>
 7    1  0.9930326E-013  0.5052886E+02  0.7816164E-02  0.1300439E+00
        -11   -1    0    0    0    0  0.00000000000E+00  0.00000000000E+00  0.45593999997E+02  0.45594000000E+02  0.51100000000E-03 0.  1.
         11   -1    0    0    0    0 -0.00000000000E+00 -0.00000000000E+00 -0.45593999997E+02  0.45594000000E+02  0.51100000000E-03 0. -1.
    9900012    2    1    2    0    0  0.11355734328E+02  0.38774731391E+02  0.45533708567E+01  0.50528859789E+02  0.29999999814E+02 0.  0.
        -12    1    1    2    0    0 -0.11355734328E+02 -0.38774731391E+02 -0.45533708567E+01  0.40659140211E+02  0.00000000000E+00 0.  1.
         11    1    3    3    0    0  0.12121197779E+02  0.24336401250E+02 -0.96270038231E+01  0.28842036410E+02  0.51100000000E-03 0. -1.
        -11    1    3    3    0    0 -0.22982708611E+01  0.12071671556E+02  0.74026213506E+01  0.14345943894E+02  0.51100000000E-03 0.  1.
         12    1    3    3    0    0  0.15328074098E+01  0.23666585851E+01  0.67777533292E+01  0.73408794845E+01  0.00000000000E+00 0. -1.
</event>
<event>
 7    1  0.9930326E-013  0.5052888E+02  0.7816164E-02  0.1300439E+00
        -11   -1    0    0    0    0  0.00000000000E+00  0.00000000000E+00  0.45593999997E+02  0.45594000000E+02  0.51100000000E-03 0.  1.
         11   -1    0    0    0    0 -0.00000000000E+00 -0.00000000000E+00 -0.45593999997E+02  0.45594000000E+02  0.51100000000E-03 0. -1.
    9900012    2    1    2    0    0 -0.29462865682E+02  0.23891934914E+02 -0.14638272577E+02  0.50528880087E+02  0.30000061511E+02 0.  0.
        -12    1    1    2    0    0  0.29462865682E+02 -0.23891934914E+02  0.14638272577E+02  0.40659119913E+02  0.00000000000E+00 0.  1.
         11    1    3    3    0    0  0.17716491029E+01  0.20752932208E+00 -0.67284457484E+01  0.69608757648E+01  0.51100000000E-03 0. -1.
        -11    1    3    3    0    0 -0.26337623488E+02  0.15797719331E+02  0.96180256211E+00  0.30727242172E+02  0.51100000000E-03 0.  1.
        -12    1    3    3    0    0 -0.48968912961E+01  0.78866862612E+01 -0.88716293902E+01  0.12840762150E+02  0.00000000000E+00 0.  1.
</event>
<event>
 7    1  0.9930326E-013  0.5052885E+02  0.7816164E-02  0.1300439E+00
        -11   -1    0    0    0    0  0.00000000000E+00  0.00000000000E+00  0.45593999997E+02  0.45594000000E+02  0.51100000000E-03 0.  1.
         11   -1    0    0    0    0 -0.00000000000E+00 -0.00000000000E+00 -0.45593999997E+02  0.45594000000E+02  0.51100000000E-03 0. -1.
    9900012    2    1    2    0    0 -0.21713037570E+02 -0.96169124437E+01 -0.33003419265E+02  0.50528847419E+02  0.29999962214E+02 0.  0.
        -12    1    1    2    0    0  0.21713037570E+02  0.96169124437E+01  0.33003419265E+02  0.40659152581E+02  0.00000000000E+00 0.  1.
         11    1    3    3    0    0 -0.12902147646E+00 -0.11195827095E+02 -0.48979313302E+01  0.12221003333E+02  0.51100000000E-03 0. -1.
        -11    1    3    3    0    0 -0.97033703798E+01  0.79079698379E+01 -0.14745159162E+02  0.19341951884E+02  0.51100000000E-03 0.  1.
         12    1    3    3    0    0 -0.11880645714E+02 -0.63290551868E+01 -0.13360328772E+02  0.18965892202E+02  0.00000000000E+00 0. -1.
</event>
<event>
 7    1  0.9930326E-013  0.5052888E+02  0.7816164E-02  0.1300439E+00
        -11   -1    0    0    0    0  0.00000000000E+00  0.00000000000E+00  0.45593999997E+02  0.45594000000E+02  0.51100000000E-03 0.  1.
         11   -1    0    0    0    0 -0.00000000000E+00 -0.00000000000E+00 -0.45593999997E+02  0.45594000000E+02  0.51100000000E-03 0. -1.
    9900012    2    1    2    0    0  0.27722554686E+02 -0.49548291797E+01 -0.29327018147E+02  0.50528876007E+02  0.30000049110E+02 0.  0.
        -12    1    1    2    0    0 -0.27722554686E+02  0.49548291797E+01  0.29327018147E+02  0.40659123993E+02  0.00000000000E+00 0.  1.
         11    1    3    3    0    0  0.92628358890E+01 -0.12380665596E+02 -0.22783779880E+02  0.27535098242E+02  0.51100000000E-03 0. -1.
        -11    1    3    3    0    0  0.12337860454E+02 -0.10323001440E+00 -0.37729815971E+01  0.12902280705E+02  0.51100000000E-03 0.  1.
         12    1    3    3    0    0  0.61218583434E+01  0.75290664305E+01 -0.27702566698E+01  0.10091497060E+02  0.00000000000E+00 0. -1.
</event>
<event>
 7    1  0.9930326E-013  0.5052886E+02  0.7816164E-02  0.1300439E+00
        -11   -1    0    0    0    0  0.00000000000E+00  0.00000000000E+00  0.45593999997E+02  0.45594000000E+02  0.51100000000E-03 0.  1.
         11   -1    0    0    0    0 -0.00000000000E+00 -0.00000000000E+00 -0.45593999997E+02  0.45594000000E+02  0.51100000000E-03 0. -1.
    9900012    2    1    2    0    0 -0.10385126319E+02  0.39116975887E+02  0.38957731870E+01  0.50528859577E+02  0.29999999170E+02 0.  0.
        -12    1    1    2    0    0  0.10385126319E+02 -0.39116975887E+02 -0.38957731870E+01  0.40659140423E+02  0.00000000000E+00 0.  1.
         11    1    3    3    0    0 -0.11309658713E+02  0.25360645006E+02  0.47568265236E+01  0.28172647979E+02  0.51100000000E-03 0. -1.
        -11    1    3    3    0    0  0.17795774411E+01 -0.33904985098E+01 -0.32502868449E+01  0.50226229054E+01  0.51100000000E-03 0.  1.
        -12    1    3    3    0    0 -0.85504504733E+00  0.17146829391E+02  0.23892335084E+01  0.17333588692E+02  0.00000000000E+00 0.  1.
</event>
<event>
 7    1  0.9930326E-013  0.5052886E+02  0.7816164E-02  0.1300439E+00
        -11   -1    0    0    0    0  0.00000000000E+00  0.00000000000E+00  0.45593999997E+02  0.45594000000E+02  0.51100000000E-03 0. -1.
         11   -1    0    0    0    0 -0.00000000000E+00 -0.00000000000E+00 -0.45593999997E+02  0.45594000000E+02  0.51100000000E-03 0.  1.
    9900012    2    1    2    0    0  0.24501260071E+02 -0.24015358517E+02  0.21820086691E+02  0.50528863598E+02  0.30000011392E+02 0.  0.
        -12    1    1    2    0    0 -0.24501260071E+02  0.24015358517E+02 -0.21820086691E+02  0.40659136402E+02  0.00000000000E+00 0.  1.
         11    1    3    3    0    0  0.26389908575E+02 -0.15233108079E+02  0.13722731817E+02  0.33418381545E+02  0.51100000000E-03 0. -1.
        -11    1    3    3    0    0 -0.99905457738E+00 -0.62436681849E+01 -0.20229319103E+01  0.66388068376E+01  0.51100000000E-03 0.  1.
         12    1    3    3    0    0 -0.88959392588E+00 -0.25385822528E+01  0.10120286784E+02  0.10471675215E+02  0.00000000000E+00 0. -1.
</event>
<event>
 7    1  0.9930326E-013  0.5052875E+02  0.7816164E-02  0.1300439E+00
        -11   -1    0    0    0    0  0.00000000000E+00  0.00000000000E+00  0.45593999997E+02  0.45594000000E+02  0.51100000000E-03 0. -1.
         11   -1    0    0    0    0 -0.00000000000E+00 -0.00000000000E+00 -0.45593999997E+02  0.45594000000E+02  0.51100000000E-03 0.  1.
    9900012    2    1    2    0    0  0.38458735740E+02  0.11877398502E+02  0.57470012813E+01  0.50528745535E+02  0.29999652527E+02 0.  0.
        -12    1    1    2    0    0 -0.38458735740E+02 -0.11877398502E+02 -0.57470012813E+01  0.40659254465E+02  0.00000000000E+00 0.  1.
         11    1    3    3    0    0  0.33255946188E+02  0.15935237317E+02  0.40455979120E+01  0.37097932664E+02  0.51100000000E-03 0. -1.
        -11    1    3    3    0    0  0.45710448962E+01 -0.60986223186E+01  0.52738794537E+01  0.92683035331E+01  0.51100000000E-03 0.  1.
         12    1    3    3    0    0  0.63174465576E+00  0.20407835034E+01 -0.35724760844E+01  0.41625093383E+01  0.00000000000E+00 0. -1.
</event>
<event>
 7    1  0.9930326E-013  0.5052886E+02  0.7816164E-02  0.1300439E+00
        -11   -1    0    0    0    0  0.00000000000E+00  0.00000000000E+00  0.45593999997E+02  0.45594000000E+02  0.51100000000E-03 0. -1.
         11   -1    0    0    0    0 -0.00000000000E+00 -0.00000000000E+00 -0.45593999997E+02  0.45594000000E+02  0.51100000000E-03 0.  1.
    9900012    2    1    2    0    0 -0.96251989984E+01  0.24286164278E+02  0.31156117823E+02  0.50528857007E+02  0.29999991359E+02 0.  0.
        -12    1    1    2    0    0  0.96251989984E+01 -0.24286164278E+02 -0.31156117823E+02  0.40659142993E+02  0.00000000000E+00 0.  1.
         11    1    3    3    0    0  0.58577795072E+01  0.14083071546E+02  0.22701801150E+02  0.27349922498E+02  0.51100000000E-03 0.  1.
        -11    1    3    3    0    0 -0.12397031855E+02  0.56736266227E+01  0.10624040891E+02  0.17284290063E+02  0.51100000000E-03 0. -1.
         12    1    3    3    0    0 -0.30859466507E+01  0.45294661094E+01 -0.21697242180E+01  0.58946444464E+01  0.00000000000E+00 0. -1.
</event>
<event>
 7    1  0.9930326E-013  0.5052887E+02  0.7816164E-02  0.1300439E+00
        -11   -1    0    0    0    0  0.00000000000E+00  0.00000000000E+00  0.45593999997E+02  0.45594000000E+02  0.51100000000E-03 0. -1.
         11   -1    0    0    0    0 -0.00000000000E+00 -0.00000000000E+00 -0.45593999997E+02  0.45594000000E+02  0.51100000000E-03 0.  1.
    9900012    2    1    2    0    0  0.11962502510E+02 -0.36980886004E+01  0.38683164899E+02  0.50528873445E+02  0.30000041323E+02 0.  0.
        -12    1    1    2    0    0 -0.11962502510E+02  0.36980886004E+01 -0.38683164899E+02  0.40659126555E+02  0.00000000000E+00 0.  1.
         11    1    3    3    0    0 -0.45679217522E+01 -0.96259845685E+01  0.10414562763E+02  0.14899282058E+02  0.51100000000E-03 0. -1.
        -11    1    3    3    0    0  0.39687756235E+01  0.63673645975E+01  0.17638240435E+02  0.19167734289E+02  0.51100000000E-03 0.  1.
         12    1    3    3    0    0  0.12561648639E+02 -0.43946862946E+00  0.10630361701E+02  0.16461857098E+02  0.00000000000E+00 0. -1.
</event>
<event>
 7    1  0.9930326E-013  0.5052886E+02  0.7816164E-02  0.1300439E+00
        -11   -1    0    0    0    0  0.00000000000E+00  0.00000000000E+00  0.45593999997E+02  0.45594000000E+02  0.51100000000E-03 0.  1.
         11   -1    0    0    0    0 -0.00000000000E+00 -0.00000000000E+00 -0.45593999997E+02  0.45594000000E+02  0.51100000000E-03 0. -1.
    9900012    2    1    2    0    0  0.93835832273E+01  0.36698832976E+02 -0.14775310711E+02  0.50528858560E+02  0.29999996080E+02 0.  0.
        -12    1    1    2    0    0 -0.93835832273E+01 -0.36698832976E+02  0.14775310711E+02  0.40659141440E+02  0.00000000000E+00 0.  1.
         11    1    3    3    0    0  0.95086979371E+01  0.89170219906E+01 -0.16341632978E+02  0.20904008857E+02  0.51100000000E-03 0. -1.
        -11    1    3    3    0    0 -0.20553695618E+01  0.26662671395E+02 -0.25757601870E+00  0.26743016577E+02  0.51100000000E-03 0.  1.
        -12    1    3    3    0    0  0.19302548520E+01  0.11191395901E+01  0.18238982852E+01  0.28818331268E+01  0.00000000000E+00 0.  1.
</event>
<event>
 7    1  0.9930326E-013  0.5052887E+02  0.7816164E-02  0.1300439E+00
        -11   -1    0    0    0    0  0.00000000000E+00  0.00000000000E+00  0.45593999997E+02  0.45594000000E+02  0.51100000000E-03 0. -1.
         11   -1    0    0    0    0 -0.00000000000E+00 -0.00000000000E+00 -0.45593999997E+02  0.45594000000E+02  0.51100000000E-03 0.  1.
    9900012    2    1    2    0    0 -0.16150328694E+02  0.13867731496E+02  0.34641277797E+02  0.50528865464E+02  0.30000017065E+02 0.  0.
        -12    1    1    2    0    0  0.16150328694E+02 -0.13867731496E+02 -0.34641277797E+02  0.40659134536E+02  0.00000000000E+00 0.  1.
         11    1    3    3    0    0 -0.55775035188E+01  0.17479493908E+02  0.19786114875E+02  0.26983913632E+02  0.51100000000E-03 0. -1.
        -11    1    3    3    0    0 -0.13329286945E+02 -0.42096029319E+01  0.79381550659E+01  0.16074979111E+02  0.51100000000E-03 0.  1.
         12    1    3    3    0    0  0.27564617697E+01  0.59784052017E+00  0.69170078569E+01  0.74699727220E+01  0.00000000000E+00 0. -1.
</event>
<event>
 7    1  0.9930326E-013  0.5052886E+02  0.7816164E-02  0.1300439E+00
        -11   -1    0    0    0    0  0.00000000000E+00  0.00000000000E+00  0.45593999997E+02  0.45594000000E+02  0.51100000000E-03 0. -1.
         11   -1    0    0    0    0 -0.00000000000E+00 -0.00000000000E+00 -0.45593999997E+02  0.45594000000E+02  0.51100000000E-03 0.  1.
    9900012    2    1    2    0    0  0.19989495168E+02  0.20482509552E+02  0.28879961590E+02  0.50528864544E+02  0.30000014268E+02 0.  0.
        -12    1    1    2    0    0 -0.19989495168E+02 -0.20482509552E+02 -0.28879961590E+02  0.40659135456E+02  0.00000000000E+00 0.  1.
         11    1    3    3    0    0  0.53142362844E+01  0.12051796139E+02  0.19820897901E+02  0.23798211935E+02  0.51100000000E-03 0. -1.
        -11    1    3    3    0    0  0.32250297815E+01 -0.51433470765E+01 -0.12480305710E+01  0.61977751499E+01  0.51100000000E-03 0.  1.
        -12    1    3    3    0    0  0.11450229102E+02  0.13574060490E+02  0.10307094260E+02  0.20532877459E+02  0.00000000000E+00 0.  1.
</event>
<event>
 7    1  0.9930326E-013  0.5052886E+02  0.7816164E-02  0.1300439E+00
        -11   -1    0    0    0    0  0.00000000000E+00  0.00000000000E+00  0.45593999997E+02  0.45594000000E+02  0.51100000000E-03 0.  1.
         11   -1    0    0    0    0 -0.00000000000E+00 -0.00000000000E+00 -0.45593999997E+02  0.45594000000E+02  0.51100000000E-03 0. -1.
    9900012    2    1    2    0    0  0.14768916685E+02 -0.25865944961E+02 -0.27676662156E+02  0.50528860353E+02  0.30000001529E+02 0.  0.
        -12    1    1    2    0    0 -0.14768916685E+02  0.25865944961E+02  0.27676662156E+02  0.40659139647E+02  0.00000000000E+00 0.  1.
         11    1    3    3    0    0  0.17149601937E+02 -0.19168555809E+02 -0.15285530348E+02  0.29919722871E+02  0.51100000000E-03 0. -1.
        -11    1    3    3    0    0 -0.55737460834E+00  0.11147814146E+01  0.30023364142E+01  0.32507581056E+01  0.51100000000E-03 0.  1.
        -12    1    3    3    0    0 -0.18233106437E+01 -0.78121705663E+01 -0.15393468222E+02  0.17358379376E+02  0.00000000000E+00 0.  1.
</event>
<event>
 7    1  0.9930326E-013  0.5052886E+02  0.7816164E-02  0.1300439E+00
        -11   -1    0    0    0    0  0.00000000000E+00  0.00000000000E+00  0.45593999997E+02  0.45594000000E+02  0.51100000000E-03 0.  1.
         11   -1    0    0    0    0 -0.00000000000E+00 -0.00000000000E+00 -0.45593999997E+02  0.45594000000E+02  0.51100000000E-03 0. -1.
    9900012    2    1    2    0    0 -0.16060719138E+02  0.37308579274E+02 -0.18134553898E+01  0.50528863178E+02  0.30000010115E+02 0.  0.
        -12    1    1    2    0    0  0.16060719138E+02 -0.37308579274E+02  0.18134553898E+01  0.40659136822E+02  0.00000000000E+00 0.  1.
         11    1    3    3    0    0 -0.21925953081E+01  0.17616032504E+02  0.77280318704E+01  0.19361160921E+02  0.51100000000E-03 0. -1.
        -11    1    3    3    0    0 -0.16180515741E+02  0.87524972270E+01 -0.71259064532E+01  0.19727996360E+02  0.51100000000E-03 0.  1.
        -12    1    3    3    0    0  0.23123919108E+01  0.10940049543E+02 -0.24155808071E+01  0.11439705896E+02  0.00000000000E+00 0.  1.
</event>
<event>
 7    1  0.9930326E-013  0.5052887E+02  0.7816164E-02  0.1300439E+00
        -11   -1    0    0    0    0  0.00000000000E+00  0.00000000000E+00  0.45593999997E+02  0.45594000000E+02  0.51100000000E-03 0.  1.
         11   -1    0    0    0    0 -0.00000000000E+00 -0.00000000000E+00 -0.45593999997E+02  0.45594000000E+02  0.51100000000E-03 0. -1.
    9900012    2    1    2    0    0  0.17726555471E+02 -0.12817943618E+02 -0.34272940529E+02  0.50528869414E+02  0.30000029072E+02 0.  0.
        -12    1    1    2    0    0 -0.17726555471E+02  0.12817943618E+02  0.34272940529E+02  0.40659130586E+02  0.00000000000E+00 0.  1.
         11    1    3    3    0    0  0.14875317396E+02 -0.11415712316E+02 -0.24004607302E+02  0.30460051334E+02  0.51100000000E-03 0. -1.
        -11    1    3    3    0    0  0.31150026054E+01  0.68814079297E+01 -0.88923812109E+01  0.11667538737E+02  0.51100000000E-03 0.  1.
         12    1    3    3    0    0 -0.26376452984E+00 -0.82836392311E+01 -0.13759520164E+01  0.84012793424E+01  0.00000000000E+00 0. -1.
</event>
<event>
 7    1  0.9930326E-013  0.5052886E+02  0.7816164E-02  0.1300439E+00
        -11   -1    0    0    0    0  0.00000000000E+00  0.00000000000E+00  0.45593999997E+02  0.45594000000E+02  0.51100000000E-03 0. -1.
         11   -1    0    0    0    0 -0.00000000000E+00 -0.00000000000E+00 -0.45593999997E+02  0.45594000000E+02  0.51100000000E-03 0.  1.
    9900012    2    1    2    0    0  0.18434489622E+02  0.30113617426E+01  0.36114632442E+02  0.50528863467E+02  0.30000010994E+02 0.  0.
        -12    1    1    2    0    0 -0.18434489622E+02 -0.30113617426E+01 -0.36114632442E+02  0.40659136533E+02  0.00000000000E+00 0.  1.
         11    1    3    3    0    0  0.52405273705E+01 -0.31382707543E+01  0.15977391557E+02  0.17105230536E+02  0.51100000000E-03 0. -1.
        -11    1    3    3    0    0  0.56172241590E+01  0.14403703808E+02  0.11183063194E+02  0.19080901271E+02  0.51100000000E-03 0.  1.
        -12    1    3    3    0    0  0.75767380928E+01 -0.82540713116E+01  0.89541776912E+01  0.14342731660E+02  0.00000000000E+00 0.  1.
</event>
<event>
 7    1  0.9930326E-013  0.5052884E+02  0.7816164E-02  0.1300439E+00
        -11   -1    0    0    0    0  0.00000000000E+00  0.00000000000E+00  0.45593999997E+02  0.45594000000E+02  0.51100000000E-03 0.  1.
         11   -1    0    0    0    0 -0.00000000000E+00 -0.00000000000E+00 -0.45593999997E+02  0.45594000000E+02  0.51100000000E-03 0. -1.
    9900012    2    1    2    0    0 -0.16568872895E+02  0.50246484796E+01 -0.36788488461E+02  0.50528837138E+02  0.29999930966E+02 0.  0.
        -12    1    1    2    0    0  0.16568872895E+02 -0.50246484796E+01  0.36788488461E+02  0.40659162862E+02  0.00000000000E+00 0.  1.
         11    1    3    3    0    0 -0.13939520920E+02  0.69577715484E+01 -0.18187648805E+02  0.23948097998E+02  0.51100000000E-03 0. -1.
        -11    1    3    3    0    0  0.22977553612E+01 -0.10419552678E+01 -0.20913689075E+02  0.21065320825E+02  0.51100000000E-03 0.  1.
        -12    1    3    3    0    0 -0.49271073364E+01 -0.89116780106E+00  0.23128494195E+01  0.55154183152E+01  0.00000000000E+00 0.  1.
</event>
<event>
 7    1  0.9930326E-013  0.5052886E+02  0.7816164E-02  0.1300439E+00
        -11   -1    0    0    0    0  0.00000000000E+00  0.00000000000E+00  0.45593999997E+02  0.45594000000E+02  0.51100000000E-03 0.  1.
         11   -1    0    0    0    0 -0.00000000000E+00 -0.00000000000E+00 -0.45593999997E+02  0.45594000000E+02  0.51100000000E-03 0. -1.
    9900012    2    1    2    0    0  0.17500947066E+02  0.22720719007E+02 -0.28821026092E+02  0.50528858772E+02  0.29999996724E+02 0.  0.
        -12    1    1    2    0    0 -0.17500947066E+02 -0.22720719007E+02  0.28821026092E+02  0.40659141228E+02  0.00000000000E+00 0.  1.
         11    1    3    3    0    0  0.17858588518E+02  0.16536028306E+02 -0.86413664351E+01  0.25827168449E+02  0.51100000000E-03 0. -1.
        -11    1    3    3    0    0 -0.24004939922E+01  0.83394794096E+01 -0.19911426354E+02  0.21720363440E+02  0.51100000000E-03 0.  1.
        -12    1    3    3    0    0  0.20428525401E+01 -0.21547887086E+01 -0.26823330284E+00  0.29813268831E+01  0.00000000000E+00 0.  1.
</event>
<event>
 7    1  0.9930326E-013  0.5052885E+02  0.7816164E-02  0.1300439E+00
        -11   -1    0    0    0    0  0.00000000000E+00  0.00000000000E+00  0.45593999997E+02  0.45594000000E+02  0.51100000000E-03 0.  1.
         11   -1    0    0    0    0 -0.00000000000E+00 -0.00000000000E+00 -0.45593999997E+02  0.45594000000E+02  0.51100000000E-03 0. -1.
    9900012    2    1    2    0    0  0.16954573377E+02  0.13649275820E+02 -0.34342479744E+02  0.50528853381E+02  0.29999980337E+02 0.  0.
        -12    1    1    2    0    0 -0.16954573377E+02 -0.13649275820E+02  0.34342479744E+02  0.40659146619E+02  0.00000000000E+00 0.  1.
         11    1    3    3    0    0  0.66583123555E+01 -0.25986297630E+01 -0.24551249524E+02  0.25570487941E+02  0.51100000000E-03 0. -1.
        -11    1    3    3    0    0  0.33518292770E+01  0.15603751320E+02 -0.62883845848E+01  0.17153879902E+02  0.51100000000E-03 0.  1.
        -12    1    3    3    0    0  0.69444317444E+01  0.64415426352E+00 -0.35028456352E+01  0.78044855379E+01  0.00000000000E+00 0.  1.
</event>
<event>
 7    1  0.9930326E-013  0.5052887E+02  0.7816164E-02  0.1300439E+00
        -11   -1    0    0    0    0  0.00000000000E+00  0.00000000000E+00  0.45593999997E+02  0.45594000000E+02  0.51100000000E-03 0. -1.
         11   -1    0    0    0    0 -0.00000000000E+00 -0.00000000000E+00 -0.45593999997E+02  0.45594000000E+02  0.51100000000E-03 0.  1.
    9900012    2    1    2    0    0 -0.33480807665E+02 -0.83604178641E+01  0.21501256346E+02  0.50528867038E+02  0.30000021848E+02 0.  0.
        -12    1    1    2    0    0  0.33480807665E+02  0.83604178641E+01 -0.21501256346E+02  0.40659132962E+02  0.00000000000E+00 0.  1.
         11    1    3    3    0    0 -0.15452091211E+00  0.27247430835E+01  0.95302990519E-01  0.27307845951E+01  0.51100000000E-03 0. -1.
        -11    1    3    3    0    0 -0.31667445337E+02 -0.12882655679E+02  0.25758559622E+02  0.42805295299E+02  0.51100000000E-03 0.  1.
        -12    1    3    3    0    0 -0.16588414156E+01  0.17974947312E+01 -0.43526062666E+01  0.49927871438E+01  0.00000000000E+00 0.  1.
</event>
<event>
 7    1  0.9930326E-013  0.5052883E+02  0.7816164E-02  0.1300439E+00
        -11   -1    0    0    0    0  0.00000000000E+00  0.00000000000E+00  0.45593999997E+02  0.45594000000E+02  0.51100000000E-03 0. -1.
         11   -1    0    0    0    0 -0.00000000000E+00 -0.00000000000E+00 -0.45593999997E+02  0.45594000000E+02  0.51100000000E-03 0.  1.
    9900012    2    1    2    0    0  0.11910320237E+02 -0.29584529881E+02  0.25220389589E+02  0.50528828987E+02  0.29999906188E+02 0.  0.
        -12    1    1    2    0    0 -0.11910320237E+02  0.29584529881E+02 -0.25220389589E+02  0.40659171013E+02  0.00000000000E+00 0.  1.
         11    1    3    3    0    0  0.30986247109E+01 -0.22723119945E+02  0.78205835867E+01  0.24230212195E+02  0.51100000000E-03 0. -1.
        -11    1    3    3    0    0  0.10775003624E+02  0.14599578818E+01  0.11964834727E+02  0.16167543116E+02  0.51100000000E-03 0.  1.
        -12    1    3    3    0    0 -0.19633080975E+01 -0.83213678179E+01  0.54349712751E+01  0.10131073675E+02  0.00000000000E+00 0.  1.
</event>
<event>
 7    1  0.9930326E-013  0.5052886E+02  0.7816164E-02  0.1300439E+00
        -11   -1    0    0    0    0  0.00000000000E+00  0.00000000000E+00  0.45593999997E+02  0.45594000000E+02  0.51100000000E-03 0.  1.
         11   -1    0    0    0    0 -0.00000000000E+00 -0.00000000000E+00 -0.45593999997E+02  0.45594000000E+02  0.51100000000E-03 0. -1.
    9900012    2    1    2    0    0 -0.34483525896E+01 -0.37781175754E+02 -0.14623862047E+02  0.50528859353E+02  0.29999998491E+02 0.  0.
        -12    1    1    2    0    0  0.34483525896E+01  0.37781175754E+02  0.14623862047E+02  0.40659140647E+02  0.00000000000E+00 0.  1.
         11    1    3    3    0    0 -0.62301678451E+01 -0.32809977219E+02 -0.17397645236E+02  0.37656176871E+02  0.51100000000E-03 0. -1.
        -11    1    3    3    0    0 -0.20806590025E+01  0.22153604136E+01 -0.12771206992E+01  0.32966651617E+01  0.51100000000E-03 0.  1.
         12    1    3    3    0    0  0.48624742581E+01 -0.71865589484E+01  0.40509038877E+01  0.95760173212E+01  0.00000000000E+00 0. -1.
</event>
<event>
 7    1  0.9930326E-013  0.5052883E+02  0.7816164E-02  0.1300439E+00
        -11   -1    0    0    0    0  0.00000000000E+00  0.00000000000E+00  0.45593999997E+02  0.45594000000E+02  0.51100000000E-03 0.  1.
         11   -1    0    0    0    0 -0.00000000000E+00 -0.00000000000E+00 -0.45593999997E+02  0.45594000000E+02  0.51100000000E-03 0. -1.
    9900012    2    1    2    0    0  0.82054873944E-01 -0.76440902432E+01 -0.39934058272E+02  0.50528833030E+02  0.29999918477E+02 0.  0.
        -12    1    1    2    0    0 -0.82054873944E-01  0.76440902432E+01  0.39934058272E+02  0.40659166970E+02  0.00000000000E+00 0.  1.
         11    1    3    3    0    0 -0.86793805325E+01 -0.34014982289E+01 -0.18669797543E+02  0.20867754484E+02  0.51100000000E-03 0. -1.
        -11    1    3    3    0    0  0.75491754404E+01 -0.46432866692E+01 -0.24568780821E+02  0.26118482962E+02  0.51100000000E-03 0.  1.
        -12    1    3    3    0    0  0.12122599661E+01  0.40069465481E+00  0.33045200926E+01  0.35425955843E+01  0.00000000000E+00 0.  1.
</event>
<event>
 7    1  0.9930326E-013  0.5052886E+02  0.7816164E-02  0.1300439E+00
        -11   -1    0    0    0    0  0.00000000000E+00  0.00000000000E+00  0.45593999997E+02  0.45594000000E+02  0.51100000000E-03 0.  1.
         11   -1    0    0    0    0 -0.00000000000E+00 -0.00000000000E+00 -0.45593999997E+02  0.45594000000E+02  0.51100000000E-03 0. -1.
    9900012    2    1    2    0    0 -0.11288540218E+02  0.17244171018E+02 -0.35048149284E+02  0.50528863971E+02  0.30000012527E+02 0.  0.
        -12    1    1    2    0    0  0.11288540218E+02 -0.17244171018E+02  0.35048149284E+02  0.40659136029E+02  0.00000000000E+00 0.  1.
         11    1    3    3    0    0 -0.46223736269E+01 -0.51623907231E+01 -0.12540583170E+02  0.14327694944E+02  0.51100000000E-03 0. -1.
        -11    1    3    3    0    0  0.47747242599E+01  0.10668780055E+02 -0.69293390016E+01  0.13588105051E+02  0.51100000000E-03 0.  1.
         12    1    3    3    0    0 -0.11440890851E+02  0.11737781687E+02 -0.15578227113E+02  0.22613063976E+02  0.00000000000E+00 0. -1.
</event>
<event>
 7    1  0.9930326E-013  0.5052885E+02  0.7816164E-02  0.1300439E+00
        -11   -1    0    0    0    0  0.00000000000E+00  0.00000000000E+00  0.45593999997E+02  0.45594000000E+02  0.51100000000E-03 0. -1.
         11   -1    0    0    0    0 -0.00000000000E+00 -0.00000000000E+00 -0.45593999997E+02  0.45594000000E+02  0.51100000000E-03 0.  1.
    9900012    2    1    2    0    0  0.25741565886E+02 -0.29672851307E+02  0.10490946576E+02  0.50528852456E+02  0.29999977525E+02 0.  0.
        -12    1    1    2    0    0 -0.25741565886E+02  0.29672851307E+02 -0.10490946576E+02  0.40659147544E+02  0.00000000000E+00 0.  1.
         11    1    3    3    0    0  0.19188828059E+02 -0.83254063521E+01  0.68671725171E+01  0.22015484820E+02  0.51100000000E-03 0. -1.
        -11    1    3    3    0    0 -0.52635290938E+01 -0.27008419914E+01  0.24608794589E+01  0.64074342725E+01  0.51100000000E-03 0.  1.
         12    1    3    3    0    0  0.11816266921E+02 -0.18646602964E+02  0.11628945998E+01  0.22105933364E+02  0.00000000000E+00 0. -1.
</event>
<event>
 7    1  0.9930326E-013  0.5052883E+02  0.7816164E-02  0.1300439E+00
        -11   -1    0    0    0    0  0.00000000000E+00  0.00000000000E+00  0.45593999997E+02  0.45594000000E+02  0.51100000000E-03 0.  1.
         11   -1    0    0    0    0 -0.00000000000E+00 -0.00000000000E+00 -0.45593999997E+02  0.45594000000E+02  0.51100000000E-03 0. -1.
    9900012    2    1    2    0    0 -0.18238158231E+02  0.99015811737E+01 -0.34964221105E+02  0.50528825354E+02  0.29999895147E+02 0.  0.
        -12    1    1    2    0    0  0.18238158231E+02 -0.99015811737E+01  0.34964221105E+02  0.40659174646E+02  0.00000000000E+00 0.  1.
         11    1    3    3    0    0 -0.21572261103E+02  0.15348442505E+02 -0.26634723541E+02  0.37554568761E+02  0.51100000000E-03 0. -1.
        -11    1    3    3    0    0 -0.22509055816E+00 -0.24514624195E+01 -0.79321808563E+01  0.83054095114E+01  0.51100000000E-03 0.  1.
         12    1    3    3    0    0  0.35591934304E+01 -0.29953989115E+01 -0.39731670738E+00  0.46688470825E+01  0.00000000000E+00 0. -1.
</event>
<event>
 7    1  0.9930326E-013  0.5052886E+02  0.7816164E-02  0.1300439E+00
        -11   -1    0    0    0    0  0.00000000000E+00  0.00000000000E+00  0.45593999997E+02  0.45594000000E+02  0.51100000000E-03 0.  1.
         11   -1    0    0    0    0 -0.00000000000E+00 -0.00000000000E+00 -0.45593999997E+02  0.45594000000E+02  0.51100000000E-03 0. -1.
    9900012    2    1    2    0    0 -0.17186347817E+02  0.18514325008E+02 -0.31859296138E+02  0.50528861640E+02  0.30000005440E+02 0.  0.
        -12    1    1    2    0    0  0.17186347817E+02 -0.18514325008E+02  0.31859296138E+02  0.40659138360E+02  0.00000000000E+00 0.  1.
         11    1    3    3    0    0  0.22012724478E+01  0.54755471491E+01 -0.34246884698E+01  0.68231743601E+01  0.51100000000E-03 0. -1.
        -11    1    3    3    0    0 -0.21964573355E+02  0.13891035403E+02 -0.15014748992E+02  0.30014097268E+02  0.51100000000E-03 0.  1.
        -12    1    3    3    0    0  0.25769530903E+01 -0.85225754428E+00 -0.13419858677E+02  0.13691590012E+02  0.00000000000E+00 0.  1.
</event>
<event>
 7    1  0.9930326E-013  0.5052887E+02  0.7816164E-02  0.1300439E+00
        -11   -1    0    0    0    0  0.00000000000E+00  0.00000000000E+00  0.45593999997E+02  0.45594000000E+02  0.51100000000E-03 0.  1.
         11   -1    0    0    0    0 -0.00000000000E+00 -0.00000000000E+00 -0.45593999997E+02  0.45594000000E+02  0.51100000000E-03 0. -1.
    9900012    2    1    2    0    0 -0.10372628378E+02  0.39117494607E+02  0.39236968524E+01  0.50528865715E+02  0.30000017829E+02 0.  0.
        -12    1    1    2    0    0  0.10372628378E+02 -0.39117494607E+02 -0.39236968524E+01  0.40659134285E+02  0.00000000000E+00 0.  1.
         11    1    3    3    0    0  0.69961081486E+00  0.20815893528E+02 -0.64048895736E+01  0.21790215450E+02  0.51100000000E-03 0. -1.
        -11    1    3    3    0    0 -0.14103959413E+02  0.17666937486E+02  0.11578055705E+02  0.25398695349E+02  0.51100000000E-03 0.  1.
        -12    1    3    3    0    0  0.30317202194E+01  0.63466359208E+00 -0.12494692786E+01  0.33399549162E+01  0.00000000000E+00 0.  1.
</event>
<event>
 7    1  0.9930326E-013  0.5052886E+02  0.7816164E-02  0.1300439E+00
        -11   -1    0    0    0    0  0.00000000000E+00  0.00000000000E+00  0.45593999997E+02  0.45594000000E+02  0.51100000000E-03 0. -1.
         11   -1    0    0    0    0 -0.00000000000E+00 -0.00000000000E+00 -0.45593999997E+02  0.45594000000E+02  0.51100000000E-03 0.  1.
    9900012    2    1    2    0    0  0.55450802319E+01 -0.52975249324E+01  0.39929359430E+02  0.50528862900E+02  0.30000009272E+02 0.  0.
        -12    1    1    2    0    0 -0.55450802319E+01  0.52975249324E+01 -0.39929359430E+02  0.40659137100E+02  0.00000000000E+00 0.  1.
         11    1    3    3    0    0  0.62006291979E+01  0.63638730888E+01  0.25646470840E+02  0.27141999741E+02  0.51100000000E-03 0. -1.
        -11    1    3    3    0    0 -0.54918394310E+01 -0.19401952595E+01  0.50710976628E+00  0.58465219197E+01  0.51100000000E-03 0.  1.
        -12    1    3    3    0    0  0.48362904651E+01 -0.97212027617E+01  0.13775778824E+02  0.17540341239E+02  0.00000000000E+00 0.  1.
</event>
<event>
 7    1  0.9930326E-013  0.5052885E+02  0.7816164E-02  0.1300439E+00
        -11   -1    0    0    0    0  0.00000000000E+00  0.00000000000E+00  0.45593999997E+02  0.45594000000E+02  0.51100000000E-03 0.  1.
         11   -1    0    0    0    0 -0.00000000000E+00 -0.00000000000E+00 -0.45593999997E+02  0.45594000000E+02  0.51100000000E-03 0. -1.
    9900012    2    1    2    0    0 -0.48235965899E+01 -0.13897293620E+02 -0.37904674405E+02  0.50528853480E+02  0.29999980636E+02 0.  0.
        -12    1    1    2    0    0  0.48235965899E+01  0.13897293620E+02  0.37904674405E+02  0.40659146520E+02  0.00000000000E+00 0.  1.
         11    1    3    3    0    0 -0.11648629459E+02  0.29699697503E+01 -0.80673242660E+01  0.14477327435E+02  0.51100000000E-03 0. -1.
        -11    1    3    3    0    0 -0.20659278587E+01 -0.36665336729E+01 -0.47994487712E+01  0.63832778304E+01  0.51100000000E-03 0.  1.
         12    1    3    3    0    0  0.88909607273E+01 -0.13200729697E+02 -0.25037901368E+02  0.29668248214E+02  0.00000000000E+00 0. -1.
</event>
<event>
 7    1  0.9930326E-013  0.5052886E+02  0.7816164E-02  0.1300439E+00
        -11   -1    0    0    0    0  0.00000000000E+00  0.00000000000E+00  0.45593999997E+02  0.45594000000E+02  0.51100000000E-03 0.  1.
         11   -1    0    0    0    0 -0.00000000000E+00 -0.00000000000E+00 -0.45593999997E+02  0.45594000000E+02  0.51100000000E-03 0. -1.
    9900012    2    1    2    0    0  0.23280648095E+01  0.32105648101E+02 -0.24838940817E+02  0.50528861954E+02  0.30000006395E+02 0.  0.
        -12    1    1    2    0    0 -0.23280648095E+01 -0.32105648101E+02  0.24838940817E+02  0.40659138046E+02  0.00000000000E+00 0.  1.
         11    1    3    3    0    0 -0.34216320857E+01  0.16774334104E+02 -0.24975337439E+02  0.30279586047E+02  0.51100000000E-03 0. -1.
        -11    1    3    3    0    0  0.34831868420E+01  0.14723564550E+02 -0.38602590068E+01  0.15614657969E+02  0.51100000000E-03 0.  1.
         12    1    3    3    0    0  0.22665100532E+01  0.60774944741E+00  0.39966556285E+01  0.46346179374E+01  0.00000000000E+00 0. -1.
</event>
<event>
 7    1  0.9930326E-013  0.5052885E+02  0.7816164E-02  0.1300439E+00
        -11   -1    0    0    0    0  0.00000000000E+00  0.00000000000E+00  0.45593999997E+02  0.45594000000E+02  0.51100000000E-03 0. -1.
         11   -1    0    0    0    0 -0.00000000000E+00 -0.00000000000E+00 -0.45593999997E+02  0.45594000000E+02  0.51100000000E-03 0.  1.
    9900012    2    1    2    0    0 -0.11830279956E+02 -0.14562051438E+02  0.36071558718E+02  0.50528853252E+02  0.29999979946E+02 0.  0.
        -12    1    1    2    0    0  0.11830279956E+02  0.14562051438E+02 -0.36071558718E+02  0.40659146748E+02  0.00000000000E+00 0.  1.
         11    1    3    3    0    0  0.13186250508E+01  0.64594485554E+01  0.37616945996E+01  0.75903619272E+01  0.51100000000E-03 0. -1.
        -11    1    3    3    0    0 -0.12331155350E+02 -0.18716610068E+02  0.33430096790E+02  0.40248481417E+02  0.51100000000E-03 0.  1.
        -12    1    3    3    0    0 -0.81774965701E+00 -0.23048899246E+01 -0.11202326719E+01  0.26900099080E+01  0.00000000000E+00 0.  1.
</event>
<event>
 7    1  0.9930326E-013  0.5052884E+02  0.7816164E-02  0.1300439E+00
        -11   -1    0    0    0    0  0.00000000000E+00  0.00000000000E+00  0.45593999997E+02  0.45594000000E+02  0.51100000000E-03 0. -1.
         11   -1    0    0    0    0 -0.00000000000E+00 -0.00000000000E+00 -0.45593999997E+02  0.45594000000E+02  0.51100000000E-03 0.  1.
    9900012    2    1    2    0    0  0.25485229476E+02 -0.19724188020E+02  0.24791663210E+02  0.50528842615E+02  0.29999947613E+02 0.  0.
        -12    1    1    2    0    0 -0.25485229476E+02  0.19724188020E+02 -0.24791663210E+02  0.40659157385E+02  0.00000000000E+00 0.  1.
         11    1    3    3    0    0  0.11419377019E+02  0.78308807778E+00 -0.71383765184E+00  0.11468433323E+02  0.51100000000E-03 0. -1.
        -11    1    3    3    0    0 -0.10014684801E+01 -0.12460239304E+02  0.10976639407E+02  0.16635718066E+02  0.51100000000E-03 0.  1.
        -12    1    3    3    0    0  0.15067320938E+02 -0.80470367935E+01  0.14528861455E+02  0.22424691226E+02  0.00000000000E+00 0.  1.
</event>
<event>
 7    1  0.9930326E-013  0.5052886E+02  0.7816164E-02  0.1300439E+00
        -11   -1    0    0    0    0  0.00000000000E+00  0.00000000000E+00  0.45593999997E+02  0.45594000000E+02  0.51100000000E-03 0.  1.
         11   -1    0    0    0    0 -0.00000000000E+00 -0.00000000000E+00 -0.45593999997E+02  0.45594000000E+02  0.51100000000E-03 0. -1.
    9900012    2    1    2    0    0 -0.35265724826E+02 -0.20235483346E+02  0.14014075314E+00  0.50528858676E+02  0.29999996433E+02 0.  0.
        -12    1    1    2    0    0  0.35265724826E+02  0.20235483346E+02 -0.14014075314E+00  0.40659141324E+02  0.00000000000E+00 0.  1.
         11    1    3    3    0    0 -0.22497366056E+02 -0.23959026127E+02  0.15419883018E+01  0.32902038548E+02  0.51100000000E-03 0. -1.
        -11    1    3    3    0    0 -0.38593305014E+01  0.41826608113E+01  0.42175982099E+01  0.70835879540E+01  0.51100000000E-03 0.  1.
         12    1    3    3    0    0 -0.89090282687E+01 -0.45911803060E+00 -0.56194457586E+01  0.10543232175E+02  0.00000000000E+00 0. -1.
</event>
<event>
 7    1  0.9930326E-013  0.5052887E+02  0.7816164E-02  0.1300439E+00
        -11   -1    0    0    0    0  0.00000000000E+00  0.00000000000E+00  0.45593999997E+02  0.45594000000E+02  0.51100000000E-03 0. -1.
         11   -1    0    0    0    0 -0.00000000000E+00 -0.00000000000E+00 -0.45593999997E+02  0.45594000000E+02  0.51100000000E-03 0.  1.
    9900012    2    1    2    0    0 -0.11110912076E+02  0.31196571545E+02  0.23589965746E+02  0.50528869079E+02  0.30000028053E+02 0.  0.
        -12    1    1    2    0    0  0.11110912076E+02 -0.31196571545E+02 -0.23589965746E+02  0.40659130921E+02  0.00000000000E+00 0.  1.
         11    1    3    3    0    0  0.63240008326E+01  0.11769572060E+02  0.64635171552E+01  0.14842266245E+02  0.51100000000E-03 0. -1.
        -11    1    3    3    0    0 -0.89072202247E+01  0.97244257913E+00 -0.21910175430E+00  0.89628244734E+01  0.51100000000E-03 0.  1.
        -12    1    3    3    0    0 -0.85276926840E+01  0.18454556907E+02  0.17345550345E+02  0.26723778361E+02  0.00000000000E+00 0.  1.
</event>
<event>
 7    1  0.9930326E-013  0.5052886E+02  0.7816164E-02  0.1300439E+00
        -11   -1    0    0    0    0  0.00000000000E+00  0.00000000000E+00  0.45593999997E+02  0.45594000000E+02  0.51100000000E-03 0.  1.
         11   -1    0    0    0    0 -0.00000000000E+00 -0.00000000000E+00 -0.45593999997E+02  0.45594000000E+02  0.51100000000E-03 0. -1.
    9900012    2    1    2    0    0  0.26267654163E+02  0.45874718793E+01 -0.30694152436E+02  0.50528861455E+02  0.30000004879E+02 0.  0.
        -12    1    1    2    0    0 -0.26267654163E+02 -0.45874718793E+01  0.30694152436E+02  0.40659138545E+02  0.00000000000E+00 0.  1.
         11    1    3    3    0    0  0.88775106693E+01 -0.54911343268E+01 -0.15367676741E+02  0.18577627420E+02  0.51100000000E-03 0. -1.
        -11    1    3    3    0    0  0.15244771473E+02  0.15140782190E+01 -0.12967814308E+01  0.15374561212E+02  0.51100000000E-03 0.  1.
        -12    1    3    3    0    0  0.21453720209E+01  0.85645279870E+01 -0.14029694264E+02  0.16576672824E+02  0.00000000000E+00 0.  1.
</event>
<event>
 7    1  0.9930326E-013  0.5052886E+02  0.7816164E-02  0.1300439E+00
        -11   -1    0    0    0    0  0.00000000000E+00  0.00000000000E+00  0.45593999997E+02  0.45594000000E+02  0.51100000000E-03 0.  1.
         11   -1    0    0    0    0 -0.00000000000E+00 -0.00000000000E+00 -0.45593999997E+02  0.45594000000E+02  0.51100000000E-03 0. -1.
    9900012    2    1    2    0    0 -0.22393862879E+02 -0.26078274351E+02  0.21716453268E+02  0.50528857974E+02  0.29999994299E+02 0.  0.
        -12    1    1    2    0    0  0.22393862879E+02  0.26078274351E+02 -0.21716453268E+02  0.40659142026E+02  0.00000000000E+00 0.  1.
         11    1    3    3    0    0 -0.14007870847E+02 -0.16052951186E+02  0.85325470662E+00  0.21322423204E+02  0.51100000000E-03 0. -1.
        -11    1    3    3    0    0 -0.98418967931E+01 -0.10647013244E+02  0.22603352801E+02  0.26853926745E+02  0.51100000000E-03 0.  1.
        -12    1    3    3    0    0  0.14559047614E+01  0.62169007910E+00 -0.17401542404E+01  0.23525080253E+01  0.00000000000E+00 0.  1.
</event>
<event>
 7    1  0.9930326E-013  0.5052885E+02  0.7816164E-02  0.1300439E+00
        -11   -1    0    0    0    0  0.00000000000E+00  0.00000000000E+00  0.45593999997E+02  0.45594000000E+02  0.51100000000E-03 0.  1.
         11   -1    0    0    0    0 -0.00000000000E+00 -0.00000000000E+00 -0.45593999997E+02  0.45594000000E+02  0.51100000000E-03 0. -1.
    9900012    2    1    2    0    0  0.40458023620E+02  0.32969922131E+01  0.23333194872E+01  0.50528853271E+02  0.29999980004E+02 0.  0.
        -12    1    1    2    0    0 -0.40458023620E+02 -0.32969922131E+01 -0.23333194872E+01  0.40659146729E+02  0.00000000000E+00 0.  1.
         11    1    3    3    0    0  0.28239781641E+02  0.87440046489E+01 -0.87296135456E+01  0.30824487625E+02  0.51100000000E-03 0. -1.
        -11    1    3    3    0    0  0.85817361536E+00 -0.27916377490E+01  0.65932689733E+01  0.72111649053E+01  0.51100000000E-03 0.  1.
         12    1    3    3    0    0  0.11360068363E+02 -0.26553746868E+01  0.44696640594E+01  0.12493200741E+02  0.00000000000E+00 0. -1.
</event>
<event>
 7    1  0.9930326E-013  0.5052885E+02  0.7816164E-02  0.1300439E+00
        -11   -1    0    0    0    0  0.00000000000E+00  0.00000000000E+00  0.45593999997E+02  0.45594000000E+02  0.51100000000E-03 0.  1.
         11   -1    0    0    0    0 -0.00000000000E+00 -0.00000000000E+00 -0.45593999997E+02  0.45594000000E+02  0.51100000000E-03 0. -1.
    9900012    2    1    2    0    0  0.37580043296E+02  0.21059865679E+00  0.15519733223E+02  0.50528854347E+02  0.29999983273E+02 0.  0.
        -12    1    1    2    0    0 -0.37580043296E+02 -0.21059865679E+00 -0.15519733223E+02  0.40659145653E+02  0.00000000000E+00 0.  1.
         11    1    3    3    0    0  0.40186392077E+02 -0.57362144367E+01  0.11778125925E+02  0.42267889878E+02  0.51100000000E-03 0. -1.
        -11    1    3    3    0    0 -0.78136107869E-01  0.33205558359E+01  0.31313524837E+01  0.45648181726E+01  0.51100000000E-03 0.  1.
         12    1    3    3    0    0 -0.25282126730E+01  0.26262572576E+01  0.61025481462E+00  0.36961462960E+01  0.00000000000E+00 0. -1.
</event>
<event>
 7    1  0.9930326E-013  0.5052886E+02  0.7816164E-02  0.1300439E+00
        -11   -1    0    0    0    0  0.00000000000E+00  0.00000000000E+00  0.45593999997E+02  0.45594000000E+02  0.51100000000E-03 0.  1.
         11   -1    0    0    0    0 -0.00000000000E+00 -0.00000000000E+00 -0.45593999997E+02  0.45594000000E+02  0.51100000000E-03 0. -1.
    9900012    2    1    2    0    0  0.23975116833E+02 -0.73427724859E+01 -0.32006920995E+02  0.50528861709E+02  0.30000005651E+02 0.  0.
        -12    1    1    2    0    0 -0.23975116833E+02  0.73427724859E+01  0.32006920995E+02  0.40659138291E+02  0.00000000000E+00 0.  1.
         11    1    3    3    0    0  0.17949352071E+02  0.57889349805E+01 -0.23634504626E+02  0.30237076862E+02  0.51100000000E-03 0. -1.
        -11    1    3    3    0    0  0.34803605537E+01 -0.14619109307E+02 -0.50583015750E+01  0.15856155953E+02  0.51100000000E-03 0.  1.
        -12    1    3    3    0    0  0.25454042083E+01  0.14874018405E+01 -0.33141147941E+01  0.44356288942E+01  0.00000000000E+00 0.  1.
</event>
<event>
 7    1  0.9930326E-013  0.5052886E+02  0.7816164E-02  0.1300439E+00
        -11   -1    0    0    0    0  0.00000000000E+00  0.00000000000E+00  0.45593999997E+02  0.45594000000E+02  0.51100000000E-03 0.  1.
         11   -1    0    0    0    0 -0.00000000000E+00 -0.00000000000E+00 -0.45593999997E+02  0.45594000000E+02  0.51100000000E-03 0. -1.
    9900012    2    1    2    0    0  0.12391196048E+02 -0.34594970341E+02 -0.17401493366E+02  0.50528859775E+02  0.29999999774E+02 0.  0.
        -12    1    1    2    0    0 -0.12391196048E+02  0.34594970341E+02  0.17401493366E+02  0.40659140225E+02  0.00000000000E+00 0.  1.
         11    1    3    3    0    0 -0.13321803727E+01 -0.22273579267E+02 -0.10136629278E+02  0.24507923031E+02  0.51100000000E-03 0. -1.
        -11    1    3    3    0    0  0.17406554920E+02 -0.80698530018E+01 -0.68809241591E+01  0.20382781930E+02  0.51100000000E-03 0.  1.
        -12    1    3    3    0    0 -0.36831784995E+01 -0.42515380729E+01 -0.38393992862E+00  0.56381548146E+01  0.00000000000E+00 0.  1.
</event>
<event>
 7    1  0.9930326E-013  0.5052886E+02  0.7816164E-02  0.1300439E+00
        -11   -1    0    0    0    0  0.00000000000E+00  0.00000000000E+00  0.45593999997E+02  0.45594000000E+02  0.51100000000E-03 0.  1.
         11   -1    0    0    0    0 -0.00000000000E+00 -0.00000000000E+00 -0.45593999997E+02  0.45594000000E+02  0.51100000000E-03 0. -1.
    9900012    2    1    2    0    0  0.93603801898E+01  0.52028201937E+01 -0.39223457523E+02  0.50528859880E+02  0.30000000091E+02 0.  0.
        -12    1    1    2    0    0 -0.93603801898E+01 -0.52028201937E+01  0.39223457523E+02  0.40659140120E+02  0.00000000000E+00 0.  1.
         11    1    3    3    0    0 -0.15390585707E+01  0.10844759808E+02 -0.15969713090E+02  0.19365155641E+02  0.51100000000E-03 0. -1.
        -11    1    3    3    0    0  0.53443888611E+01 -0.98876081772E+01 -0.20998392133E+02  0.23817215626E+02  0.51100000000E-03 0.  1.
         12    1    3    3    0    0  0.55550498995E+01  0.42456685633E+01 -0.22553522997E+01  0.73464886123E+01  0.00000000000E+00 0. -1.
</event>
<event>
 7    1  0.9930326E-013  0.5052886E+02  0.7816164E-02  0.1300439E+00
        -11   -1    0    0    0    0  0.00000000000E+00  0.00000000000E+00  0.45593999997E+02  0.45594000000E+02  0.51100000000E-03 0.  1.
         11   -1    0    0    0    0 -0.00000000000E+00 -0.00000000000E+00 -0.45593999997E+02  0.45594000000E+02  0.51100000000E-03 0. -1.
    9900012    2    1    2    0    0  0.24726897824E+02 -0.14248213530E+02 -0.28960920796E+02  0.50528855909E+02  0.29999988022E+02 0.  0.
        -12    1    1    2    0    0 -0.24726897824E+02  0.14248213530E+02  0.28960920796E+02  0.40659144091E+02  0.00000000000E+00 0.  1.
         11    1    3    3    0    0  0.22579064763E+02 -0.12900325188E+02 -0.14213051764E+02  0.29635171608E+02  0.51100000000E-03 0. -1.
        -11    1    3    3    0    0 -0.20622795054E+01  0.97737823823E+00 -0.15805328824E+02  0.15969241825E+02  0.51100000000E-03 0.  1.
        -12    1    3    3    0    0  0.42101125665E+01 -0.23252665805E+01  0.10574597911E+01  0.49244424763E+01  0.00000000000E+00 0.  1.
</event>
<event>
 7    1  0.9930326E-013  0.5052884E+02  0.7816164E-02  0.1300439E+00
        -11   -1    0    0    0    0  0.00000000000E+00  0.00000000000E+00  0.45593999997E+02  0.45594000000E+02  0.51100000000E-03 0.  1.
         11   -1    0    0    0    0 -0.00000000000E+00 -0.00000000000E+00 -0.45593999997E+02  0.45594000000E+02  0.51100000000E-03 0. -1.
    9900012    2    1    2    0    0 -0.13642852023E+02  0.37374326077E+02 -0.83785203440E+01  0.50528840341E+02  0.29999940700E+02 0.  0.
        -12    1    1    2    0    0  0.13642852023E+02 -0.37374326077E+02  0.83785203440E+01  0.40659159659E+02  0.00000000000E+00 0.  1.
         11    1    3    3    0    0 -0.13008248878E+02  0.42451520671E+01 -0.36815041617E+01  0.14170015106E+02  0.51100000000E-03 0. -1.
        -11    1    3    3    0    0 -0.65586598989E+01  0.25392034055E+02 -0.23155924079E+01  0.26327426413E+02  0.51100000000E-03 0.  1.
         12    1    3    3    0    0  0.59240567539E+01  0.77371399555E+01 -0.23814237744E+01  0.10031398821E+02  0.00000000000E+00 0. -1.
</event>
<event>
 7    1  0.9930326E-013  0.5052886E+02  0.7816164E-02  0.1300439E+00
        -11   -1    0    0    0    0  0.00000000000E+00  0.00000000000E+00  0.45593999997E+02  0.45594000000E+02  0.51100000000E-03 0.  1.
         11   -1    0    0    0    0 -0.00000000000E+00 -0.00000000000E+00 -0.45593999997E+02  0.45594000000E+02  0.51100000000E-03 0. -1.
    9900012    2    1    2    0    0  0.19947147038E+02 -0.35392168532E+02 -0.16343492599E+01  0.50528863685E+02  0.30000011657E+02 0.  0.
        -12    1    1    2    0    0 -0.19947147038E+02  0.35392168532E+02  0.16343492599E+01  0.40659136315E+02  0.00000000000E+00 0.  1.
         11    1    3    3    0    0 -0.11609114624E+01 -0.10350769701E+02  0.80006429217E+01  0.13133789866E+02  0.51100000000E-03 0.  1.
        -11    1    3    3    0    0  0.12573573252E+02 -0.52370576257E+01 -0.79343823088E+01  0.15763119608E+02  0.51100000000E-03 0. -1.
        -12    1    3    3    0    0  0.85344852482E+01 -0.19804341206E+02 -0.17006098728E+01  0.21631954211E+02  0.00000000000E+00 0.  1.
</event>
<event>
 7    1  0.9930326E-013  0.5052885E+02  0.7816164E-02  0.1300439E+00
        -11   -1    0    0    0    0  0.00000000000E+00  0.00000000000E+00  0.45593999997E+02  0.45594000000E+02  0.51100000000E-03 0. -1.
         11   -1    0    0    0    0 -0.00000000000E+00 -0.00000000000E+00 -0.45593999997E+02  0.45594000000E+02  0.51100000000E-03 0.  1.
    9900012    2    1    2    0    0 -0.25079901868E+02 -0.28718791675E+02  0.14120758434E+02  0.50528852300E+02  0.29999977051E+02 0.  0.
        -12    1    1    2    0    0  0.25079901868E+02  0.28718791675E+02 -0.14120758434E+02  0.40659147700E+02  0.00000000000E+00 0.  1.
         11    1    3    3    0    0 -0.26216793334E+02 -0.13764760888E+02  0.86485527397E+00  0.29623248808E+02  0.51100000000E-03 0. -1.
        -11    1    3    3    0    0 -0.11232274531E+01 -0.13002264607E+02  0.96916891825E+01  0.16255748654E+02  0.51100000000E-03 0.  1.
         12    1    3    3    0    0  0.22601189189E+01 -0.19517661798E+01  0.35642139772E+01  0.46498548389E+01  0.00000000000E+00 0. -1.
</event>
<event>
 7    1  0.9930326E-013  0.5052900E+02  0.7816164E-02  0.1300438E+00
        -11   -1    0    0    0    0  0.00000000000E+00  0.00000000000E+00  0.45593999997E+02  0.45594000000E+02  0.51100000000E-03 0. -1.
         11   -1    0    0    0    0 -0.00000000000E+00 -0.00000000000E+00 -0.45593999997E+02  0.45594000000E+02  0.51100000000E-03 0.  1.
    9900012    2    1    2    0    0  0.17981998109E+02  0.19533616488E+02  0.30793506094E+02  0.50528997963E+02  0.30000419804E+02 0.  0.
        -12    1    1    2    0    0 -0.17981998109E+02 -0.19533616488E+02 -0.30793506094E+02  0.40659002037E+02  0.00000000000E+00 0.  1.
         11    1    3    3    0    0  0.83227850279E+01  0.11663107551E+02  0.13261911214E+02  0.19523706555E+02  0.51100000000E-03 0. -1.
        -11    1    3    3    0    0  0.13045792906E+01 -0.76885696128E+01  0.67503719145E+01  0.10314240208E+02  0.51100000000E-03 0.  1.
        -12    1    3    3    0    0  0.83546337909E+01  0.15559078550E+02  0.10781222966E+02  0.20691051200E+02  0.00000000000E+00 0.  1.
</event>
<event>
 7    1  0.9930326E-013  0.5052886E+02  0.7816164E-02  0.1300439E+00
        -11   -1    0    0    0    0  0.00000000000E+00  0.00000000000E+00  0.45593999997E+02  0.45594000000E+02  0.51100000000E-03 0.  1.
         11   -1    0    0    0    0 -0.00000000000E+00 -0.00000000000E+00 -0.45593999997E+02  0.45594000000E+02  0.51100000000E-03 0. -1.
    9900012    2    1    2    0    0  0.49215216373E+01 -0.18764777740E+02 -0.35732723309E+02  0.50528858667E+02  0.29999996403E+02 0.  0.
        -12    1    1    2    0    0 -0.49215216373E+01  0.18764777740E+02  0.35732723309E+02  0.40659141333E+02  0.00000000000E+00 0.  1.
         11    1    3    3    0    0 -0.16542938331E-01  0.72183847835E+01 -0.69370400279E+01  0.10011387374E+02  0.51100000000E-03 0. -1.
        -11    1    3    3    0    0  0.81938912993E+01 -0.16197671328E+02 -0.19367634433E+02  0.26544484830E+02  0.51100000000E-03 0.  1.
         12    1    3    3    0    0 -0.32558267237E+01 -0.97854911959E+01 -0.94280488481E+01  0.13972986463E+02  0.00000000000E+00 0. -1.
</event>
<event>
 7    1  0.9930326E-013  0.5052886E+02  0.7816164E-02  0.1300439E+00
        -11   -1    0    0    0    0  0.00000000000E+00  0.00000000000E+00  0.45593999997E+02  0.45594000000E+02  0.51100000000E-03 0.  1.
         11   -1    0    0    0    0 -0.00000000000E+00 -0.00000000000E+00 -0.45593999997E+02  0.45594000000E+02  0.51100000000E-03 0. -1.
    9900012    2    1    2    0    0 -0.36001110101E+02 -0.84929907164E+01  0.16880595673E+02  0.50528864125E+02  0.30000012995E+02 0.  0.
        -12    1    1    2    0    0  0.36001110101E+02  0.84929907164E+01 -0.16880595673E+02  0.40659135875E+02  0.00000000000E+00 0.  1.
         11    1    3    3    0    0  0.37207052274E+01  0.15319501473E+00  0.61704847296E+01  0.72070797250E+01  0.51100000000E-03 0.  1.
        -11    1    3    3    0    0 -0.91546936614E+01 -0.43877885867E+01  0.67857501777E+01  0.12210958621E+02  0.51100000000E-03 0. -1.
         12    1    3    3    0    0 -0.30567121667E+02 -0.42583971444E+01  0.39243607656E+01  0.31110825779E+02  0.00000000000E+00 0. -1.
</event>
<event>
 7    1  0.9930326E-013  0.5052873E+02  0.7816164E-02  0.1300439E+00
        -11   -1    0    0    0    0  0.00000000000E+00  0.00000000000E+00  0.45593999997E+02  0.45594000000E+02  0.51100000000E-03 0.  1.
         11   -1    0    0    0    0 -0.00000000000E+00 -0.00000000000E+00 -0.45593999997E+02  0.45594000000E+02  0.51100000000E-03 0. -1.
    9900012    2    1    2    0    0  0.28778582616E+02 -0.11281922165E+02 -0.26413771737E+02  0.50528733867E+02  0.29999617059E+02 0.  0.
        -12    1    1    2    0    0 -0.28778582616E+02  0.11281922165E+02  0.26413771737E+02  0.40659266133E+02  0.00000000000E+00 0.  1.
         11    1    3    3    0    0  0.29406972336E+02 -0.45107068928E+01 -0.21878338163E+02  0.36929367442E+02  0.51100000000E-03 0. -1.
        -11    1    3    3    0    0 -0.46110619829E+01 -0.25829802870E+01  0.12400274265E+01  0.54287519793E+01  0.51100000000E-03 0.  1.
         12    1    3    3    0    0  0.39826722629E+01 -0.41882349849E+01 -0.57754610005E+01  0.81706144451E+01  0.00000000000E+00 0. -1.
</event>
<event>
 7    1  0.9930326E-013  0.5052886E+02  0.7816164E-02  0.1300439E+00
        -11   -1    0    0    0    0  0.00000000000E+00  0.00000000000E+00  0.45593999997E+02  0.45594000000E+02  0.51100000000E-03 0. -1.
         11   -1    0    0    0    0 -0.00000000000E+00 -0.00000000000E+00 -0.45593999997E+02  0.45594000000E+02  0.51100000000E-03 0.  1.
    9900012    2    1    2    0    0 -0.70197052198E+01 -0.38991039007E+02 -0.91426518748E+01  0.50528862435E+02  0.30000007857E+02 0.  0.
        -12    1    1    2    0    0  0.70197052198E+01  0.38991039007E+02  0.91426518748E+01  0.40659137565E+02  0.00000000000E+00 0.  1.
         11    1    3    3    0    0  0.33801083945E+01 -0.11850899902E+01  0.52344322410E+01  0.63426218703E+01  0.51100000000E-03 0. -1.
        -11    1    3    3    0    0 -0.21274523949E+01 -0.66109138808E+01 -0.91584341259E+01  0.11493787536E+02  0.51100000000E-03 0.  1.
         12    1    3    3    0    0 -0.82723612194E+01 -0.31195035136E+02 -0.52186499898E+01  0.32692453028E+02  0.00000000000E+00 0. -1.
</event>
<event>
 7    1  0.9930326E-013  0.5052886E+02  0.7816164E-02  0.1300439E+00
        -11   -1    0    0    0    0  0.00000000000E+00  0.00000000000E+00  0.45593999997E+02  0.45594000000E+02  0.51100000000E-03 0.  1.
         11   -1    0    0    0    0 -0.00000000000E+00 -0.00000000000E+00 -0.45593999997E+02  0.45594000000E+02  0.51100000000E-03 0. -1.
    9900012    2    1    2    0    0  0.18613790993E+02  0.50684648429E+01 -0.35791108302E+02  0.50528856078E+02  0.29999988535E+02 0.  0.
        -12    1    1    2    0    0 -0.18613790993E+02 -0.50684648429E+01  0.35791108302E+02  0.40659143922E+02  0.00000000000E+00 0.  1.
         11    1    3    3    0    0  0.10733676828E+02  0.73459336580E-01 -0.20975373804E+01  0.10936950116E+02  0.51100000000E-03 0. -1.
        -11    1    3    3    0    0  0.55418078902E+01  0.11749940578E+02 -0.26151517578E+02  0.29200592634E+02  0.51100000000E-03 0.  1.
         12    1    3    3    0    0  0.23383062751E+01 -0.67549350714E+01 -0.75420533436E+01  0.10391313329E+02  0.00000000000E+00 0. -1.
</event>
<event>
 7    1  0.9930326E-013  0.5052886E+02  0.7816164E-02  0.1300439E+00
        -11   -1    0    0    0    0  0.00000000000E+00  0.00000000000E+00  0.45593999997E+02  0.45594000000E+02  0.51100000000E-03 0. -1.
         11   -1    0    0    0    0 -0.00000000000E+00 -0.00000000000E+00 -0.45593999997E+02  0.45594000000E+02  0.51100000000E-03 0.  1.
    9900012    2    1    2    0    0 -0.91362688038E+01  0.24391800374E+02  0.31220737701E+02  0.50528858400E+02  0.29999995591E+02 0.  0.
        -12    1    1    2    0    0  0.91362688038E+01 -0.24391800374E+02 -0.31220737701E+02  0.40659141600E+02  0.00000000000E+00 0.  1.
         11    1    3    3    0    0 -0.25447579737E+01  0.91291020050E+01  0.18844949743E+02  0.21093800692E+02  0.51100000000E-03 0. -1.
        -11    1    3    3    0    0 -0.14106390654E+02  0.11726313807E+02  0.76123873106E+01  0.19860642830E+02  0.51100000000E-03 0.  1.
        -12    1    3    3    0    0  0.75148798236E+01  0.35363845615E+01  0.47634006470E+01  0.95744148778E+01  0.00000000000E+00 0.  1.
</event>
<event>
 7    1  0.9930326E-013  0.5052887E+02  0.7816164E-02  0.1300439E+00
        -11   -1    0    0    0    0  0.00000000000E+00  0.00000000000E+00  0.45593999997E+02  0.45594000000E+02  0.51100000000E-03 0.  1.
         11   -1    0    0    0    0 -0.00000000000E+00 -0.00000000000E+00 -0.45593999997E+02  0.45594000000E+02  0.51100000000E-03 0. -1.
    9900012    2    1    2    0    0 -0.15030417860E+02  0.31377360111E+02 -0.21040736660E+02  0.50528870794E+02  0.30000033265E+02 0.  0.
        -12    1    1    2    0    0  0.15030417860E+02 -0.31377360111E+02  0.21040736660E+02  0.40659129206E+02  0.00000000000E+00 0.  1.
         11    1    3    3    0    0 -0.27785474595E+01  0.16423467858E+00 -0.62407192039E+01  0.68332917001E+01  0.51100000000E-03 0. -1.
        -11    1    3    3    0    0 -0.94893922060E+01  0.30721757382E+02 -0.19943376830E+02  0.37836665032E+02  0.51100000000E-03 0.  1.
        -12    1    3    3    0    0 -0.27624781946E+01  0.49136805059E+00  0.51433593741E+01  0.58589140622E+01  0.00000000000E+00 0.  1.
</event>
<event>
 7    1  0.9930326E-013  0.5052877E+02  0.7816164E-02  0.1300439E+00
        -11   -1    0    0    0    0  0.00000000000E+00  0.00000000000E+00  0.45593999997E+02  0.45594000000E+02  0.51100000000E-03 0.  1.
         11   -1    0    0    0    0 -0.00000000000E+00 -0.00000000000E+00 -0.45593999997E+02  0.45594000000E+02  0.51100000000E-03 0. -1.
    9900012    2    1    2    0    0 -0.24378328560E+02  0.30020558146E+02 -0.12555339820E+02  0.50528765222E+02  0.29999712368E+02 0.  0.
        -12    1    1    2    0    0  0.24378328560E+02 -0.30020558146E+02  0.12555339820E+02  0.40659234778E+02  0.00000000000E+00 0.  1.
         11    1    3    3    0    0 -0.19550036827E+02  0.33130574449E+02 -0.95672234475E+01  0.39640518009E+02  0.51100000000E-03 0. -1.
        -11    1    3    3    0    0 -0.38298154021E+01 -0.20659914959E+01 -0.60792700141E+01  0.74761842567E+01  0.51100000000E-03 0.  1.
         12    1    3    3    0    0 -0.99847633078E+00 -0.10440248076E+01  0.30911536420E+01  0.34120629567E+01  0.00000000000E+00 0. -1.
</event>
<event>
 7    1  0.9930326E-013  0.5052886E+02  0.7816164E-02  0.1300439E+00
        -11   -1    0    0    0    0  0.00000000000E+00  0.00000000000E+00  0.45593999997E+02  0.45594000000E+02  0.51100000000E-03 0. -1.
         11   -1    0    0    0    0 -0.00000000000E+00 -0.00000000000E+00 -0.45593999997E+02  0.45594000000E+02  0.51100000000E-03 0.  1.
    9900012    2    1    2    0    0  0.96001959714E+01  0.33245371557E+02  0.21348242380E+02  0.50528856559E+02  0.29999989997E+02 0.  0.
        -12    1    1    2    0    0 -0.96001959714E+01 -0.33245371557E+02 -0.21348242380E+02  0.40659143441E+02  0.00000000000E+00 0.  1.
         11    1    3    3    0    0  0.13176296379E+02  0.14267494191E+02  0.10507653315E+02  0.22081371226E+02  0.51100000000E-03 0.  1.
        -11    1    3    3    0    0 -0.34014539427E+01  0.14311902766E+01  0.10245509156E+02  0.10889841719E+02  0.51100000000E-03 0. -1.
        -12    1    3    3    0    0 -0.17464646524E+00  0.17546687089E+02  0.59507990897E+00  0.17557643614E+02  0.00000000000E+00 0.  1.
</event>
<event>
 7    1  0.9930326E-013  0.5052886E+02  0.7816164E-02  0.1300439E+00
        -11   -1    0    0    0    0  0.00000000000E+00  0.00000000000E+00  0.45593999997E+02  0.45594000000E+02  0.51100000000E-03 0. -1.
         11   -1    0    0    0    0 -0.00000000000E+00 -0.00000000000E+00 -0.45593999997E+02  0.45594000000E+02  0.51100000000E-03 0.  1.
    9900012    2    1    2    0    0  0.69719061243E+01 -0.38745883338E+02 -0.10164379230E+02  0.50528861350E+02  0.30000004559E+02 0.  0.
        -12    1    1    2    0    0 -0.69719061243E+01  0.38745883338E+02  0.10164379230E+02  0.40659138650E+02  0.00000000000E+00 0.  1.
         11    1    3    3    0    0  0.78237604193E+01 -0.23166637413E+02 -0.14915969294E+02  0.28642458979E+02  0.51100000000E-03 0.  1.
        -11    1    3    3    0    0 -0.49537747851E+01 -0.16054332232E+02  0.55227906609E+01  0.17685663261E+02  0.51100000000E-03 0. -1.
        -12    1    3    3    0    0  0.41019204901E+01  0.47508630723E+00 -0.77120059688E+00  0.42007391096E+01  0.00000000000E+00 0.  1.
</event>
<event>
 7    1  0.9930326E-013  0.5052887E+02  0.7816164E-02  0.1300439E+00
        -11   -1    0    0    0    0  0.00000000000E+00  0.00000000000E+00  0.45593999997E+02  0.45594000000E+02  0.51100000000E-03 0.  1.
         11   -1    0    0    0    0 -0.00000000000E+00 -0.00000000000E+00 -0.45593999997E+02  0.45594000000E+02  0.51100000000E-03 0. -1.
    9900012    2    1    2    0    0  0.53164399946E+01  0.25348180838E+02 -0.31342779515E+02  0.50528872689E+02  0.30000039025E+02 0.  0.
        -12    1    1    2    0    0 -0.53164399946E+01 -0.25348180838E+02  0.31342779515E+02  0.40659127311E+02  0.00000000000E+00 0.  1.
         11    1    3    3    0    0  0.11730742797E+02  0.12025319795E+01 -0.83847923350E+01  0.14469317623E+02  0.51100000000E-03 0. -1.
        -11    1    3    3    0    0 -0.45514022176E+01  0.20744284272E+01 -0.15037752178E+01  0.52230121207E+01  0.51100000000E-03 0.  1.
         12    1    3    3    0    0 -0.18629005845E+01  0.22071220431E+02 -0.21454211962E+02  0.30836542945E+02  0.00000000000E+00 0. -1.
</event>
<event>
 7    1  0.9930326E-013  0.5052886E+02  0.7816164E-02  0.1300439E+00
        -11   -1    0    0    0    0  0.00000000000E+00  0.00000000000E+00  0.45593999997E+02  0.45594000000E+02  0.51100000000E-03 0. -1.
         11   -1    0    0    0    0 -0.00000000000E+00 -0.00000000000E+00 -0.45593999997E+02  0.45594000000E+02  0.51100000000E-03 0.  1.
    9900012    2    1    2    0    0 -0.30004975007E+02 -0.25438616270E+02  0.10283200683E+02  0.50528856635E+02  0.29999990227E+02 0.  0.
        -12    1    1    2    0    0  0.30004975007E+02  0.25438616270E+02 -0.10283200683E+02  0.40659143365E+02  0.00000000000E+00 0.  1.
         11    1    3    3    0    0 -0.92417495830E+01 -0.10872705366E+02  0.71395507989E+01  0.15956153772E+02  0.51100000000E-03 0. -1.
        -11    1    3    3    0    0 -0.22324633093E+02 -0.30673415142E+01 -0.60165760712E-01  0.22534450223E+02  0.51100000000E-03 0.  1.
        -12    1    3    3    0    0  0.15614076686E+01 -0.11498569390E+02  0.32038156452E+01  0.12038252639E+02  0.00000000000E+00 0.  1.
</event>
<event>
 7    1  0.9930326E-013  0.5052886E+02  0.7816164E-02  0.1300439E+00
        -11   -1    0    0    0    0  0.00000000000E+00  0.00000000000E+00  0.45593999997E+02  0.45594000000E+02  0.51100000000E-03 0.  1.
         11   -1    0    0    0    0 -0.00000000000E+00 -0.00000000000E+00 -0.45593999997E+02  0.45594000000E+02  0.51100000000E-03 0. -1.
    9900012    2    1    2    0    0  0.33327907798E+02  0.25267080860E+01 -0.23152361344E+02  0.50528861694E+02  0.30000005606E+02 0.  0.
        -12    1    1    2    0    0 -0.33327907798E+02 -0.25267080860E+01  0.23152361344E+02  0.40659138306E+02  0.00000000000E+00 0.  1.
         11    1    3    3    0    0  0.24074629016E+02  0.46408872744E+01 -0.26007822512E+02  0.35742585651E+02  0.51100000000E-03 0. -1.
        -11    1    3    3    0    0  0.56177509320E+00  0.38283492151E+01  0.15838216403E+01  0.41809496789E+01  0.51100000000E-03 0.  1.
         12    1    3    3    0    0  0.86915036896E+01 -0.59425284035E+01  0.12716395278E+01  0.10605326365E+02  0.00000000000E+00 0. -1.
</event>
<event>
 7    1  0.9930326E-013  0.5052893E+02  0.7816164E-02  0.1300439E+00
        -11   -1    0    0    0    0  0.00000000000E+00  0.00000000000E+00  0.45593999997E+02  0.45594000000E+02  0.51100000000E-03 0. -1.
         11   -1    0    0    0    0 -0.00000000000E+00 -0.00000000000E+00 -0.45593999997E+02  0.45594000000E+02  0.51100000000E-03 0.  1.
    9900012    2    1    2    0    0 -0.13489938019E+02 -0.26751621410E+01  0.38262585209E+02  0.50528925403E+02  0.30000199254E+02 0.  0.
        -12    1    1    2    0    0  0.13489938019E+02  0.26751621410E+01 -0.38262585209E+02  0.40659074597E+02  0.00000000000E+00 0.  1.
         11    1    3    3    0    0 -0.16661401264E+02 -0.34566160097E+01  0.31660054549E+02  0.35943143165E+02  0.51100000000E-03 0. -1.
        -11    1    3    3    0    0  0.28736793716E+01  0.61476726271E+00 -0.34474562621E+01  0.45300029645E+01  0.51100000000E-03 0.  1.
         12    1    3    3    0    0  0.29778387316E+00  0.16668660599E+00  0.10049986922E+02  0.10055779273E+02  0.00000000000E+00 0. -1.
</event>
<event>
 7    1  0.9930326E-013  0.5052885E+02  0.7816164E-02  0.1300439E+00
        -11   -1    0    0    0    0  0.00000000000E+00  0.00000000000E+00  0.45593999997E+02  0.45594000000E+02  0.51100000000E-03 0. -1.
         11   -1    0    0    0    0 -0.00000000000E+00 -0.00000000000E+00 -0.45593999997E+02  0.45594000000E+02  0.51100000000E-03 0.  1.
    9900012    2    1    2    0    0 -0.15374048661E+02 -0.28557027350E+02  0.24521440979E+02  0.50528852800E+02  0.29999978572E+02 0.  0.
        -12    1    1    2    0    0  0.15374048661E+02  0.28557027350E+02 -0.24521440979E+02  0.40659147200E+02  0.00000000000E+00 0.  1.
         11    1    3    3    0    0 -0.15161358026E+02 -0.12996895550E+02  0.28519053474E+01  0.20172244186E+02  0.51100000000E-03 0. -1.
        -11    1    3    3    0    0  0.37675294178E+01  0.34530724655E+00  0.88838992502E+00  0.38862259235E+01  0.51100000000E-03 0.  1.
         12    1    3    3    0    0 -0.39802200532E+01 -0.15905439046E+02  0.20781145706E+02  0.26470382691E+02  0.00000000000E+00 0. -1.
</event>
<event>
 7    1  0.9930326E-013  0.5052886E+02  0.7816164E-02  0.1300439E+00
        -11   -1    0    0    0    0  0.00000000000E+00  0.00000000000E+00  0.45593999997E+02  0.45594000000E+02  0.51100000000E-03 0.  1.
         11   -1    0    0    0    0 -0.00000000000E+00 -0.00000000000E+00 -0.45593999997E+02  0.45594000000E+02  0.51100000000E-03 0. -1.
    9900012    2    1    2    0    0 -0.35448425678E+02  0.39407583244E+01 -0.19520374702E+02  0.50528862187E+02  0.30000007102E+02 0.  0.
        -12    1    1    2    0    0  0.35448425678E+02 -0.39407583244E+01  0.19520374702E+02  0.40659137813E+02  0.00000000000E+00 0.  1.
         11    1    3    3    0    0 -0.19409537541E+02 -0.16104958482E+01  0.43172185128E+01  0.19948990460E+02  0.51100000000E-03 0. -1.
        -11    1    3    3    0    0 -0.70694705233E+01  0.37439026742E+01 -0.18076524993E+02  0.19767523285E+02  0.51100000000E-03 0.  1.
         12    1    3    3    0    0 -0.89694176141E+01  0.18073514984E+01 -0.57610682214E+01  0.10812348442E+02  0.00000000000E+00 0. -1.
</event>
<event>
 7    1  0.9930326E-013  0.5052886E+02  0.7816164E-02  0.1300439E+00
        -11   -1    0    0    0    0  0.00000000000E+00  0.00000000000E+00  0.45593999997E+02  0.45594000000E+02  0.51100000000E-03 0.  1.
         11   -1    0    0    0    0 -0.00000000000E+00 -0.00000000000E+00 -0.45593999997E+02  0.45594000000E+02  0.51100000000E-03 0. -1.
    9900012    2    1    2    0    0 -0.18837227630E+02  0.33611180214E+02 -0.12985114299E+02  0.50528858672E+02  0.29999996421E+02 0.  0.
        -12    1    1    2    0    0  0.18837227630E+02 -0.33611180214E+02  0.12985114299E+02  0.40659141328E+02  0.00000000000E+00 0.  1.
         11    1    3    3    0    0 -0.46575664892E+01  0.21697299056E+02 -0.87734745307E+01  0.23862932920E+02  0.51100000000E-03 0. -1.
        -11    1    3    3    0    0 -0.18333717456E+02  0.64182931281E+01 -0.26795635762E+01  0.19608665015E+02  0.51100000000E-03 0.  1.
        -12    1    3    3    0    0  0.41540563155E+01  0.54955880291E+01 -0.15320761916E+01  0.70572607374E+01  0.00000000000E+00 0.  1.
</event>
<event>
 7    1  0.9930326E-013  0.5052885E+02  0.7816164E-02  0.1300439E+00
        -11   -1    0    0    0    0  0.00000000000E+00  0.00000000000E+00  0.45593999997E+02  0.45594000000E+02  0.51100000000E-03 0. -1.
         11   -1    0    0    0    0 -0.00000000000E+00 -0.00000000000E+00 -0.45593999997E+02  0.45594000000E+02  0.51100000000E-03 0.  1.
    9900012    2    1    2    0    0 -0.40272771131E+02 -0.55747749184E+01 -0.43845878776E+00  0.50528850278E+02  0.29999970905E+02 0.  0.
        -12    1    1    2    0    0  0.40272771131E+02  0.55747749184E+01  0.43845878776E+00  0.40659149722E+02  0.00000000000E+00 0.  1.
         11    1    3    3    0    0 -0.21257917032E+02  0.64202430340E+01 -0.15535422319E+01  0.22260549204E+02  0.51100000000E-03 0. -1.
        -11    1    3    3    0    0 -0.17669294375E+02 -0.12045452843E+02  0.67893944696E+01  0.22436416279E+02  0.51100000000E-03 0.  1.
        -12    1    3    3    0    0 -0.13455597249E+01  0.50434890931E-01 -0.56743110255E+01  0.58318847953E+01  0.00000000000E+00 0.  1.
</event>
<event>
 7    1  0.9930326E-013  0.5052886E+02  0.7816164E-02  0.1300439E+00
        -11   -1    0    0    0    0  0.00000000000E+00  0.00000000000E+00  0.45593999997E+02  0.45594000000E+02  0.51100000000E-03 0.  1.
         11   -1    0    0    0    0 -0.00000000000E+00 -0.00000000000E+00 -0.45593999997E+02  0.45594000000E+02  0.51100000000E-03 0. -1.
    9900012    2    1    2    0    0  0.25677245310E+02  0.23686725191E+02 -0.20803447224E+02  0.50528864576E+02  0.30000014365E+02 0.  0.
        -12    1    1    2    0    0 -0.25677245310E+02 -0.23686725191E+02  0.20803447224E+02  0.40659135424E+02  0.00000000000E+00 0.  1.
         11    1    3    3    0    0 -0.31247465328E+01  0.45954275498E+01 -0.11742405137E+02  0.12990999728E+02  0.51100000000E-03 0. -1.
        -11    1    3    3    0    0  0.29366204203E+02  0.16442079126E+02 -0.77889331004E+01  0.34545381665E+02  0.51100000000E-03 0.  1.
        -12    1    3    3    0    0 -0.56421235930E+00  0.26492185153E+01 -0.12721089866E+01  0.29924831833E+01  0.00000000000E+00 0.  1.
</event>
<event>
 7    1  0.9930326E-013  0.5052884E+02  0.7816164E-02  0.1300439E+00
        -11   -1    0    0    0    0  0.00000000000E+00  0.00000000000E+00  0.45593999997E+02  0.45594000000E+02  0.51100000000E-03 0.  1.
         11   -1    0    0    0    0 -0.00000000000E+00 -0.00000000000E+00 -0.45593999997E+02  0.45594000000E+02  0.51100000000E-03 0. -1.
    9900012    2    1    2    0    0  0.26481492895E+02 -0.30462413561E+02 -0.48927612814E+01  0.50528840898E+02  0.29999942392E+02 0.  0.
        -12    1    1    2    0    0 -0.26481492895E+02  0.30462413561E+02  0.48927612814E+01  0.40659159102E+02  0.00000000000E+00 0.  1.
         11    1    3    3    0    0  0.63972210547E+01 -0.11456687023E+02 -0.13408995638E+02  0.18761164118E+02  0.51100000000E-03 0. -1.
        -11    1    3    3    0    0  0.11895420041E+02 -0.98859560835E+01  0.11353484822E+02  0.19186838289E+02  0.51100000000E-03 0.  1.
        -12    1    3    3    0    0  0.81888517997E+01 -0.91197704543E+01 -0.28372504656E+01  0.12580838491E+02  0.00000000000E+00 0.  1.
</event>
<event>
 7    1  0.9930326E-013  0.5052886E+02  0.7816164E-02  0.1300439E+00
        -11   -1    0    0    0    0  0.00000000000E+00  0.00000000000E+00  0.45593999997E+02  0.45594000000E+02  0.51100000000E-03 0.  1.
         11   -1    0    0    0    0 -0.00000000000E+00 -0.00000000000E+00 -0.45593999997E+02  0.45594000000E+02  0.51100000000E-03 0. -1.
    9900012    2    1    2    0    0  0.56281303208E+01  0.16124954525E+02 -0.36898184338E+02  0.50528855681E+02  0.29999987328E+02 0.  0.
        -12    1    1    2    0    0 -0.56281303208E+01 -0.16124954525E+02  0.36898184338E+02  0.40659144319E+02  0.00000000000E+00 0.  1.
         11    1    3    3    0    0 -0.34943023625E+01  0.17735078005E+02 -0.36992866857E+02  0.41172992840E+02  0.51100000000E-03 0. -1.
        -11    1    3    3    0    0  0.58872373345E+01 -0.14751527426E+01 -0.39011617906E+00  0.60817620754E+01  0.51100000000E-03 0.  1.
         12    1    3    3    0    0  0.32351953487E+01 -0.13497073753E+00  0.48479869860E+00  0.32741007655E+01  0.00000000000E+00 0. -1.
</event>
<event>
 7    1  0.9930326E-013  0.5052886E+02  0.7816164E-02  0.1300439E+00
        -11   -1    0    0    0    0  0.00000000000E+00  0.00000000000E+00  0.45593999997E+02  0.45594000000E+02  0.51100000000E-03 0.  1.
         11   -1    0    0    0    0 -0.00000000000E+00 -0.00000000000E+00 -0.45593999997E+02  0.45594000000E+02  0.51100000000E-03 0. -1.
    9900012    2    1    2    0    0 -0.22218771312E+02 -0.22274246273E+02 -0.25755581674E+02  0.50528857940E+02  0.29999994196E+02 0.  0.
        -12    1    1    2    0    0  0.22218771312E+02  0.22274246273E+02  0.25755581674E+02  0.40659142060E+02  0.00000000000E+00 0.  1.
         11    1    3    3    0    0 -0.34162311306E+01 -0.27383049645E+01 -0.99194874890E+01  0.10842747877E+02  0.51100000000E-03 0. -1.
        -11    1    3    3    0    0 -0.10251319150E+02 -0.17551089376E+02  0.13681833365E+01  0.20371602993E+02  0.51100000000E-03 0.  1.
        -12    1    3    3    0    0 -0.85512210310E+01 -0.19848519321E+01 -0.17204277522E+02  0.19314507070E+02  0.00000000000E+00 0.  1.
</event>
<event>
 7    1  0.9930326E-013  0.5052887E+02  0.7816164E-02  0.1300439E+00
        -11   -1    0    0    0    0  0.00000000000E+00  0.00000000000E+00  0.45593999997E+02  0.45594000000E+02  0.51100000000E-03 0. -1.
         11   -1    0    0    0    0 -0.00000000000E+00 -0.00000000000E+00 -0.45593999997E+02  0.45594000000E+02  0.51100000000E-03 0.  1.
    9900012    2    1    2    0    0 -0.94804139049E+01 -0.36934108988E+02  0.14112349373E+02  0.50528867454E+02  0.30000023114E+02 0.  0.
        -12    1    1    2    0    0  0.94804139049E+01  0.36934108988E+02 -0.14112349373E+02  0.40659132546E+02  0.00000000000E+00 0.  1.
         11    1    3    3    0    0  0.62894061580E+01 -0.11449162507E+01  0.44280032026E+01  0.77765465127E+01  0.51100000000E-03 0. -1.
        -11    1    3    3    0    0 -0.95303549020E+01 -0.19224592643E+02 -0.19885491285E+01  0.21549175268E+02  0.51100000000E-03 0.  1.
         12    1    3    3    0    0 -0.62394651609E+01 -0.16564600094E+02  0.11672895299E+02  0.21203145674E+02  0.00000000000E+00 0. -1.
</event>
<event>
 7    1  0.9930326E-013  0.5052886E+02  0.7816164E-02  0.1300439E+00
        -11   -1    0    0    0    0  0.00000000000E+00  0.00000000000E+00  0.45593999997E+02  0.45594000000E+02  0.51100000000E-03 0.  1.
         11   -1    0    0    0    0 -0.00000000000E+00 -0.00000000000E+00 -0.45593999997E+02  0.45594000000E+02  0.51100000000E-03 0. -1.
    9900012    2    1    2    0    0  0.79288648678E+01  0.38164357971E+02 -0.11566350846E+02  0.50528860937E+02  0.30000003303E+02 0.  0.
        -12    1    1    2    0    0 -0.79288648678E+01 -0.38164357971E+02  0.11566350846E+02  0.40659139063E+02  0.00000000000E+00 0.  1.
         11    1    3    3    0    0  0.13171368375E+02  0.25336290262E+02 -0.46837591161E+01  0.28937003107E+02  0.51100000000E-03 0. -1.
        -11    1    3    3    0    0 -0.94578158723E+01  0.36592921217E+01 -0.18246091252E+01  0.10303877844E+02  0.51100000000E-03 0.  1.
        -12    1    3    3    0    0  0.42153123654E+01  0.91687755879E+01 -0.50579826051E+01  0.11287979985E+02  0.00000000000E+00 0.  1.
</event>
<event>
 7    1  0.9930326E-013  0.5052887E+02  0.7816164E-02  0.1300439E+00
        -11   -1    0    0    0    0  0.00000000000E+00  0.00000000000E+00  0.45593999997E+02  0.45594000000E+02  0.51100000000E-03 0.  1.
         11   -1    0    0    0    0 -0.00000000000E+00 -0.00000000000E+00 -0.45593999997E+02  0.45594000000E+02  0.51100000000E-03 0. -1.
    9900012    2    1    2    0    0  0.97534335883E+01  0.38826084592E+02  0.71112802203E+01  0.50528872884E+02  0.30000039618E+02 0.  0.
        -12    1    1    2    0    0 -0.97534335883E+01 -0.38826084592E+02 -0.71112802203E+01  0.40659127116E+02  0.00000000000E+00 0.  1.
         11    1    3    3    0    0  0.59289661394E+01  0.25253525538E+02 -0.47055237065E+01  0.26363519211E+02  0.51100000000E-03 0. -1.
        -11    1    3    3    0    0  0.82658318867E+01  0.17914753723E+01  0.53927813541E+01  0.10030725387E+02  0.51100000000E-03 0.  1.
        -12    1    3    3    0    0 -0.44413644378E+01  0.11781083681E+02  0.64240225727E+01  0.14134628286E+02  0.00000000000E+00 0.  1.
</event>
<event>
 7    1  0.9930326E-013  0.5052885E+02  0.7816164E-02  0.1300439E+00
        -11   -1    0    0    0    0  0.00000000000E+00  0.00000000000E+00  0.45593999997E+02  0.45594000000E+02  0.51100000000E-03 0. -1.
         11   -1    0    0    0    0 -0.00000000000E+00 -0.00000000000E+00 -0.45593999997E+02  0.45594000000E+02  0.51100000000E-03 0.  1.
    9900012    2    1    2    0    0  0.85399246797E+01 -0.24945109965E+02  0.30951213730E+02  0.50528850279E+02  0.29999970908E+02 0.  0.
        -12    1    1    2    0    0 -0.85399246797E+01  0.24945109965E+02 -0.30951213730E+02  0.40659149721E+02  0.00000000000E+00 0.  1.
         11    1    3    3    0    0 -0.16847896621E+01  0.25699608000E+01  0.54106050127E+01  0.62223678438E+01  0.51100000000E-03 0. -1.
        -11    1    3    3    0    0  0.86031793233E+01 -0.21684553234E+02  0.29091322266E+02  0.37289939325E+02  0.51100000000E-03 0.  1.
        -12    1    3    3    0    0  0.16215350185E+01 -0.58305175313E+01 -0.35507135496E+01  0.70165431097E+01  0.00000000000E+00 0.  1.
</event>
<event>
 7    1  0.9930326E-013  0.5052885E+02  0.7816164E-02  0.1300439E+00
        -11   -1    0    0    0    0  0.00000000000E+00  0.00000000000E+00  0.45593999997E+02  0.45594000000E+02  0.51100000000E-03 0.  1.
         11   -1    0    0    0    0 -0.00000000000E+00 -0.00000000000E+00 -0.45593999997E+02  0.45594000000E+02  0.51100000000E-03 0. -1.
    9900012    2    1    2    0    0  0.27784851811E+02 -0.27139132253E+02 -0.12026453635E+02  0.50528854945E+02  0.29999985090E+02 0.  0.
        -12    1    1    2    0    0 -0.27784851811E+02  0.27139132253E+02  0.12026453635E+02  0.40659145055E+02  0.00000000000E+00 0.  1.
         11    1    3    3    0    0  0.28582478715E+02 -0.28478167938E+02 -0.12922686651E+02  0.42366967901E+02  0.51100000000E-03 0. -1.
        -11    1    3    3    0    0  0.25784596771E+01  0.32635753788E+01  0.98686202502E+00  0.42747251931E+01  0.51100000000E-03 0.  1.
         12    1    3    3    0    0 -0.33760865813E+01 -0.19245396942E+01 -0.90629009433E-01  0.38871618510E+01  0.00000000000E+00 0. -1.
</event>
<event>
 7    1  0.9930326E-013  0.5052884E+02  0.7816164E-02  0.1300439E+00
        -11   -1    0    0    0    0  0.00000000000E+00  0.00000000000E+00  0.45593999997E+02  0.45594000000E+02  0.51100000000E-03 0.  1.
         11   -1    0    0    0    0 -0.00000000000E+00 -0.00000000000E+00 -0.45593999997E+02  0.45594000000E+02  0.51100000000E-03 0. -1.
    9900012    2    1    2    0    0  0.73627068642E+01 -0.36397904264E+02 -0.16557487654E+02  0.50528840090E+02  0.29999939936E+02 0.  0.
        -12    1    1    2    0    0 -0.73627068642E+01  0.36397904264E+02  0.16557487654E+02  0.40659159910E+02  0.00000000000E+00 0.  1.
         11    1    3    3    0    0 -0.19214205548E+01 -0.18045786402E+02  0.25857861731E+01  0.18331081643E+02  0.51100000000E-03 0. -1.
        -11    1    3    3    0    0  0.12696507026E+02 -0.81675283775E+01 -0.12175223746E+02  0.19394480761E+02  0.51100000000E-03 0.  1.
        -12    1    3    3    0    0 -0.34123796071E+01 -0.10184589485E+02 -0.69680500813E+01  0.12803277686E+02  0.00000000000E+00 0.  1.
</event>
<event>
 7    1  0.9930326E-013  0.5052886E+02  0.7816164E-02  0.1300439E+00
        -11   -1    0    0    0    0  0.00000000000E+00  0.00000000000E+00  0.45593999997E+02  0.45594000000E+02  0.51100000000E-03 0.  1.
         11   -1    0    0    0    0 -0.00000000000E+00 -0.00000000000E+00 -0.45593999997E+02  0.45594000000E+02  0.51100000000E-03 0. -1.
    9900012    2    1    2    0    0  0.30550600880E+02 -0.39056759966E+01 -0.26543779829E+02  0.50528858756E+02  0.29999996673E+02 0.  0.
        -12    1    1    2    0    0 -0.30550600880E+02  0.39056759966E+01  0.26543779829E+02  0.40659141244E+02  0.00000000000E+00 0.  1.
         11    1    3    3    0    0  0.41129723590E+01  0.51871742203E+01 -0.20988748671E+01  0.69446809852E+01  0.51100000000E-03 0. -1.
        -11    1    3    3    0    0  0.13825244525E+02 -0.87312880163E+01 -0.31508051848E+00  0.16354572834E+02  0.51100000000E-03 0.  1.
        -12    1    3    3    0    0  0.12612383996E+02 -0.36156220058E+00 -0.24129824444E+02  0.27229604936E+02  0.00000000000E+00 0.  1.
</event>
<event>
 7    1  0.9930326E-013  0.5052885E+02  0.7816164E-02  0.1300439E+00
        -11   -1    0    0    0    0  0.00000000000E+00  0.00000000000E+00  0.45593999997E+02  0.45594000000E+02  0.51100000000E-03 0.  1.
         11   -1    0    0    0    0 -0.00000000000E+00 -0.00000000000E+00 -0.45593999997E+02  0.45594000000E+02  0.51100000000E-03 0. -1.
    9900012    2    1    2    0    0  0.20663915649E+02  0.34332645204E+02  0.68875418274E+01  0.50528853807E+02  0.29999981633E+02 0.  0.
        -12    1    1    2    0    0 -0.20663915649E+02 -0.34332645204E+02 -0.68875418274E+01  0.40659146193E+02  0.00000000000E+00 0.  1.
         11    1    3    3    0    0  0.17070393463E+02  0.87642196419E+01  0.10941110660E+02  0.22088861031E+02  0.51100000000E-03 0. -1.
        -11    1    3    3    0    0 -0.23237919944E+01  0.12740242798E+01  0.11677856889E+01  0.28960094570E+01  0.51100000000E-03 0.  1.
         12    1    3    3    0    0  0.59173141806E+01  0.24294401283E+02 -0.52213545211E+01  0.25543983320E+02  0.00000000000E+00 0. -1.
</event>
<event>
 7    1  0.9930326E-013  0.5052886E+02  0.7816164E-02  0.1300439E+00
        -11   -1    0    0    0    0  0.00000000000E+00  0.00000000000E+00  0.45593999997E+02  0.45594000000E+02  0.51100000000E-03 0. -1.
         11   -1    0    0    0    0 -0.00000000000E+00 -0.00000000000E+00 -0.45593999997E+02  0.45594000000E+02  0.51100000000E-03 0.  1.
    9900012    2    1    2    0    0 -0.68431928565E+01 -0.97203336509E+01  0.38882530334E+02  0.50528864005E+02  0.30000012628E+02 0.  0.
        -12    1    1    2    0    0  0.68431928565E+01  0.97203336509E+01 -0.38882530334E+02  0.40659135995E+02  0.00000000000E+00 0.  1.
         11    1    3    3    0    0 -0.25808071402E+01 -0.47534399789E+01  0.12777162134E+02  0.13874856020E+02  0.51100000000E-03 0. -1.
        -11    1    3    3    0    0 -0.12936868345E+02 -0.25416054245E+01  0.57279441281E+01  0.14374688341E+02  0.51100000000E-03 0.  1.
        -12    1    3    3    0    0  0.86744826288E+01 -0.24252882475E+01  0.20377424071E+02  0.22279319643E+02  0.00000000000E+00 0.  1.
</event>
<event>
 7    1  0.9930326E-013  0.5052884E+02  0.7816164E-02  0.1300439E+00
        -11   -1    0    0    0    0  0.00000000000E+00  0.00000000000E+00  0.45593999997E+02  0.45594000000E+02  0.51100000000E-03 0.  1.
         11   -1    0    0    0    0 -0.00000000000E+00 -0.00000000000E+00 -0.45593999997E+02  0.45594000000E+02  0.51100000000E-03 0. -1.
    9900012    2    1    2    0    0 -0.29282930388E+02  0.23820062944E+02 -0.15109007682E+02  0.50528837147E+02  0.29999930992E+02 0.  0.
        -12    1    1    2    0    0  0.29282930388E+02 -0.23820062944E+02  0.15109007682E+02  0.40659162853E+02  0.00000000000E+00 0.  1.
         11    1    3    3    0    0  0.22741927513E+01 -0.26873422196E+01 -0.67162118999E+01  0.75829587511E+01  0.51100000000E-03 0.  1.
        -11    1    3    3    0    0 -0.19076557558E+02  0.16814194564E+02 -0.86956832768E+00  0.25443827080E+02  0.51100000000E-03 0. -1.
        -12    1    3    3    0    0 -0.12480565581E+02  0.96932105995E+01 -0.75232274545E+01  0.17502051316E+02  0.00000000000E+00 0.  1.
</event>
<event>
 7    1  0.9930326E-013  0.5052886E+02  0.7816164E-02  0.1300439E+00
        -11   -1    0    0    0    0  0.00000000000E+00  0.00000000000E+00  0.45593999997E+02  0.45594000000E+02  0.51100000000E-03 0.  1.
         11   -1    0    0    0    0 -0.00000000000E+00 -0.00000000000E+00 -0.45593999997E+02  0.45594000000E+02  0.51100000000E-03 0. -1.
    9900012    2    1    2    0    0 -0.11395161509E+02 -0.62010406023E+01 -0.38533923233E+02  0.50528857731E+02  0.29999993558E+02 0.  0.
        -12    1    1    2    0    0  0.11395161509E+02  0.62010406023E+01  0.38533923233E+02  0.40659142269E+02  0.00000000000E+00 0.  1.
         11    1    3    3    0    0  0.34936333509E+01  0.30500439927E+01 -0.12019134542E+02  0.12882850529E+02  0.51100000000E-03 0. -1.
        -11    1    3    3    0    0 -0.50787694082E+00 -0.10448807868E+02 -0.46491878512E+01  0.11447727844E+02  0.51100000000E-03 0.  1.
        -12    1    3    3    0    0 -0.14380917919E+02  0.11977232733E+01 -0.21865600839E+02  0.26198279358E+02  0.00000000000E+00 0.  1.
</event>
<event>
 7    1  0.9930326E-013  0.5052886E+02  0.7816164E-02  0.1300439E+00
        -11   -1    0    0    0    0  0.00000000000E+00  0.00000000000E+00  0.45593999997E+02  0.45594000000E+02  0.51100000000E-03 0.  1.
         11   -1    0    0    0    0 -0.00000000000E+00 -0.00000000000E+00 -0.45593999997E+02  0.45594000000E+02  0.51100000000E-03 0. -1.
    9900012    2    1    2    0    0  0.95743241975E+01 -0.25865038090E+02 -0.29874701229E+02  0.50528860157E+02  0.30000000933E+02 0.  0.
        -12    1    1    2    0    0 -0.95743241975E+01  0.25865038090E+02  0.29874701229E+02  0.40659139843E+02  0.00000000000E+00 0.  1.
         11    1    3    3    0    0  0.12056639247E+02 -0.16161191527E+02 -0.24426564153E+02  0.31673391010E+02  0.51100000000E-03 0. -1.
        -11    1    3    3    0    0 -0.43241943759E+01 -0.69324821493E+01  0.38116603560E+01  0.90159148555E+01  0.51100000000E-03 0.  1.
         12    1    3    3    0    0  0.18418793265E+01 -0.27713644137E+01 -0.92597974321E+01  0.98395542912E+01  0.00000000000E+00 0. -1.
</event>
<event>
 7    1  0.9930326E-013  0.5052887E+02  0.7816164E-02  0.1300439E+00
        -11   -1    0    0    0    0  0.00000000000E+00  0.00000000000E+00  0.45593999997E+02  0.45594000000E+02  0.51100000000E-03 0.  1.
         11   -1    0    0    0    0 -0.00000000000E+00 -0.00000000000E+00 -0.45593999997E+02  0.45594000000E+02  0.51100000000E-03 0. -1.
    9900012    2    1    2    0    0  0.36092042657E+02  0.10369293144E+02 -0.15588693734E+02  0.50528866268E+02  0.30000019509E+02 0.  0.
        -12    1    1    2    0    0 -0.36092042657E+02 -0.10369293144E+02  0.15588693734E+02  0.40659133732E+02  0.00000000000E+00 0.  1.
         11    1    3    3    0    0  0.34733239920E+01 -0.52875228639E+01 -0.77236479144E+01  0.99838176544E+01  0.51100000000E-03 0. -1.
        -11    1    3    3    0    0  0.78907625898E+01  0.92569533401E+01  0.33979261827E+01  0.12629379319E+02  0.51100000000E-03 0.  1.
        -12    1    3    3    0    0  0.24727956076E+02  0.63998626675E+01 -0.11262972002E+02  0.27915669295E+02  0.00000000000E+00 0.  1.
</event>
<event>
 7    1  0.9930326E-013  0.5052886E+02  0.7816164E-02  0.1300439E+00
        -11   -1    0    0    0    0  0.00000000000E+00  0.00000000000E+00  0.45593999997E+02  0.45594000000E+02  0.51100000000E-03 0.  1.
         11   -1    0    0    0    0 -0.00000000000E+00 -0.00000000000E+00 -0.45593999997E+02  0.45594000000E+02  0.51100000000E-03 0. -1.
    9900012    2    1    2    0    0 -0.38911971038E+02  0.10162850557E+02 -0.59783387558E+01  0.50528861350E+02  0.30000004559E+02 0.  0.
        -12    1    1    2    0    0  0.38911971038E+02 -0.10162850557E+02  0.59783387558E+01  0.40659138650E+02  0.00000000000E+00 0.  1.
         11    1    3    3    0    0 -0.23289595333E+02  0.83242152122E+00 -0.65544662238E+01  0.24208659692E+02  0.51100000000E-03 0. -1.
        -11    1    3    3    0    0 -0.26802954423E+01  0.67738733265E+01 -0.78163272572E+01  0.10684770262E+02  0.51100000000E-03 0.  1.
        -12    1    3    3    0    0 -0.12942080263E+02  0.25565557090E+01  0.83924547251E+01  0.15635431396E+02  0.00000000000E+00 0.  1.
</event>
<event>
 7    1  0.9930326E-013  0.5052886E+02  0.7816164E-02  0.1300439E+00
        -11   -1    0    0    0    0  0.00000000000E+00  0.00000000000E+00  0.45593999997E+02  0.45594000000E+02  0.51100000000E-03 0.  1.
         11   -1    0    0    0    0 -0.00000000000E+00 -0.00000000000E+00 -0.45593999997E+02  0.45594000000E+02  0.51100000000E-03 0. -1.
    9900012    2    1    2    0    0  0.99238587704E+00 -0.29324746066E+01 -0.40541111535E+02  0.50528856360E+02  0.29999989391E+02 0.  0.
        -12    1    1    2    0    0 -0.99238587704E+00  0.29324746066E+01  0.40541111535E+02  0.40659143640E+02  0.00000000000E+00 0.  1.
         11    1    3    3    0    0  0.10721212465E+02 -0.98159427086E+01 -0.26470040371E+02  0.30198678208E+02  0.51100000000E-03 0. -1.
        -11    1    3    3    0    0 -0.67062180109E+01  0.79259265920E+01 -0.68653677958E+01  0.12446965397E+02  0.51100000000E-03 0.  1.
        -12    1    3    3    0    0 -0.30226085769E+01 -0.10424584900E+01 -0.72057033686E+01  0.78832127555E+01  0.00000000000E+00 0.  1.
</event>
<event>
 7    1  0.9930326E-013  0.5052886E+02  0.7816164E-02  0.1300439E+00
        -11   -1    0    0    0    0  0.00000000000E+00  0.00000000000E+00  0.45593999997E+02  0.45594000000E+02  0.51100000000E-03 0. -1.
         11   -1    0    0    0    0 -0.00000000000E+00 -0.00000000000E+00 -0.45593999997E+02  0.45594000000E+02  0.51100000000E-03 0.  1.
    9900012    2    1    2    0    0  0.36308588394E+02  0.13449177591E+02  0.12408537624E+02  0.50528858654E+02  0.29999996366E+02 0.  0.
        -12    1    1    2    0    0 -0.36308588394E+02 -0.13449177591E+02 -0.12408537624E+02  0.40659141346E+02  0.00000000000E+00 0.  1.
         11    1    3    3    0    0  0.91064405375E+01  0.49571834420E-01  0.12697358742E+02  0.15625384345E+02  0.51100000000E-03 0. -1.
        -11    1    3    3    0    0  0.17261527411E+02  0.15149408193E+02  0.50055461218E+01  0.23505752262E+02  0.51100000000E-03 0.  1.
        -12    1    3    3    0    0  0.99406204456E+01 -0.17498024367E+01 -0.52943672402E+01  0.11397722048E+02  0.00000000000E+00 0.  1.
</event>
<event>
 7    1  0.9930326E-013  0.5052886E+02  0.7816164E-02  0.1300439E+00
        -11   -1    0    0    0    0  0.00000000000E+00  0.00000000000E+00  0.45593999997E+02  0.45594000000E+02  0.51100000000E-03 0. -1.
         11   -1    0    0    0    0 -0.00000000000E+00 -0.00000000000E+00 -0.45593999997E+02  0.45594000000E+02  0.51100000000E-03 0.  1.
    9900012    2    1    2    0    0 -0.39499533148E+02  0.60986274680E+01  0.74672027089E+01  0.50528862132E+02  0.30000006936E+02 0.  0.
        -12    1    1    2    0    0  0.39499533148E+02 -0.60986274680E+01 -0.74672027089E+01  0.40659137868E+02  0.00000000000E+00 0.  1.
         11    1    3    3    0    0 -0.60346899700E+01 -0.93173843253E+01 -0.20747398316E+01  0.11293169587E+02  0.51100000000E-03 0. -1.
        -11    1    3    3    0    0 -0.75285451945E+01  0.50465736946E+01 -0.15248732382E+01  0.91908725078E+01  0.51100000000E-03 0.  1.
         12    1    3    3    0    0 -0.25936297983E+02  0.10369438099E+02  0.11066815779E+02  0.30044820037E+02  0.00000000000E+00 0. -1.
</event>
<event>
 7    1  0.9930326E-013  0.5052886E+02  0.7816164E-02  0.1300439E+00
        -11   -1    0    0    0    0  0.00000000000E+00  0.00000000000E+00  0.45593999997E+02  0.45594000000E+02  0.51100000000E-03 0.  1.
         11   -1    0    0    0    0 -0.00000000000E+00 -0.00000000000E+00 -0.45593999997E+02  0.45594000000E+02  0.51100000000E-03 0. -1.
    9900012    2    1    2    0    0  0.38753699059E+02 -0.19483792528E+01 -0.12145794231E+02  0.50528859699E+02  0.29999999541E+02 0.  0.
        -12    1    1    2    0    0 -0.38753699059E+02  0.19483792528E+01  0.12145794231E+02  0.40659140301E+02  0.00000000000E+00 0.  1.
         11    1    3    3    0    0  0.67643253353E+01 -0.69619157176E+01  0.34156387080E+01  0.10290333121E+02  0.51100000000E-03 0. -1.
        -11    1    3    3    0    0  0.29715722772E+02  0.28864406638E+01 -0.63612013302E+01  0.30525736718E+02  0.51100000000E-03 0.  1.
         12    1    3    3    0    0  0.22736509523E+01  0.21270958010E+01 -0.92002316092E+01  0.97127898599E+01  0.00000000000E+00 0. -1.
</event>
<event>
 7    1  0.9930326E-013  0.5052882E+02  0.7816164E-02  0.1300439E+00
        -11   -1    0    0    0    0  0.00000000000E+00  0.00000000000E+00  0.45593999997E+02  0.45594000000E+02  0.51100000000E-03 0. -1.
         11   -1    0    0    0    0 -0.00000000000E+00 -0.00000000000E+00 -0.45593999997E+02  0.45594000000E+02  0.51100000000E-03 0.  1.
    9900012    2    1    2    0    0 -0.30344786085E+02 -0.12546026774E+02  0.23978325080E+02  0.50528820175E+02  0.29999879405E+02 0.  0.
        -12    1    1    2    0    0  0.30344786085E+02  0.12546026774E+02 -0.23978325080E+02  0.40659179825E+02  0.00000000000E+00 0.  1.
         11    1    3    3    0    0 -0.23815947601E+02  0.46986559113E+01  0.11679355576E+02  0.26938523984E+02  0.51100000000E-03 0. -1.
        -11    1    3    3    0    0 -0.23739132573E+00 -0.11792475001E+02  0.68345252957E+01  0.13631931542E+02  0.51100000000E-03 0.  1.
         12    1    3    3    0    0 -0.62914471583E+01 -0.54522076837E+01  0.54644442091E+01  0.99583646492E+01  0.00000000000E+00 0. -1.
</event>
<event>
 7    1  0.9930326E-013  0.5052886E+02  0.7816164E-02  0.1300439E+00
        -11   -1    0    0    0    0  0.00000000000E+00  0.00000000000E+00  0.45593999997E+02  0.45594000000E+02  0.51100000000E-03 0.  1.
         11   -1    0    0    0    0 -0.00000000000E+00 -0.00000000000E+00 -0.45593999997E+02  0.45594000000E+02  0.51100000000E-03 0. -1.
    9900012    2    1    2    0    0 -0.36893366220E+02  0.68443044775E+01 -0.15658889974E+02  0.50528858223E+02  0.29999995054E+02 0.  0.
        -12    1    1    2    0    0  0.36893366220E+02 -0.68443044775E+01  0.15658889974E+02  0.40659141777E+02  0.00000000000E+00 0.  1.
         11    1    3    3    0    0 -0.30734402407E+02  0.97615274592E+01 -0.22136213505E+02  0.39113972673E+02  0.51100000000E-03 0. -1.
        -11    1    3    3    0    0 -0.55443028901E+01 -0.73778018592E+00  0.71264305030E+01  0.90592287815E+01  0.51100000000E-03 0.  1.
        -12    1    3    3    0    0 -0.61466092312E+00 -0.21794427958E+01 -0.64910697213E+00  0.23556567687E+01  0.00000000000E+00 0.  1.
</event>
<event>
 7    1  0.9930326E-013  0.5052886E+02  0.7816164E-02  0.1300439E+00
        -11   -1    0    0    0    0  0.00000000000E+00  0.00000000000E+00  0.45593999997E+02  0.45594000000E+02  0.51100000000E-03 0.  1.
         11   -1    0    0    0    0 -0.00000000000E+00 -0.00000000000E+00 -0.45593999997E+02  0.45594000000E+02  0.51100000000E-03 0. -1.
    9900012    2    1    2    0    0 -0.33900240286E+01  0.27284866107E+01 -0.40425596467E+02  0.50528858939E+02  0.29999997232E+02 0.  0.
        -12    1    1    2    0    0  0.33900240286E+01 -0.27284866107E+01  0.40425596467E+02  0.40659141061E+02  0.00000000000E+00 0.  1.
         11    1    3    3    0    0  0.35002281889E+01  0.42460404548E+01  0.22042958704E+01  0.59278476249E+01  0.51100000000E-03 0.  1.
        -11    1    3    3    0    0 -0.75412973580E+01  0.11948341573E+01 -0.40147015341E+02  0.40866632300E+02  0.51100000000E-03 0. -1.
         12    1    3    3    0    0  0.65104514048E+00 -0.27123880013E+01 -0.24828769957E+01  0.37343790141E+01  0.00000000000E+00 0. -1.
</event>
<event>
 7    1  0.9930326E-013  0.5052888E+02  0.7816164E-02  0.1300439E+00
        -11   -1    0    0    0    0  0.00000000000E+00  0.00000000000E+00  0.45593999997E+02  0.45594000000E+02  0.51100000000E-03 0.  1.
         11   -1    0    0    0    0 -0.00000000000E+00 -0.00000000000E+00 -0.45593999997E+02  0.45594000000E+02  0.51100000000E-03 0. -1.
    9900012    2    1    2    0    0  0.11062885118E+02 -0.36700023018E+02 -0.13560419863E+02  0.50528879209E+02  0.30000058843E+02 0.  0.
        -12    1    1    2    0    0 -0.11062885118E+02  0.36700023018E+02  0.13560419863E+02  0.40659120791E+02  0.00000000000E+00 0.  1.
         11    1    3    3    0    0  0.82626494662E+01 -0.20013317528E+02 -0.11173674563E+02  0.24365041723E+02  0.51100000000E-03 0. -1.
        -11    1    3    3    0    0 -0.46292124312E+01  0.19518360575E+01 -0.34119881973E+01  0.60729675981E+01  0.51100000000E-03 0.  1.
        -12    1    3    3    0    0  0.74294480830E+01 -0.18638541547E+02  0.10252428972E+01  0.20090869887E+02  0.00000000000E+00 0.  1.
</event>
<event>
 7    1  0.9930326E-013  0.5052886E+02  0.7816164E-02  0.1300439E+00
        -11   -1    0    0    0    0  0.00000000000E+00  0.00000000000E+00  0.45593999997E+02  0.45594000000E+02  0.51100000000E-03 0. -1.
         11   -1    0    0    0    0 -0.00000000000E+00 -0.00000000000E+00 -0.45593999997E+02  0.45594000000E+02  0.51100000000E-03 0.  1.
    9900012    2    1    2    0    0  0.54975845792E+01  0.15443465941E+02  0.37208089875E+02  0.50528855535E+02  0.29999986884E+02 0.  0.
        -12    1    1    2    0    0 -0.54975845792E+01 -0.15443465941E+02 -0.37208089875E+02  0.40659144465E+02  0.00000000000E+00 0.  1.
         11    1    3    3    0    0  0.10745398278E+01  0.96334129880E+01  0.22307520032E+02  0.24322473803E+02  0.51100000000E-03 0. -1.
        -11    1    3    3    0    0  0.47328777857E+01 -0.71385003373E+01  0.67257979022E+01  0.10890118314E+02  0.51100000000E-03 0.  1.
         12    1    3    3    0    0 -0.30983303432E+00  0.12948553290E+02  0.81747719406E+01  0.15316263419E+02  0.00000000000E+00 0. -1.
</event>
<event>
 7    1  0.9930326E-013  0.5052886E+02  0.7816164E-02  0.1300439E+00
        -11   -1    0    0    0    0  0.00000000000E+00  0.00000000000E+00  0.45593999997E+02  0.45594000000E+02  0.51100000000E-03 0. -1.
         11   -1    0    0    0    0 -0.00000000000E+00 -0.00000000000E+00 -0.45593999997E+02  0.45594000000E+02  0.51100000000E-03 0.  1.
    9900012    2    1    2    0    0 -0.18121078440E+02  0.18192075865E+02  0.31525235169E+02  0.50528861291E+02  0.30000004380E+02 0.  0.
        -12    1    1    2    0    0  0.18121078440E+02 -0.18192075865E+02 -0.31525235169E+02  0.40659138709E+02  0.00000000000E+00 0.  1.
         11    1    3    3    0    0 -0.99254629213E+01  0.92354185294E+01  0.20238537505E+02  0.24359929602E+02  0.51100000000E-03 0. -1.
        -11    1    3    3    0    0 -0.84906830846E+01 -0.45331277803E+01  0.21172667478E+01  0.98551390380E+01  0.51100000000E-03 0.  1.
         12    1    3    3    0    0  0.29506756556E+00  0.13489785115E+02  0.91694309166E+01  0.16313792651E+02  0.00000000000E+00 0. -1.
</event>
<event>
 7    1  0.9930326E-013  0.5052886E+02  0.7816164E-02  0.1300439E+00
        -11   -1    0    0    0    0  0.00000000000E+00  0.00000000000E+00  0.45593999997E+02  0.45594000000E+02  0.51100000000E-03 0.  1.
         11   -1    0    0    0    0 -0.00000000000E+00 -0.00000000000E+00 -0.45593999997E+02  0.45594000000E+02  0.51100000000E-03 0. -1.
    9900012    2    1    2    0    0  0.52613835059E+00 -0.21423316138E+02 -0.34553297836E+02  0.50528859733E+02  0.29999999644E+02 0.  0.
        -12    1    1    2    0    0 -0.52613835059E+00  0.21423316138E+02  0.34553297836E+02  0.40659140267E+02  0.00000000000E+00 0.  1.
         11    1    3    3    0    0  0.66864332182E+01 -0.10842368088E+02 -0.40663931909E+01  0.13371644954E+02  0.51100000000E-03 0. -1.
        -11    1    3    3    0    0 -0.12369771311E+01 -0.58064701363E+01 -0.29661208157E+02  0.30249503756E+02  0.51100000000E-03 0.  1.
        -12    1    3    3    0    0 -0.49233177366E+01 -0.47744779142E+01 -0.82569648751E+00  0.69077110230E+01  0.00000000000E+00 0.  1.
</event>
<event>
 7    1  0.9930326E-013  0.5052885E+02  0.7816164E-02  0.1300439E+00
        -11   -1    0    0    0    0  0.00000000000E+00  0.00000000000E+00  0.45593999997E+02  0.45594000000E+02  0.51100000000E-03 0. -1.
         11   -1    0    0    0    0 -0.00000000000E+00 -0.00000000000E+00 -0.45593999997E+02  0.45594000000E+02  0.51100000000E-03 0.  1.
    9900012    2    1    2    0    0  0.13565498938E+02  0.25516726289E+02  0.28601400154E+02  0.50528853763E+02  0.29999981499E+02 0.  0.
        -12    1    1    2    0    0 -0.13565498938E+02 -0.25516726289E+02 -0.28601400154E+02  0.40659146237E+02  0.00000000000E+00 0.  1.
         11    1    3    3    0    0  0.15383833728E+02  0.28932036111E+02  0.20002182575E+02  0.38390263892E+02  0.51100000000E-03 0. -1.
        -11    1    3    3    0    0  0.15700836492E+01 -0.35270782854E+01  0.12717451736E+01  0.40648222525E+01  0.51100000000E-03 0.  1.
         12    1    3    3    0    0 -0.33884184395E+01  0.11176846352E+00  0.73274724049E+01  0.80737676184E+01  0.00000000000E+00 0. -1.
</event>
<event>
 7    1  0.9930326E-013  0.5052886E+02  0.7816164E-02  0.1300439E+00
        -11   -1    0    0    0    0  0.00000000000E+00  0.00000000000E+00  0.45593999997E+02  0.45594000000E+02  0.51100000000E-03 0.  1.
         11   -1    0    0    0    0 -0.00000000000E+00 -0.00000000000E+00 -0.45593999997E+02  0.45594000000E+02  0.51100000000E-03 0. -1.
    9900012    2    1    2    0    0  0.16030806190E+02  0.20583755305E+02 -0.31184739694E+02  0.50528859339E+02  0.29999998446E+02 0.  0.
        -12    1    1    2    0    0 -0.16030806190E+02 -0.20583755305E+02  0.31184739694E+02  0.40659140661E+02  0.00000000000E+00 0.  1.
         11    1    3    3    0    0  0.54814853092E+01 -0.49738862420E+01  0.44061046674E+00  0.74148744688E+01  0.51100000000E-03 0. -1.
        -11    1    3    3    0    0  0.75982942843E+00 -0.73920230832E+00 -0.39939725025E+00  0.11328191548E+01  0.51100000000E-03 0.  1.
         12    1    3    3    0    0  0.97894914519E+01  0.26296843856E+02 -0.31225952910E+02  0.41981165715E+02  0.00000000000E+00 0. -1.
</event>
<event>
 7    1  0.9930326E-013  0.5052886E+02  0.7816164E-02  0.1300439E+00
        -11   -1    0    0    0    0  0.00000000000E+00  0.00000000000E+00  0.45593999997E+02  0.45594000000E+02  0.51100000000E-03 0.  1.
         11   -1    0    0    0    0 -0.00000000000E+00 -0.00000000000E+00 -0.45593999997E+02  0.45594000000E+02  0.51100000000E-03 0. -1.
    9900012    2    1    2    0    0  0.36134747408E+01 -0.36480720357E+02 -0.17585953368E+02  0.50528856952E+02  0.29999991193E+02 0.  0.
        -12    1    1    2    0    0 -0.36134747408E+01  0.36480720357E+02  0.17585953368E+02  0.40659143048E+02  0.00000000000E+00 0.  1.
         11    1    3    3    0    0  0.12305370757E+02 -0.18378315881E+02 -0.12685957272E+02  0.25497414698E+02  0.51100000000E-03 0. -1.
        -11    1    3    3    0    0 -0.55867527150E+01 -0.32265517993E+01 -0.71936237473E+01  0.96628497500E+01  0.51100000000E-03 0.  1.
         12    1    3    3    0    0 -0.31051433007E+01 -0.14875852677E+02  0.22936276511E+01  0.15368592505E+02  0.00000000000E+00 0. -1.
</event>
<event>
 7    1  0.9930326E-013  0.5052886E+02  0.7816164E-02  0.1300439E+00
        -11   -1    0    0    0    0  0.00000000000E+00  0.00000000000E+00  0.45593999997E+02  0.45594000000E+02  0.51100000000E-03 0.  1.
         11   -1    0    0    0    0 -0.00000000000E+00 -0.00000000000E+00 -0.45593999997E+02  0.45594000000E+02  0.51100000000E-03 0. -1.
    9900012    2    1    2    0    0  0.36402725540E+02 -0.21029148736E+01 -0.17988473595E+02  0.50528857609E+02  0.29999993188E+02 0.  0.
        -12    1    1    2    0    0 -0.36402725540E+02  0.21029148736E+01  0.17988473595E+02  0.40659142391E+02  0.00000000000E+00 0.  1.
         11    1    3    3    0    0  0.16991624774E+02 -0.13776818142E+02 -0.10632588445E+01  0.21900834464E+02  0.51100000000E-03 0. -1.
        -11    1    3    3    0    0  0.16603522831E+02  0.91329071110E+01 -0.15814773049E+02  0.24681855877E+02  0.51100000000E-03 0.  1.
         12    1    3    3    0    0  0.28075779351E+01  0.25409961572E+01 -0.11104417017E+01  0.39461672678E+01  0.00000000000E+00 0. -1.
</event>
<event>
 7    1  0.9930326E-013  0.5052886E+02  0.7816164E-02  0.1300439E+00
        -11   -1    0    0    0    0  0.00000000000E+00  0.00000000000E+00  0.45593999997E+02  0.45594000000E+02  0.51100000000E-03 0.  1.
         11   -1    0    0    0    0 -0.00000000000E+00 -0.00000000000E+00 -0.45593999997E+02  0.45594000000E+02  0.51100000000E-03 0. -1.
    9900012    2    1    2    0    0  0.22127937758E+02 -0.11143205712E+02 -0.32238938926E+02  0.50528857780E+02  0.29999993710E+02 0.  0.
        -12    1    1    2    0    0 -0.22127937758E+02  0.11143205712E+02  0.32238938926E+02  0.40659142220E+02  0.00000000000E+00 0.  1.
         11    1    3    3    0    0  0.21203940005E+02 -0.93353082025E+01 -0.82930989102E+01  0.24607530164E+02  0.51100000000E-03 0. -1.
        -11    1    3    3    0    0  0.27997108454E+01 -0.50092625270E+01 -0.18185385935E+02  0.19069330186E+02  0.51100000000E-03 0.  1.
        -12    1    3    3    0    0 -0.18757130916E+01  0.32013650177E+01 -0.57604540809E+01  0.68519974311E+01  0.00000000000E+00 0.  1.
</event>
<event>
 7    1  0.9930326E-013  0.5052886E+02  0.7816164E-02  0.1300439E+00
        -11   -1    0    0    0    0  0.00000000000E+00  0.00000000000E+00  0.45593999997E+02  0.45594000000E+02  0.51100000000E-03 0.  1.
         11   -1    0    0    0    0 -0.00000000000E+00 -0.00000000000E+00 -0.45593999997E+02  0.45594000000E+02  0.51100000000E-03 0. -1.
    9900012    2    1    2    0    0 -0.20653591869E+02  0.25428406387E+02 -0.24083004891E+02  0.50528857940E+02  0.29999994195E+02 0.  0.
        -12    1    1    2    0    0  0.20653591869E+02 -0.25428406387E+02  0.24083004891E+02  0.40659142060E+02  0.00000000000E+00 0.  1.
         11    1    3    3    0    0 -0.23255700507E+02  0.21624213460E+02 -0.10789489709E+02  0.33538743302E+02  0.51100000000E-03 0. -1.
        -11    1    3    3    0    0  0.61933667797E+01  0.17335110057E+01 -0.82991646664E+01  0.10499475553E+02  0.51100000000E-03 0.  1.
         12    1    3    3    0    0 -0.35912581416E+01  0.20706819210E+01 -0.49943505160E+01  0.64906390852E+01  0.00000000000E+00 0. -1.
</event>
<event>
 7    1  0.9930326E-013  0.5052886E+02  0.7816164E-02  0.1300439E+00
        -11   -1    0    0    0    0  0.00000000000E+00  0.00000000000E+00  0.45593999997E+02  0.45594000000E+02  0.51100000000E-03 0.  1.
         11   -1    0    0    0    0 -0.00000000000E+00 -0.00000000000E+00 -0.45593999997E+02  0.45594000000E+02  0.51100000000E-03 0. -1.
    9900012    2    1    2    0    0 -0.17219869014E+02  0.14741810986E+02 -0.33753822534E+02  0.50528863073E+02  0.30000009796E+02 0.  0.
        -12    1    1    2    0    0  0.17219869014E+02 -0.14741810986E+02  0.33753822534E+02  0.40659136927E+02  0.00000000000E+00 0.  1.
         11    1    3    3    0    0 -0.71229759286E+01 -0.41495756624E+01 -0.17852394377E+02  0.19663767429E+02  0.51100000000E-03 0. -1.
        -11    1    3    3    0    0 -0.83844422923E+01  0.77397216085E+01 -0.52772086373E-01  0.11410738288E+02  0.51100000000E-03 0.  1.
         12    1    3    3    0    0 -0.17124507935E+01  0.11151665040E+02 -0.15848656071E+02  0.19454357356E+02  0.00000000000E+00 0. -1.
</event>
<event>
 7    1  0.9930326E-013  0.5052879E+02  0.7816164E-02  0.1300439E+00
        -11   -1    0    0    0    0  0.00000000000E+00  0.00000000000E+00  0.45593999997E+02  0.45594000000E+02  0.51100000000E-03 0.  1.
         11   -1    0    0    0    0 -0.00000000000E+00 -0.00000000000E+00 -0.45593999997E+02  0.45594000000E+02  0.51100000000E-03 0. -1.
    9900012    2    1    2    0    0  0.21336539035E+02  0.34446576719E+02  0.33700413796E+01  0.50528785490E+02  0.29999773974E+02 0.  0.
        -12    1    1    2    0    0 -0.21336539035E+02 -0.34446576719E+02 -0.33700413796E+01  0.40659214510E+02  0.00000000000E+00 0.  1.
         11    1    3    3    0    0 -0.17299361264E+01  0.53997754402E+01 -0.16835809572E+01  0.59147864634E+01  0.51100000000E-03 0. -1.
        -11    1    3    3    0    0  0.25598678508E+02  0.24076817541E+02 -0.24919311499E+01  0.35230600412E+02  0.51100000000E-03 0.  1.
        -12    1    3    3    0    0 -0.25322033463E+01  0.49699837378E+01  0.75455534867E+01  0.93833986147E+01  0.00000000000E+00 0.  1.
</event>
<event>
 7    1  0.9930326E-013  0.5052887E+02  0.7816164E-02  0.1300439E+00
        -11   -1    0    0    0    0  0.00000000000E+00  0.00000000000E+00  0.45593999997E+02  0.45594000000E+02  0.51100000000E-03 0. -1.
         11   -1    0    0    0    0 -0.00000000000E+00 -0.00000000000E+00 -0.45593999997E+02  0.45594000000E+02  0.51100000000E-03 0.  1.
    9900012    2    1    2    0    0 -0.70346140726E+01  0.37632420912E+02  0.13692341850E+02  0.50528866657E+02  0.30000020690E+02 0.  0.
        -12    1    1    2    0    0  0.70346140726E+01 -0.37632420912E+02 -0.13692341850E+02  0.40659133343E+02  0.00000000000E+00 0.  1.
         11    1    3    3    0    0 -0.16230377035E+02  0.26745757455E+02  0.15037381250E+02  0.34711432060E+02  0.51100000000E-03 0. -1.
        -11    1    3    3    0    0  0.40369463863E+01  0.92467416556E+01 -0.22281884088E+01  0.10332666220E+02  0.51100000000E-03 0.  1.
         12    1    3    3    0    0  0.51588165757E+01  0.16399218017E+01  0.88314900960E+00  0.54847683771E+01  0.00000000000E+00 0. -1.
</event>
<event>
 7    1  0.9930326E-013  0.5052886E+02  0.7816164E-02  0.1300439E+00
        -11   -1    0    0    0    0  0.00000000000E+00  0.00000000000E+00  0.45593999997E+02  0.45594000000E+02  0.51100000000E-03 0.  1.
         11   -1    0    0    0    0 -0.00000000000E+00 -0.00000000000E+00 -0.45593999997E+02  0.45594000000E+02  0.51100000000E-03 0. -1.
    9900012    2    1    2    0    0 -0.27943652898E+02  0.27058751243E+02 -0.11838168962E+02  0.50528855881E+02  0.29999987937E+02 0.  0.
        -12    1    1    2    0    0  0.27943652898E+02 -0.27058751243E+02  0.11838168962E+02  0.40659144119E+02  0.00000000000E+00 0.  1.
         11    1    3    3    0    0 -0.64642783588E+01  0.17186681358E+02 -0.14347241549E+02  0.23302623267E+02  0.51100000000E-03 0. -1.
        -11    1    3    3    0    0 -0.12531710250E+02  0.92374311558E+01  0.71441911057E+01  0.17129312974E+02  0.51100000000E-03 0.  1.
         12    1    3    3    0    0 -0.89476642890E+01  0.63463872926E+00 -0.46351185187E+01  0.10096919641E+02  0.00000000000E+00 0. -1.
</event>
<event>
 7    1  0.9930326E-013  0.5052886E+02  0.7816164E-02  0.1300439E+00
        -11   -1    0    0    0    0  0.00000000000E+00  0.00000000000E+00  0.45593999997E+02  0.45594000000E+02  0.51100000000E-03 0. -1.
         11   -1    0    0    0    0 -0.00000000000E+00 -0.00000000000E+00 -0.45593999997E+02  0.45594000000E+02  0.51100000000E-03 0.  1.
    9900012    2    1    2    0    0 -0.20831470224E+02  0.29716630322E+02 -0.18334041611E+02  0.50528863865E+02  0.30000012205E+02 0.  0.
        -12    1    1    2    0    0  0.20831470224E+02 -0.29716630322E+02  0.18334041611E+02  0.40659136135E+02  0.00000000000E+00 0.  1.
         11    1    3    3    0    0 -0.18747239363E+02  0.11633204713E+02  0.18491617300E+01  0.22140682803E+02  0.51100000000E-03 0. -1.
        -11    1    3    3    0    0  0.15358755788E+01  0.13565347306E+01 -0.53910015994E+01  0.57673216292E+01  0.51100000000E-03 0.  1.
         12    1    3    3    0    0 -0.36201064403E+01  0.16726890878E+02 -0.14792201742E+02  0.22620859433E+02  0.00000000000E+00 0. -1.
</event>
<event>
 7    1  0.9930326E-013  0.5052886E+02  0.7816164E-02  0.1300439E+00
        -11   -1    0    0    0    0  0.00000000000E+00  0.00000000000E+00  0.45593999997E+02  0.45594000000E+02  0.51100000000E-03 0.  1.
         11   -1    0    0    0    0 -0.00000000000E+00 -0.00000000000E+00 -0.45593999997E+02  0.45594000000E+02  0.51100000000E-03 0. -1.
    9900012    2    1    2    0    0 -0.21436427921E+02  0.27103942867E+01 -0.34442695126E+02  0.50528856788E+02  0.29999990693E+02 0.  0.
        -12    1    1    2    0    0  0.21436427921E+02 -0.27103942867E+01  0.34442695126E+02  0.40659143212E+02  0.00000000000E+00 0.  1.
         11    1    3    3    0    0 -0.59808868110E+01 -0.12701703611E+02 -0.93967262204E+01  0.16893867100E+02  0.51100000000E-03 0. -1.
        -11    1    3    3    0    0 -0.11824138262E+02  0.11342716687E+02 -0.21858537731E+02  0.27317817254E+02  0.51100000000E-03 0.  1.
         12    1    3    3    0    0 -0.36314028481E+01  0.40693812103E+01 -0.31874311740E+01  0.63171724347E+01  0.00000000000E+00 0. -1.
</event>
<event>
 7    1  0.9930326E-013  0.5052886E+02  0.7816164E-02  0.1300439E+00
        -11   -1    0    0    0    0  0.00000000000E+00  0.00000000000E+00  0.45593999997E+02  0.45594000000E+02  0.51100000000E-03 0.  1.
         11   -1    0    0    0    0 -0.00000000000E+00 -0.00000000000E+00 -0.45593999997E+02  0.45594000000E+02  0.51100000000E-03 0. -1.
    9900012    2    1    2    0    0 -0.92451351371E+01 -0.12544415406E+02  0.37554374455E+02  0.50528856843E+02  0.29999990860E+02 0.  0.
        -12    1    1    2    0    0  0.92451351371E+01  0.12544415406E+02 -0.37554374455E+02  0.40659143157E+02  0.00000000000E+00 0.  1.
         11    1    3    3    0    0 -0.44932645594E+01 -0.16067436404E+02  0.39563324417E+02  0.42937263283E+02  0.51100000000E-03 0. -1.
        -11    1    3    3    0    0 -0.33570502409E+01  0.40666327857E+01 -0.24627954395E+00  0.52790096048E+01  0.51100000000E-03 0.  1.
         12    1    3    3    0    0 -0.13948203368E+01 -0.54361178761E+00 -0.17626704183E+01  0.23125839555E+01  0.00000000000E+00 0. -1.
</event>
<event>
 7    1  0.9930326E-013  0.5052885E+02  0.7816164E-02  0.1300439E+00
        -11   -1    0    0    0    0  0.00000000000E+00  0.00000000000E+00  0.45593999997E+02  0.45594000000E+02  0.51100000000E-03 0. -1.
         11   -1    0    0    0    0 -0.00000000000E+00 -0.00000000000E+00 -0.45593999997E+02  0.45594000000E+02  0.51100000000E-03 0.  1.
    9900012    2    1    2    0    0  0.34810566715E+01  0.16097349127E+01  0.40477860243E+02  0.50528853773E+02  0.29999981528E+02 0.  0.
        -12    1    1    2    0    0 -0.34810566715E+01 -0.16097349127E+01 -0.40477860243E+02  0.40659146227E+02  0.00000000000E+00 0.  1.
         11    1    3    3    0    0  0.44082044455E+01 -0.97632772716E+01  0.36076566706E+02  0.37633396273E+02  0.51100000000E-03 0. -1.
        -11    1    3    3    0    0  0.92601359321E+00  0.51215942242E+00  0.71583169435E+00  0.12775851144E+01  0.51100000000E-03 0.  1.
         12    1    3    3    0    0 -0.18531613672E+01  0.10860852762E+02  0.36854618431E+01  0.11617872385E+02  0.00000000000E+00 0. -1.
</event>
<event>
 7    1  0.9930326E-013  0.5052881E+02  0.7816164E-02  0.1300439E+00
        -11   -1    0    0    0    0  0.00000000000E+00  0.00000000000E+00  0.45593999997E+02  0.45594000000E+02  0.51100000000E-03 0.  1.
         11   -1    0    0    0    0 -0.00000000000E+00 -0.00000000000E+00 -0.45593999997E+02  0.45594000000E+02  0.51100000000E-03 0. -1.
    9900012    2    1    2    0    0  0.10009807426E+02 -0.29679057777E+02  0.25925417852E+02  0.50528806624E+02  0.29999838212E+02 0.  0.
        -12    1    1    2    0    0 -0.10009807426E+02  0.29679057777E+02 -0.25925417852E+02  0.40659193376E+02  0.00000000000E+00 0.  1.
         11    1    3    3    0    0  0.17221617235E+01 -0.11537006712E+02  0.61899089791E+01  0.13205428365E+02  0.51100000000E-03 0. -1.
        -11    1    3    3    0    0  0.11516649544E+02  0.14057901744E+01  0.96531326462E+01  0.15092794072E+02  0.51100000000E-03 0.  1.
        -12    1    3    3    0    0 -0.32290038413E+01 -0.19547841239E+02  0.10082376227E+02  0.22230584187E+02  0.00000000000E+00 0.  1.
</event>
<event>
 7    1  0.1365318E-012  0.5052878E+02  0.7816164E-02  0.1300439E+00
        -11   -1    0    0    0    0  0.00000000000E+00  0.00000000000E+00  0.45593999997E+02  0.45594000000E+02  0.51100000000E-03 0. -1.
         11   -1    0    0    0    0 -0.00000000000E+00 -0.00000000000E+00 -0.45593999997E+02  0.45594000000E+02  0.51100000000E-03 0.  1.
    9900012    2    1    2    0    0  0.31558466315E+02 -0.14930936839E+01  0.25593092842E+02  0.50528775633E+02  0.29999744013E+02 0.  0.
        -12    1    1    2    0    0 -0.31558466315E+02  0.14930936839E+01 -0.25593092842E+02  0.40659224367E+02  0.00000000000E+00 0.  1.
         11    1    3    3    0    0  0.18601979401E+02  0.42141111567E+01  0.23624541083E+02  0.30362992476E+02  0.51100000000E-03 0. -1.
        -11    1    3    3    0    0  0.11766166168E+02 -0.94050268684E+01  0.42622073330E+01  0.15654507603E+02  0.51100000000E-03 0.  1.
        -12    1    3    3    0    0  0.11903207463E+01  0.36978220278E+01 -0.22936555742E+01  0.45112755537E+01  0.00000000000E+00 0.  1.
</event>
<event>
 7    1  0.9930326E-013  0.5052886E+02  0.7816164E-02  0.1300439E+00
        -11   -1    0    0    0    0  0.00000000000E+00  0.00000000000E+00  0.45593999997E+02  0.45594000000E+02  0.51100000000E-03 0.  1.
         11   -1    0    0    0    0 -0.00000000000E+00 -0.00000000000E+00 -0.45593999997E+02  0.45594000000E+02  0.51100000000E-03 0. -1.
    9900012    2    1    2    0    0 -0.48211367103E+01  0.17995952900E+02 -0.36139566841E+02  0.50528856238E+02  0.29999989022E+02 0.  0.
        -12    1    1    2    0    0  0.48211367103E+01 -0.17995952900E+02  0.36139566841E+02  0.40659143762E+02  0.00000000000E+00 0.  1.
         11    1    3    3    0    0  0.35569329411E+01  0.15455772095E+02 -0.27550033567E+02  0.31788944820E+02  0.51100000000E-03 0. -1.
        -11    1    3    3    0    0 -0.11686567495E+02  0.53799059980E+00 -0.32406294527E+01  0.12139479940E+02  0.51100000000E-03 0.  1.
        -12    1    3    3    0    0  0.33084978439E+01  0.20021902058E+01 -0.53489038216E+01  0.66004314780E+01  0.00000000000E+00 0.  1.
</event>
<event>
 7    1  0.9930326E-013  0.5052886E+02  0.7816164E-02  0.1300439E+00
        -11   -1    0    0    0    0  0.00000000000E+00  0.00000000000E+00  0.45593999997E+02  0.45594000000E+02  0.51100000000E-03 0.  1.
         11   -1    0    0    0    0 -0.00000000000E+00 -0.00000000000E+00 -0.45593999997E+02  0.45594000000E+02  0.51100000000E-03 0. -1.
    9900012    2    1    2    0    0  0.16248847186E+02  0.31259819482E+02 -0.20296897578E+02  0.50528863262E+02  0.30000010372E+02 0.  0.
        -12    1    1    2    0    0 -0.16248847186E+02 -0.31259819482E+02  0.20296897578E+02  0.40659136738E+02  0.00000000000E+00 0.  1.
         11    1    3    3    0    0  0.96132838164E+01  0.53958498026E+01  0.46710067499E+00  0.11033974992E+02  0.51100000000E-03 0. -1.
        -11    1    3    3    0    0  0.13102407922E+02  0.23068817991E+02 -0.15830091184E+02  0.30893935393E+02  0.51100000000E-03 0.  1.
        -12    1    3    3    0    0 -0.64668445529E+01  0.27951516883E+01 -0.49339070696E+01  0.86009528777E+01  0.00000000000E+00 0.  1.
</event>
<event>
 7    1  0.9930326E-013  0.5052885E+02  0.7816164E-02  0.1300439E+00
        -11   -1    0    0    0    0  0.00000000000E+00  0.00000000000E+00  0.45593999997E+02  0.45594000000E+02  0.51100000000E-03 0.  1.
         11   -1    0    0    0    0 -0.00000000000E+00 -0.00000000000E+00 -0.45593999997E+02  0.45594000000E+02  0.51100000000E-03 0. -1.
    9900012    2    1    2    0    0 -0.40318743093E+02 -0.36451631801E+01  0.37786960978E+01  0.50528846008E+02  0.29999957925E+02 0.  0.
        -12    1    1    2    0    0  0.40318743093E+02  0.36451631801E+01 -0.37786960978E+01  0.40659153992E+02  0.00000000000E+00 0.  1.
         11    1    3    3    0    0 -0.38995394646E+02  0.27010164706E+01 -0.18264164165E+01  0.39131471871E+02  0.51100000000E-03 0. -1.
        -11    1    3    3    0    0  0.97174819528E+00  0.14221716505E+01  0.39815023524E+00  0.17678774362E+01  0.51100000000E-03 0.  1.
         12    1    3    3    0    0 -0.22950966419E+01 -0.77683513011E+01  0.52069622791E+01  0.96294967007E+01  0.00000000000E+00 0. -1.
</event>
<event>
 7    1  0.9930326E-013  0.5052885E+02  0.7816164E-02  0.1300439E+00
        -11   -1    0    0    0    0  0.00000000000E+00  0.00000000000E+00  0.45593999997E+02  0.45594000000E+02  0.51100000000E-03 0.  1.
         11   -1    0    0    0    0 -0.00000000000E+00 -0.00000000000E+00 -0.45593999997E+02  0.45594000000E+02  0.51100000000E-03 0. -1.
    9900012    2    1    2    0    0 -0.64372917259E+01  0.34553254770E+01 -0.39997351517E+02  0.50528854322E+02  0.29999983196E+02 0.  0.
        -12    1    1    2    0    0  0.64372917259E+01 -0.34553254770E+01  0.39997351517E+02  0.40659145678E+02  0.00000000000E+00 0.  1.
         11    1    3    3    0    0 -0.41636947203E+01  0.61972961140E+01 -0.43055837993E+02  0.43698375467E+02  0.51100000000E-03 0. -1.
        -11    1    3    3    0    0 -0.20077353702E+01  0.66898819297E+00 -0.17431925356E+00  0.21234250593E+01  0.51100000000E-03 0.  1.
         12    1    3    3    0    0 -0.26586163538E+00 -0.34109588300E+01  0.32328057300E+01  0.47070537958E+01  0.00000000000E+00 0. -1.
</event>
<event>
 7    1  0.9930326E-013  0.5052885E+02  0.7816164E-02  0.1300439E+00
        -11   -1    0    0    0    0  0.00000000000E+00  0.00000000000E+00  0.45593999997E+02  0.45594000000E+02  0.51100000000E-03 0. -1.
         11   -1    0    0    0    0 -0.00000000000E+00 -0.00000000000E+00 -0.45593999997E+02  0.45594000000E+02  0.51100000000E-03 0.  1.
    9900012    2    1    2    0    0 -0.31193238329E+02  0.12617038576E+02  0.22824522427E+02  0.50528848461E+02  0.29999965381E+02 0.  0.
        -12    1    1    2    0    0  0.31193238329E+02 -0.12617038576E+02 -0.22824522427E+02  0.40659151539E+02  0.00000000000E+00 0.  1.
         11    1    3    3    0    0 -0.30502895538E+01  0.52535646667E+01  0.18867231072E+02  0.19821115424E+02  0.51100000000E-03 0. -1.
        -11    1    3    3    0    0 -0.24081794009E+01 -0.15247174761E+01 -0.10254135930E+01  0.30291194606E+01  0.51100000000E-03 0.  1.
         12    1    3    3    0    0 -0.25734769375E+02  0.88881913855E+01  0.49827049472E+01  0.27678613576E+02  0.00000000000E+00 0. -1.
</event>
<event>
 7    1  0.9930326E-013  0.5052886E+02  0.7816164E-02  0.1300439E+00
        -11   -1    0    0    0    0  0.00000000000E+00  0.00000000000E+00  0.45593999997E+02  0.45594000000E+02  0.51100000000E-03 0.  1.
         11   -1    0    0    0    0 -0.00000000000E+00 -0.00000000000E+00 -0.45593999997E+02  0.45594000000E+02  0.51100000000E-03 0. -1.
    9900012    2    1    2    0    0 -0.32762470502E+02 -0.18809374523E+02 -0.15033086334E+02  0.50528859231E+02  0.29999998118E+02 0.  0.
        -12    1    1    2    0    0  0.32762470502E+02  0.18809374523E+02  0.15033086334E+02  0.40659140769E+02  0.00000000000E+00 0.  1.
         11    1    3    3    0    0 -0.33141831949E+02 -0.21684829956E+02 -0.15060041379E+02  0.42372369792E+02  0.51100000000E-03 0. -1.
        -11    1    3    3    0    0  0.28074875061E+01  0.84438604825E+00 -0.26945067089E+01  0.39818765125E+01  0.51100000000E-03 0.  1.
        -12    1    3    3    0    0 -0.24281260593E+01  0.20310693847E+01  0.27214617547E+01  0.41746129267E+01  0.00000000000E+00 0.  1.
</event>
<event>
 7    1  0.9930326E-013  0.5052886E+02  0.7816164E-02  0.1300439E+00
        -11   -1    0    0    0    0  0.00000000000E+00  0.00000000000E+00  0.45593999997E+02  0.45594000000E+02  0.51100000000E-03 0.  1.
         11   -1    0    0    0    0 -0.00000000000E+00 -0.00000000000E+00 -0.45593999997E+02  0.45594000000E+02  0.51100000000E-03 0. -1.
    9900012    2    1    2    0    0 -0.13745771648E+02 -0.24119848253E+02 -0.29706100739E+02  0.50528859096E+02  0.29999997708E+02 0.  0.
        -12    1    1    2    0    0  0.13745771648E+02  0.24119848253E+02  0.29706100739E+02  0.40659140904E+02  0.00000000000E+00 0.  1.
         11    1    3    3    0    0  0.75601454663E+01 -0.96023513774E+01 -0.68525581423E+01  0.14011370554E+02  0.51100000000E-03 0. -1.
        -11    1    3    3    0    0 -0.19826010806E+02 -0.89297490640E+01 -0.13727721392E+02  0.25715004524E+02  0.51100000000E-03 0.  1.
         12    1    3    3    0    0 -0.14799063086E+01 -0.55877478113E+01 -0.91258212052E+01  0.10802484018E+02  0.00000000000E+00 0. -1.
</event>
<event>
 7    1  0.1012019E-012  0.5052887E+02  0.7816164E-02  0.1300439E+00
        -11   -1    0    0    0    0  0.00000000000E+00  0.00000000000E+00  0.45593999997E+02  0.45594000000E+02  0.51100000000E-03 0.  1.
         11   -1    0    0    0    0 -0.00000000000E+00 -0.00000000000E+00 -0.45593999997E+02  0.45594000000E+02  0.51100000000E-03 0. -1.
    9900012    2    1    2    0    0 -0.30030097930E+02  0.25972571765E+02 -0.87626331722E+01  0.50528868112E+02  0.30000025113E+02 0.  0.
        -12    1    1    2    0    0  0.30030097930E+02 -0.25972571765E+02  0.87626331722E+01  0.40659131888E+02  0.00000000000E+00 0.  1.
         11    1    3    3    0    0 -0.12222864197E+02  0.22325241255E+02  0.21362191595E+01  0.25541696083E+02  0.51100000000E-03 0. -1.
        -11    1    3    3    0    0  0.94841796655E+00 -0.25107733602E+01 -0.19224301995E+01  0.33013963165E+01  0.51100000000E-03 0.  1.
         12    1    3    3    0    0 -0.18755651699E+02  0.61581038711E+01 -0.89764221322E+01  0.21685775712E+02  0.00000000000E+00 0. -1.
</event>
<event>
 7    1  0.9930326E-013  0.5052886E+02  0.7816164E-02  0.1300439E+00
        -11   -1    0    0    0    0  0.00000000000E+00  0.00000000000E+00  0.45593999997E+02  0.45594000000E+02  0.51100000000E-03 0.  1.
         11   -1    0    0    0    0 -0.00000000000E+00 -0.00000000000E+00 -0.45593999997E+02  0.45594000000E+02  0.51100000000E-03 0. -1.
    9900012    2    1    2    0    0  0.18229441266E+02  0.36298504507E+02  0.18087326481E+01  0.50528862379E+02  0.30000007686E+02 0.  0.
        -12    1    1    2    0    0 -0.18229441266E+02 -0.36298504507E+02 -0.18087326481E+01  0.40659137621E+02  0.00000000000E+00 0.  1.
         11    1    3    3    0    0  0.11404344361E+02  0.35500165158E+02  0.25325502563E+01  0.37372912752E+02  0.51100000000E-03 0. -1.
        -11    1    3    3    0    0  0.56641041842E+00 -0.35224337049E+01 -0.35590599757E+01  0.50393718000E+01  0.51100000000E-03 0.  1.
         12    1    3    3    0    0  0.62586864869E+01  0.43207730539E+01  0.28352423675E+01  0.81165778261E+01  0.00000000000E+00 0. -1.
</event>
<event>
 7    1  0.9930326E-013  0.5052886E+02  0.7816164E-02  0.1300439E+00
        -11   -1    0    0    0    0  0.00000000000E+00  0.00000000000E+00  0.45593999997E+02  0.45594000000E+02  0.51100000000E-03 0.  1.
         11   -1    0    0    0    0 -0.00000000000E+00 -0.00000000000E+00 -0.45593999997E+02  0.45594000000E+02  0.51100000000E-03 0. -1.
    9900012    2    1    2    0    0  0.13629725510E+02  0.33181976031E+02  0.19140334180E+02  0.50528863963E+02  0.30000012501E+02 0.  0.
        -12    1    1    2    0    0 -0.13629725510E+02 -0.33181976031E+02 -0.19140334180E+02  0.40659136037E+02  0.00000000000E+00 0.  1.
         11    1    3    3    0    0  0.67577666123E+00 -0.22862296440E+01 -0.40630114743E+01  0.47107942624E+01  0.51100000000E-03 0. -1.
        -11    1    3    3    0    0  0.28783123214E+01  0.21034949283E+02  0.16848097657E+02  0.27103729781E+02  0.51100000000E-03 0.  1.
         12    1    3    3    0    0  0.10075636527E+02  0.14433256392E+02  0.63552479972E+01  0.18714339919E+02  0.00000000000E+00 0. -1.
</event>
<event>
 7    1  0.9930326E-013  0.5052887E+02  0.7816164E-02  0.1300439E+00
        -11   -1    0    0    0    0  0.00000000000E+00  0.00000000000E+00  0.45593999997E+02  0.45594000000E+02  0.51100000000E-03 0.  1.
         11   -1    0    0    0    0 -0.00000000000E+00 -0.00000000000E+00 -0.45593999997E+02  0.45594000000E+02  0.51100000000E-03 0. -1.
    9900012    2    1    2    0    0 -0.25029357765E+02 -0.29546647330E+02 -0.12397260852E+02  0.50528865784E+02  0.30000018037E+02 0.  0.
        -12    1    1    2    0    0  0.25029357765E+02  0.29546647330E+02  0.12397260852E+02  0.40659134216E+02  0.00000000000E+00 0.  1.
         11    1    3    3    0    0 -0.31091367429E+02 -0.22527735068E+02 -0.10815406640E+02  0.39889158890E+02  0.51100000000E-03 0. -1.
        -11    1    3    3    0    0  0.96522575569E+00  0.45411298678E+00  0.74315515096E+00  0.13000612308E+01  0.51100000000E-03 0.  1.
         12    1    3    3    0    0  0.50967839085E+01 -0.74730252489E+01 -0.23250093622E+01  0.93396456632E+01  0.00000000000E+00 0. -1.
</event>
<event>
 7    1  0.9930326E-013  0.5052886E+02  0.7816164E-02  0.1300439E+00
        -11   -1    0    0    0    0  0.00000000000E+00  0.00000000000E+00  0.45593999997E+02  0.45594000000E+02  0.51100000000E-03 0. -1.
         11   -1    0    0    0    0 -0.00000000000E+00 -0.00000000000E+00 -0.45593999997E+02  0.45594000000E+02  0.51100000000E-03 0.  1.
    9900012    2    1    2    0    0  0.38919408302E+01  0.36702698801E+02  0.17056688546E+02  0.50528856786E+02  0.29999990687E+02 0.  0.
        -12    1    1    2    0    0 -0.38919408302E+01 -0.36702698801E+02 -0.17056688546E+02  0.40659143214E+02  0.00000000000E+00 0.  1.
         11    1    3    3    0    0  0.89500910220E+01  0.49580261629E+01 -0.11103955475E+01  0.10291702059E+02  0.51100000000E-03 0.  1.
        -11    1    3    3    0    0 -0.31554339971E+01  0.76024690946E+01  0.13137722242E+02  0.15503355959E+02  0.51100000000E-03 0. -1.
        -12    1    3    3    0    0 -0.19027161947E+01  0.24142203544E+02  0.50293618520E+01  0.24733798768E+02  0.00000000000E+00 0.  1.
</event>
<event>
 7    1  0.9930326E-013  0.5052886E+02  0.7816164E-02  0.1300439E+00
        -11   -1    0    0    0    0  0.00000000000E+00  0.00000000000E+00  0.45593999997E+02  0.45594000000E+02  0.51100000000E-03 0.  1.
         11   -1    0    0    0    0 -0.00000000000E+00 -0.00000000000E+00 -0.45593999997E+02  0.45594000000E+02  0.51100000000E-03 0. -1.
    9900012    2    1    2    0    0  0.17109665146E+02  0.32425041425E+02  0.17579589197E+02  0.50528857004E+02  0.29999991351E+02 0.  0.
        -12    1    1    2    0    0 -0.17109665146E+02 -0.32425041425E+02 -0.17579589197E+02  0.40659142996E+02  0.00000000000E+00 0.  1.
         11    1    3    3    0    0 -0.34391528302E+00  0.28369353807E+02  0.14650083786E+02  0.31930603946E+02  0.51100000000E-03 0. -1.
        -11    1    3    3    0    0  0.12375230185E+02  0.96877213533E+00  0.22681965451E+01  0.12618619474E+02  0.51100000000E-03 0.  1.
         12    1    3    3    0    0  0.50783502438E+01  0.30869154821E+01  0.66130886569E+00  0.59796335847E+01  0.00000000000E+00 0. -1.
</event>
<event>
 7    1  0.9930326E-013  0.5052886E+02  0.7816164E-02  0.1300439E+00
        -11   -1    0    0    0    0  0.00000000000E+00  0.00000000000E+00  0.45593999997E+02  0.45594000000E+02  0.51100000000E-03 0.  1.
         11   -1    0    0    0    0 -0.00000000000E+00 -0.00000000000E+00 -0.45593999997E+02  0.45594000000E+02  0.51100000000E-03 0. -1.
    9900012    2    1    2    0    0 -0.27950961689E+02  0.27095401750E+02  0.11736646502E+02  0.50528856792E+02  0.29999990704E+02 0.  0.
        -12    1    1    2    0    0  0.27950961689E+02 -0.27095401750E+02 -0.11736646502E+02  0.40659143208E+02  0.00000000000E+00 0.  1.
         11    1    3    3    0    0 -0.27120719758E+02  0.29947326423E+02  0.61248607350E+01  0.40864284153E+02  0.51100000000E-03 0. -1.
        -11    1    3    3    0    0 -0.17669937334E+00 -0.42594977185E+00 -0.17897634081E+01  0.18482178429E+01  0.51100000000E-03 0.  1.
         12    1    3    3    0    0 -0.65354255785E+00 -0.24259749010E+01  0.74015491755E+01  0.78163547958E+01  0.00000000000E+00 0. -1.
</event>
<event>
 7    1  0.9930326E-013  0.5052884E+02  0.7816164E-02  0.1300439E+00
        -11   -1    0    0    0    0  0.00000000000E+00  0.00000000000E+00  0.45593999997E+02  0.45594000000E+02  0.51100000000E-03 0.  1.
         11   -1    0    0    0    0 -0.00000000000E+00 -0.00000000000E+00 -0.45593999997E+02  0.45594000000E+02  0.51100000000E-03 0. -1.
    9900012    2    1    2    0    0  0.14166946347E+02 -0.21860659650E+02 -0.31218206753E+02  0.50528840613E+02  0.29999941528E+02 0.  0.
        -12    1    1    2    0    0 -0.14166946347E+02  0.21860659650E+02  0.31218206753E+02  0.40659159387E+02  0.00000000000E+00 0.  1.
         11    1    3    3    0    0 -0.70494588577E+01 -0.59496690004E+01 -0.18618839610E+02  0.20778705929E+02  0.51100000000E-03 0. -1.
        -11    1    3    3    0    0  0.17353180486E+02 -0.10820220206E+02 -0.10716117199E+02  0.23087771793E+02  0.51100000000E-03 0.  1.
         12    1    3    3    0    0  0.38632247190E+01 -0.50907704440E+01 -0.18832499444E+01  0.66623628913E+01  0.00000000000E+00 0. -1.
</event>
<event>
 7    1  0.9930326E-013  0.5052883E+02  0.7816164E-02  0.1300439E+00
        -11   -1    0    0    0    0  0.00000000000E+00  0.00000000000E+00  0.45593999997E+02  0.45594000000E+02  0.51100000000E-03 0.  1.
         11   -1    0    0    0    0 -0.00000000000E+00 -0.00000000000E+00 -0.45593999997E+02  0.45594000000E+02  0.51100000000E-03 0. -1.
    9900012    2    1    2    0    0 -0.31019287180E+02  0.81115766713E+01 -0.25003491975E+02  0.50528825584E+02  0.29999895845E+02 0.  0.
        -12    1    1    2    0    0  0.31019287180E+02 -0.81115766713E+01  0.25003491975E+02  0.40659174416E+02  0.00000000000E+00 0.  1.
         11    1    3    3    0    0 -0.99868366093E+01  0.22468911469E+01  0.25103703462E+01  0.10539800037E+02  0.51100000000E-03 0.  1.
        -11    1    3    3    0    0 -0.16601783392E+02  0.11408235998E+02 -0.25719768395E+02  0.32669152835E+02  0.51100000000E-03 0. -1.
        -12    1    3    3    0    0 -0.44306671784E+01 -0.55435504739E+01 -0.17940939265E+01  0.73198727120E+01  0.00000000000E+00 0.  1.
</event>
<event>
 7    1  0.9930326E-013  0.5052890E+02  0.7816164E-02  0.1300439E+00
        -11   -1    0    0    0    0  0.00000000000E+00  0.00000000000E+00  0.45593999997E+02  0.45594000000E+02  0.51100000000E-03 0.  1.
         11   -1    0    0    0    0 -0.00000000000E+00 -0.00000000000E+00 -0.45593999997E+02  0.45594000000E+02  0.51100000000E-03 0. -1.
    9900012    2    1    2    0    0  0.25199285108E+02  0.97467026937E+01 -0.30383546399E+02  0.50528904153E+02  0.30000134663E+02 0.  0.
        -12    1    1    2    0    0 -0.25199285108E+02 -0.97467026937E+01  0.30383546399E+02  0.40659095847E+02  0.00000000000E+00 0.  1.
         11    1    3    3    0    0  0.12259836741E+02  0.86099073677E+01 -0.32967819162E+02  0.36212031182E+02  0.51100000000E-03 0. -1.
        -11    1    3    3    0    0  0.84401112638E+01 -0.95811412386E+00 -0.43860663888E+00  0.85056355943E+01  0.51100000000E-03 0.  1.
         12    1    3    3    0    0  0.44993371029E+01  0.20949094499E+01  0.30228794019E+01  0.58112373766E+01  0.00000000000E+00 0. -1.
</event>
<event>
 7    1  0.9930326E-013  0.5052886E+02  0.7816164E-02  0.1300439E+00
        -11   -1    0    0    0    0  0.00000000000E+00  0.00000000000E+00  0.45593999997E+02  0.45594000000E+02  0.51100000000E-03 0. -1.
         11   -1    0    0    0    0 -0.00000000000E+00 -0.00000000000E+00 -0.45593999997E+02  0.45594000000E+02  0.51100000000E-03 0.  1.
    9900012    2    1    2    0    0  0.36068405885E+02  0.16213126119E+02 -0.94535823399E+01  0.50528861044E+02  0.30000003629E+02 0.  0.
        -12    1    1    2    0    0 -0.36068405885E+02 -0.16213126119E+02  0.94535823399E+01  0.40659138956E+02  0.00000000000E+00 0.  1.
         11    1    3    3    0    0  0.78893524664E+01  0.81689687052E+01  0.35613422358E+00  0.11362251709E+02  0.51100000000E-03 0. -1.
        -11    1    3    3    0    0  0.17621802549E+02  0.23013965085E+01 -0.17465475051E+02  0.24917206304E+02  0.51100000000E-03 0.  1.
        -12    1    3    3    0    0  0.10557250869E+02  0.57427609050E+01  0.76557584875E+01  0.14249403031E+02  0.00000000000E+00 0.  1.
</event>
<event>
 7    1  0.9930326E-013  0.5052886E+02  0.7816164E-02  0.1300439E+00
        -11   -1    0    0    0    0  0.00000000000E+00  0.00000000000E+00  0.45593999997E+02  0.45594000000E+02  0.51100000000E-03 0. -1.
         11   -1    0    0    0    0 -0.00000000000E+00 -0.00000000000E+00 -0.45593999997E+02  0.45594000000E+02  0.51100000000E-03 0.  1.
    9900012    2    1    2    0    0  0.35348396123E+02  0.68949316073E+01  0.18871058555E+02  0.50528855379E+02  0.29999986409E+02 0.  0.
        -12    1    1    2    0    0 -0.35348396123E+02 -0.68949316073E+01 -0.18871058555E+02  0.40659144621E+02  0.00000000000E+00 0.  1.
         11    1    3    3    0    0  0.30816051841E+02  0.12604760766E+02  0.12078474147E+02  0.35417489790E+02  0.51100000000E-03 0. -1.
        -11    1    3    3    0    0 -0.27815802633E+01 -0.46379778716E+01  0.55002723585E+00  0.54360424686E+01  0.51100000000E-03 0.  1.
        -12    1    3    3    0    0  0.73139245460E+01 -0.10718512872E+01  0.62425571715E+01  0.96753231205E+01  0.00000000000E+00 0.  1.
</event>
<event>
 7    1  0.9930326E-013  0.5052886E+02  0.7816164E-02  0.1300439E+00
        -11   -1    0    0    0    0  0.00000000000E+00  0.00000000000E+00  0.45593999997E+02  0.45594000000E+02  0.51100000000E-03 0. -1.
         11   -1    0    0    0    0 -0.00000000000E+00 -0.00000000000E+00 -0.45593999997E+02  0.45594000000E+02  0.51100000000E-03 0.  1.
    9900012    2    1    2    0    0  0.33821778761E+02  0.21711835648E+02 -0.61521456028E+01  0.50528863004E+02  0.30000009586E+02 0.  0.
        -12    1    1    2    0    0 -0.33821778761E+02 -0.21711835648E+02  0.61521456028E+01  0.40659136996E+02  0.00000000000E+00 0.  1.
         11    1    3    3    0    0  0.28798875394E+02  0.24868892182E+02 -0.11904325349E+02  0.39869160821E+02  0.51100000000E-03 0. -1.
        -11    1    3    3    0    0  0.20874991878E+01 -0.31568427107E+01 -0.43693921510E+00  0.38097539156E+01  0.51100000000E-03 0.  1.
         12    1    3    3    0    0  0.29354041796E+01 -0.21382306815E-03  0.61891189617E+01  0.68499482674E+01  0.00000000000E+00 0. -1.
</event>
<event>
 7    1  0.9930326E-013  0.5052887E+02  0.7816164E-02  0.1300439E+00
        -11   -1    0    0    0    0  0.00000000000E+00  0.00000000000E+00  0.45593999997E+02  0.45594000000E+02  0.51100000000E-03 0.  1.
         11   -1    0    0    0    0 -0.00000000000E+00 -0.00000000000E+00 -0.45593999997E+02  0.45594000000E+02  0.51100000000E-03 0. -1.
    9900012    2    1    2    0    0 -0.30385252695E+02 -0.27001882571E+02  0.89434570721E+00  0.50528866979E+02  0.30000021671E+02 0.  0.
        -12    1    1    2    0    0  0.30385252695E+02  0.27001882571E+02 -0.89434570721E+00  0.40659133021E+02  0.00000000000E+00 0.  1.
         11    1    3    3    0    0 -0.11488910502E+02 -0.25810162541E+02  0.23312827051E+01  0.28347741255E+02  0.51100000000E-03 0. -1.
        -11    1    3    3    0    0  0.77439625299E+00  0.16458844250E+01  0.11304615765E+01  0.21416275900E+01  0.51100000000E-03 0.  1.
         12    1    3    3    0    0 -0.19670738446E+02 -0.28376044552E+01 -0.25673985744E+01  0.20039498135E+02  0.00000000000E+00 0. -1.
</event>
<event>
 7    1  0.9930326E-013  0.5052887E+02  0.7816164E-02  0.1300439E+00
        -11   -1    0    0    0    0  0.00000000000E+00  0.00000000000E+00  0.45593999997E+02  0.45594000000E+02  0.51100000000E-03 0.  1.
         11   -1    0    0    0    0 -0.00000000000E+00 -0.00000000000E+00 -0.45593999997E+02  0.45594000000E+02  0.51100000000E-03 0. -1.
    9900012    2    1    2    0    0  0.44689098841E+01 -0.18617214931E+02 -0.35869114381E+02  0.50528865555E+02  0.30000017341E+02 0.  0.
        -12    1    1    2    0    0 -0.44689098841E+01  0.18617214931E+02  0.35869114381E+02  0.40659134445E+02  0.00000000000E+00 0.  1.
         11    1    3    3    0    0 -0.10567019642E+02 -0.10154575621E+02 -0.22681308643E+02  0.27004056588E+02  0.51100000000E-03 0. -1.
        -11    1    3    3    0    0  0.57157684013E+01 -0.53352481414E+01 -0.10250274443E+01  0.78857823119E+01  0.51100000000E-03 0.  1.
         12    1    3    3    0    0  0.93201611248E+01 -0.31273911688E+01 -0.12162778293E+02  0.15639026655E+02  0.00000000000E+00 0. -1.
</event>
<event>
 7    1  0.9930326E-013  0.5052886E+02  0.7816164E-02  0.1300439E+00
        -11   -1    0    0    0    0  0.00000000000E+00  0.00000000000E+00  0.45593999997E+02  0.45594000000E+02  0.51100000000E-03 0.  1.
         11   -1    0    0    0    0 -0.00000000000E+00 -0.00000000000E+00 -0.45593999997E+02  0.45594000000E+02  0.51100000000E-03 0. -1.
    9900012    2    1    2    0    0 -0.20755473743E+02  0.32502254870E+02 -0.12883304117E+02  0.50528858508E+02  0.29999995920E+02 0.  0.
        -12    1    1    2    0    0  0.20755473743E+02 -0.32502254870E+02  0.12883304117E+02  0.40659141492E+02  0.00000000000E+00 0.  1.
         11    1    3    3    0    0 -0.19791245819E+02  0.13005493216E+02 -0.11826527885E+02  0.26470795737E+02  0.51100000000E-03 0. -1.
        -11    1    3    3    0    0  0.39554234203E+01  0.35411676941E+01  0.39607213103E+01  0.66236362090E+01  0.51100000000E-03 0.  1.
        -12    1    3    3    0    0 -0.49196513441E+01  0.15955593960E+02 -0.50174975419E+01  0.17434426562E+02  0.00000000000E+00 0.  1.
</event>
<event>
 7    1  0.9930326E-013  0.5052886E+02  0.7816164E-02  0.1300439E+00
        -11   -1    0    0    0    0  0.00000000000E+00  0.00000000000E+00  0.45593999997E+02  0.45594000000E+02  0.51100000000E-03 0.  1.
         11   -1    0    0    0    0 -0.00000000000E+00 -0.00000000000E+00 -0.45593999997E+02  0.45594000000E+02  0.51100000000E-03 0. -1.
    9900012    2    1    2    0    0  0.28869508804E+02  0.25004653098E+02 -0.13945779157E+02  0.50528856238E+02  0.29999989022E+02 0.  0.
        -12    1    1    2    0    0 -0.28869508804E+02 -0.25004653098E+02  0.13945779157E+02  0.40659143762E+02  0.00000000000E+00 0.  1.
         11    1    3    3    0    0  0.15271844893E+02  0.93582860266E+01 -0.16751662477E+02  0.24523967049E+02  0.51100000000E-03 0. -1.
        -11    1    3    3    0    0  0.41860992527E+01  0.15799438892E+02  0.70107556699E+00  0.16359621129E+02  0.51100000000E-03 0.  1.
        -12    1    3    3    0    0  0.94115646580E+01 -0.15307182016E+00  0.21048077535E+01  0.96452680612E+01  0.00000000000E+00 0.  1.
</event>
<event>
 7    1  0.9930326E-013  0.5052889E+02  0.7816164E-02  0.1300439E+00
        -11   -1    0    0    0    0  0.00000000000E+00  0.00000000000E+00  0.45593999997E+02  0.45594000000E+02  0.51100000000E-03 0. -1.
         11   -1    0    0    0    0 -0.00000000000E+00 -0.00000000000E+00 -0.45593999997E+02  0.45594000000E+02  0.51100000000E-03 0.  1.
    9900012    2    1    2    0    0 -0.11174756440E+02  0.30455079421E+02  0.24510732464E+02  0.50528892165E+02  0.30000098225E+02 0.  0.
        -12    1    1    2    0    0  0.11174756440E+02 -0.30455079421E+02 -0.24510732464E+02  0.40659107835E+02  0.00000000000E+00 0.  1.
         11    1    3    3    0    0 -0.21857730821E+01 -0.38591770047E+00  0.47339601119E+01  0.52284715778E+01  0.51100000000E-03 0. -1.
        -11    1    3    3    0    0 -0.17109705584E+02  0.21048780733E+02  0.88562885231E+01  0.28534663870E+02  0.51100000000E-03 0.  1.
        -12    1    3    3    0    0  0.81207222256E+01  0.97922163880E+01  0.10920483829E+02  0.16765756717E+02  0.00000000000E+00 0.  1.
</event>
<event>
 7    1  0.9930326E-013  0.5052886E+02  0.7816164E-02  0.1300439E+00
        -11   -1    0    0    0    0  0.00000000000E+00  0.00000000000E+00  0.45593999997E+02  0.45594000000E+02  0.51100000000E-03 0. -1.
         11   -1    0    0    0    0 -0.00000000000E+00 -0.00000000000E+00 -0.45593999997E+02  0.45594000000E+02  0.51100000000E-03 0.  1.
    9900012    2    1    2    0    0 -0.30424768165E+02 -0.19144427726E+02  0.18999745748E+02  0.50528856264E+02  0.29999989100E+02 0.  0.
        -12    1    1    2    0    0  0.30424768165E+02  0.19144427726E+02 -0.18999745748E+02  0.40659143736E+02  0.00000000000E+00 0.  1.
         11    1    3    3    0    0 -0.17705204081E+02 -0.93584379852E+01  0.22551083149E+02  0.30159674476E+02  0.51100000000E-03 0. -1.
        -11    1    3    3    0    0 -0.13329904398E+02 -0.11890370485E+02 -0.30415422836E+01  0.18119554113E+02  0.51100000000E-03 0.  1.
         12    1    3    3    0    0  0.61034031406E+00  0.21043807435E+01 -0.50979511730E+00  0.22496276746E+01  0.00000000000E+00 0. -1.
</event>
<event>
 7    1  0.9930326E-013  0.5052891E+02  0.7816164E-02  0.1300439E+00
        -11   -1    0    0    0    0  0.00000000000E+00  0.00000000000E+00  0.45593999997E+02  0.45594000000E+02  0.51100000000E-03 0. -1.
         11   -1    0    0    0    0 -0.00000000000E+00 -0.00000000000E+00 -0.45593999997E+02  0.45594000000E+02  0.51100000000E-03 0.  1.
    9900012    2    1    2    0    0  0.17712603305E+02  0.35242454685E+02  0.98688667908E+01  0.50528911720E+02  0.30000157663E+02 0.  0.
        -12    1    1    2    0    0 -0.17712603305E+02 -0.35242454685E+02 -0.98688667908E+01  0.40659088280E+02  0.00000000000E+00 0.  1.
         11    1    3    3    0    0  0.14990454565E+02  0.21963310290E+02  0.13533170692E+02  0.29837014532E+02  0.51100000000E-03 0. -1.
        -11    1    3    3    0    0 -0.20141785244E+01  0.62517042557E+00  0.44547947450E+01  0.49287878500E+01  0.51100000000E-03 0.  1.
         12    1    3    3    0    0  0.47363272645E+01  0.12653973969E+02 -0.81190986458E+01  0.15763109338E+02  0.00000000000E+00 0. -1.
</event>
<event>
 7    1  0.9930326E-013  0.5052886E+02  0.7816164E-02  0.1300439E+00
        -11   -1    0    0    0    0  0.00000000000E+00  0.00000000000E+00  0.45593999997E+02  0.45594000000E+02  0.51100000000E-03 0. -1.
         11   -1    0    0    0    0 -0.00000000000E+00 -0.00000000000E+00 -0.45593999997E+02  0.45594000000E+02  0.51100000000E-03 0.  1.
    9900012    2    1    2    0    0 -0.21868208021E+02  0.26565259395E+02  0.21661817016E+02  0.50528857790E+02  0.29999993739E+02 0.  0.
        -12    1    1    2    0    0  0.21868208021E+02 -0.26565259395E+02 -0.21661817016E+02  0.40659142210E+02  0.00000000000E+00 0.  1.
         11    1    3    3    0    0  0.23633001175E+01  0.15385299498E+02  0.76181622117E+01  0.17330003573E+02  0.51100000000E-03 0.  1.
        -11    1    3    3    0    0 -0.16393213559E+02  0.36360418096E+00  0.52947889308E+01  0.17230915497E+02  0.51100000000E-03 0. -1.
         12    1    3    3    0    0 -0.78382945801E+01  0.10816355716E+02  0.87488658736E+01  0.15967938720E+02  0.00000000000E+00 0. -1.
</event>
<event>
 7    1  0.9930326E-013  0.5052893E+02  0.7816164E-02  0.1300439E+00
        -11   -1    0    0    0    0  0.00000000000E+00  0.00000000000E+00  0.45593999997E+02  0.45594000000E+02  0.51100000000E-03 0.  1.
         11   -1    0    0    0    0 -0.00000000000E+00 -0.00000000000E+00 -0.45593999997E+02  0.45594000000E+02  0.51100000000E-03 0. -1.
    9900012    2    1    2    0    0  0.20230280102E+02  0.24616239307E+02 -0.25257404564E+02  0.50528930213E+02  0.30000213875E+02 0.  0.
        -12    1    1    2    0    0 -0.20230280102E+02 -0.24616239307E+02  0.25257404564E+02  0.40659069787E+02  0.00000000000E+00 0.  1.
         11    1    3    3    0    0  0.14843608130E+02  0.24016178538E+02 -0.18802029650E+02  0.33920876361E+02  0.51100000000E-03 0. -1.
        -11    1    3    3    0    0 -0.24814842833E+01  0.32143390795E+01  0.22032577195E+01  0.46199658880E+01  0.51100000000E-03 0.  1.
         12    1    3    3    0    0  0.78681562553E+01 -0.26142783106E+01 -0.86586326339E+01  0.11988087964E+02  0.00000000000E+00 0. -1.
</event>
<event>
 7    1  0.9930326E-013  0.5052886E+02  0.7816164E-02  0.1300439E+00
        -11   -1    0    0    0    0  0.00000000000E+00  0.00000000000E+00  0.45593999997E+02  0.45594000000E+02  0.51100000000E-03 0.  1.
         11   -1    0    0    0    0 -0.00000000000E+00 -0.00000000000E+00 -0.45593999997E+02  0.45594000000E+02  0.51100000000E-03 0. -1.
    9900012    2    1    2    0    0  0.29436367496E+02  0.20248761177E+02 -0.19407559494E+02  0.50528862945E+02  0.30000009406E+02 0.  0.
        -12    1    1    2    0    0 -0.29436367496E+02 -0.20248761177E+02  0.19407559494E+02  0.40659137055E+02  0.00000000000E+00 0.  1.
         11    1    3    3    0    0  0.82409290413E+01  0.20312115843E+02 -0.80264995655E+01  0.23343514239E+02  0.51100000000E-03 0. -1.
        -11    1    3    3    0    0  0.11661054080E+02 -0.58091645789E+01 -0.89075065496E+01  0.15781959592E+02  0.51100000000E-03 0.  1.
        -12    1    3    3    0    0  0.95343843752E+01  0.57458099127E+01 -0.24735533786E+01  0.11403389114E+02  0.00000000000E+00 0.  1.
</event>
<event>
 7    1  0.9930326E-013  0.5052885E+02  0.7816164E-02  0.1300439E+00
        -11   -1    0    0    0    0  0.00000000000E+00  0.00000000000E+00  0.45593999997E+02  0.45594000000E+02  0.51100000000E-03 0. -1.
         11   -1    0    0    0    0 -0.00000000000E+00 -0.00000000000E+00 -0.45593999997E+02  0.45594000000E+02  0.51100000000E-03 0.  1.
    9900012    2    1    2    0    0 -0.17548044910E+02 -0.24413679044E+01  0.36596068428E+02  0.50528851192E+02  0.29999973682E+02 0.  0.
        -12    1    1    2    0    0  0.17548044910E+02  0.24413679044E+01 -0.36596068428E+02  0.40659148808E+02  0.00000000000E+00 0.  1.
         11    1    3    3    0    0 -0.95157494019E+00 -0.77506048015E+01  0.21391794716E+02  0.22772488909E+02  0.51100000000E-03 0. -1.
        -11    1    3    3    0    0 -0.14750600101E+02  0.70868411231E+01  0.17751086947E+02  0.24143417499E+02  0.51100000000E-03 0.  1.
         12    1    3    3    0    0 -0.18458698686E+01 -0.17776042260E+01 -0.25468132351E+01  0.36129447838E+01  0.00000000000E+00 0. -1.
</event>
<event>
 7    1  0.9930326E-013  0.5052885E+02  0.7816164E-02  0.1300439E+00
        -11   -1    0    0    0    0  0.00000000000E+00  0.00000000000E+00  0.45593999997E+02  0.45594000000E+02  0.51100000000E-03 0.  1.
         11   -1    0    0    0    0 -0.00000000000E+00 -0.00000000000E+00 -0.45593999997E+02  0.45594000000E+02  0.51100000000E-03 0. -1.
    9900012    2    1    2    0    0 -0.31085761541E+02  0.24531232899E+02 -0.92228438210E+01  0.50528845972E+02  0.29999957818E+02 0.  0.
        -12    1    1    2    0    0  0.31085761541E+02 -0.24531232899E+02  0.92228438210E+01  0.40659154028E+02  0.00000000000E+00 0.  1.
         11    1    3    3    0    0 -0.23215179413E+02  0.86971329588E+01  0.42344129686E+01  0.25149849509E+02  0.51100000000E-03 0. -1.
        -11    1    3    3    0    0  0.31682984072E+01  0.23958683999E+01 -0.37482512438E+01  0.54614730461E+01  0.51100000000E-03 0.  1.
        -12    1    3    3    0    0 -0.11038880535E+02  0.13438231540E+02 -0.97090055458E+01  0.19917523417E+02  0.00000000000E+00 0.  1.
</event>
<event>
 7    1  0.9930326E-013  0.5052887E+02  0.7816164E-02  0.1300439E+00
        -11   -1    0    0    0    0  0.00000000000E+00  0.00000000000E+00  0.45593999997E+02  0.45594000000E+02  0.51100000000E-03 0. -1.
         11   -1    0    0    0    0 -0.00000000000E+00 -0.00000000000E+00 -0.45593999997E+02  0.45594000000E+02  0.51100000000E-03 0.  1.
    9900012    2    1    2    0    0  0.13710893545E+02  0.37370186507E+02 -0.82852750370E+01  0.50528865432E+02  0.30000016968E+02 0.  0.
        -12    1    1    2    0    0 -0.13710893545E+02 -0.37370186507E+02  0.82852750370E+01  0.40659134568E+02  0.00000000000E+00 0.  1.
         11    1    3    3    0    0  0.20218948422E+01  0.12719045477E+02  0.10288515351E+02  0.16483801897E+02  0.51100000000E-03 0. -1.
        -11    1    3    3    0    0  0.57167080319E+01  0.19154762527E+02 -0.10429293477E+02  0.22546747900E+02  0.51100000000E-03 0.  1.
         12    1    3    3    0    0  0.59722906704E+01  0.54963785028E+01 -0.81444969117E+01  0.11498315635E+02  0.00000000000E+00 0. -1.
</event>
<event>
 7    1  0.9930326E-013  0.5052886E+02  0.7816164E-02  0.1300439E+00
        -11   -1    0    0    0    0  0.00000000000E+00  0.00000000000E+00  0.45593999997E+02  0.45594000000E+02  0.51100000000E-03 0.  1.
         11   -1    0    0    0    0 -0.00000000000E+00 -0.00000000000E+00 -0.45593999997E+02  0.45594000000E+02  0.51100000000E-03 0. -1.
    9900012    2    1    2    0    0  0.42582262091E+01  0.18459299010E+02 -0.35976211882E+02  0.50528855496E+02  0.29999986766E+02 0.  0.
        -12    1    1    2    0    0 -0.42582262091E+01 -0.18459299010E+02  0.35976211882E+02  0.40659144504E+02  0.00000000000E+00 0.  1.
         11    1    3    3    0    0  0.42653735340E+00 -0.50298740931E+01 -0.16904961079E+02  0.17642541678E+02  0.51100000000E-03 0. -1.
        -11    1    3    3    0    0  0.63846636591E+01  0.49532225491E+01 -0.57837953316E+01  0.99373352746E+01  0.51100000000E-03 0.  1.
         12    1    3    3    0    0 -0.25529748034E+01  0.18535950554E+02 -0.13287455471E+02  0.22948978544E+02  0.00000000000E+00 0. -1.
</event>
<event>
 7    1  0.9930326E-013  0.5052886E+02  0.7816164E-02  0.1300439E+00
        -11   -1    0    0    0    0  0.00000000000E+00  0.00000000000E+00  0.45593999997E+02  0.45594000000E+02  0.51100000000E-03 0.  1.
         11   -1    0    0    0    0 -0.00000000000E+00 -0.00000000000E+00 -0.45593999997E+02  0.45594000000E+02  0.51100000000E-03 0. -1.
    9900012    2    1    2    0    0  0.97571540954E+01  0.39102106406E+02  0.53841541440E+01  0.50528857151E+02  0.29999991795E+02 0.  0.
        -12    1    1    2    0    0 -0.97571540954E+01 -0.39102106406E+02 -0.53841541440E+01  0.40659142849E+02  0.00000000000E+00 0.  1.
         11    1    3    3    0    0  0.38281592091E+01  0.37127626192E+02  0.24135229973E+01  0.37402413332E+02  0.51100000000E-03 0. -1.
        -11    1    3    3    0    0  0.76113688504E+01 -0.99620855264E+00 -0.11644923192E+01  0.77641103728E+01  0.51100000000E-03 0.  1.
         12    1    3    3    0    0 -0.16823739641E+01  0.29706887663E+01  0.41351234660E+01  0.53623334455E+01  0.00000000000E+00 0. -1.
</event>
<event>
 7    1  0.9930326E-013  0.5052886E+02  0.7816164E-02  0.1300439E+00
        -11   -1    0    0    0    0  0.00000000000E+00  0.00000000000E+00  0.45593999997E+02  0.45594000000E+02  0.51100000000E-03 0.  1.
         11   -1    0    0    0    0 -0.00000000000E+00 -0.00000000000E+00 -0.45593999997E+02  0.45594000000E+02  0.51100000000E-03 0. -1.
    9900012    2    1    2    0    0 -0.13572900719E+02  0.11608433224E+02 -0.36526516818E+02  0.50528858510E+02  0.29999995927E+02 0.  0.
        -12    1    1    2    0    0  0.13572900719E+02 -0.11608433224E+02  0.36526516818E+02  0.40659141490E+02  0.00000000000E+00 0.  1.
         11    1    3    3    0    0 -0.12550467398E+02 -0.47598712804E+01 -0.75472595690E+01  0.15399082239E+02  0.51100000000E-03 0. -1.
        -11    1    3    3    0    0 -0.49876865659E+01  0.11264201634E+02 -0.13084656267E+02  0.17971296159E+02  0.51100000000E-03 0.  1.
         12    1    3    3    0    0  0.39652532452E+01  0.51041028711E+01 -0.15894600982E+02  0.17158480113E+02  0.00000000000E+00 0. -1.
</event>
<event>
 7    1  0.9930326E-013  0.5052885E+02  0.7816164E-02  0.1300439E+00
        -11   -1    0    0    0    0  0.00000000000E+00  0.00000000000E+00  0.45593999997E+02  0.45594000000E+02  0.51100000000E-03 0.  1.
         11   -1    0    0    0    0 -0.00000000000E+00 -0.00000000000E+00 -0.45593999997E+02  0.45594000000E+02  0.51100000000E-03 0. -1.
    9900012    2    1    2    0    0 -0.19638194681E+02 -0.34812959746E+02 -0.74542170350E+01  0.50528853326E+02  0.29999980170E+02 0.  0.
        -12    1    1    2    0    0  0.19638194681E+02  0.34812959746E+02  0.74542170350E+01  0.40659146674E+02  0.00000000000E+00 0.  1.
         11    1    3    3    0    0 -0.90102195680E+01 -0.26003999895E+02  0.18611765222E+01  0.27583619152E+02  0.51100000000E-03 0. -1.
        -11    1    3    3    0    0 -0.88352719031E+01 -0.50650726368E+01 -0.13592848380E+02  0.16984773115E+02  0.51100000000E-03 0.  1.
        -12    1    3    3    0    0 -0.17927032103E+01 -0.37438872142E+01  0.42774548232E+01  0.59604610591E+01  0.00000000000E+00 0.  1.
</event>
<event>
 7    1  0.9930326E-013  0.5052886E+02  0.7816164E-02  0.1300439E+00
        -11   -1    0    0    0    0  0.00000000000E+00  0.00000000000E+00  0.45593999997E+02  0.45594000000E+02  0.51100000000E-03 0.  1.
         11   -1    0    0    0    0 -0.00000000000E+00 -0.00000000000E+00 -0.45593999997E+02  0.45594000000E+02  0.51100000000E-03 0. -1.
    9900012    2    1    2    0    0  0.34669599888E+01  0.32489297949E+02 -0.24198988544E+02  0.50528864011E+02  0.30000012649E+02 0.  0.
        -12    1    1    2    0    0 -0.34669599888E+01 -0.32489297949E+02  0.24198988544E+02  0.40659135989E+02  0.00000000000E+00 0.  1.
         11    1    3    3    0    0  0.14448101574E+02  0.17055518524E+02 -0.72577971235E+01  0.23501361036E+02  0.51100000000E-03 0. -1.
        -11    1    3    3    0    0 -0.34506760352E+00  0.12476165842E+00  0.10549974270E+01  0.11169856555E+01  0.51100000000E-03 0.  1.
         12    1    3    3    0    0 -0.10636073981E+02  0.15309017767E+02 -0.17996188848E+02  0.25910517320E+02  0.00000000000E+00 0. -1.
</event>
<event>
 7    1  0.9930326E-013  0.5052886E+02  0.7816164E-02  0.1300439E+00
        -11   -1    0    0    0    0  0.00000000000E+00  0.00000000000E+00  0.45593999997E+02  0.45594000000E+02  0.51100000000E-03 0.  1.
         11   -1    0    0    0    0 -0.00000000000E+00 -0.00000000000E+00 -0.45593999997E+02  0.45594000000E+02  0.51100000000E-03 0. -1.
    9900012    2    1    2    0    0  0.13981881751E-01 -0.91855192587E+00 -0.40648757130E+02  0.50528863396E+02  0.30000010779E+02 0.  0.
        -12    1    1    2    0    0 -0.13981881751E-01  0.91855192587E+00  0.40648757130E+02  0.40659136604E+02  0.00000000000E+00 0.  1.
         11    1    3    3    0    0  0.72596827477E+01 -0.22756571491E+01 -0.29417095833E+01  0.81569151394E+01  0.51100000000E-03 0. -1.
        -11    1    3    3    0    0 -0.12741368607E+02 -0.11694053231E+01 -0.29685493765E+02  0.32325508861E+02  0.51100000000E-03 0.  1.
        -12    1    3    3    0    0  0.54956677408E+01  0.25265105464E+01 -0.80215537821E+01  0.10046439396E+02  0.00000000000E+00 0.  1.
</event>
<event>
 7    1  0.9930326E-013  0.5052886E+02  0.7816164E-02  0.1300439E+00
        -11   -1    0    0    0    0  0.00000000000E+00  0.00000000000E+00  0.45593999997E+02  0.45594000000E+02  0.51100000000E-03 0. -1.
         11   -1    0    0    0    0 -0.00000000000E+00 -0.00000000000E+00 -0.45593999997E+02  0.45594000000E+02  0.51100000000E-03 0.  1.
    9900012    2    1    2    0    0  0.85946715954E+01 -0.37956749335E+02  0.11772110128E+02  0.50528858632E+02  0.29999996298E+02 0.  0.
        -12    1    1    2    0    0 -0.85946715954E+01  0.37956749335E+02 -0.11772110128E+02  0.40659141368E+02  0.00000000000E+00 0.  1.
         11    1    3    3    0    0  0.13834174182E+02 -0.11663561238E+02  0.61003420788E+01  0.19095476161E+02  0.51100000000E-03 0.  1.
        -11    1    3    3    0    0 -0.25723132346E+01 -0.10093911950E+02  0.10016219812E+02  0.14450900090E+02  0.51100000000E-03 0. -1.
         12    1    3    3    0    0 -0.26671893522E+01 -0.16199276147E+02 -0.43444517625E+01  0.16982482381E+02  0.00000000000E+00 0. -1.
</event>
<event>
 7    1  0.9930326E-013  0.5052886E+02  0.7816164E-02  0.1300439E+00
        -11   -1    0    0    0    0  0.00000000000E+00  0.00000000000E+00  0.45593999997E+02  0.45594000000E+02  0.51100000000E-03 0. -1.
         11   -1    0    0    0    0 -0.00000000000E+00 -0.00000000000E+00 -0.45593999997E+02  0.45594000000E+02  0.51100000000E-03 0.  1.
    9900012    2    1    2    0    0 -0.33867214411E+02  0.97991163110E+01  0.20252274082E+02  0.50528862061E+02  0.30000006721E+02 0.  0.
        -12    1    1    2    0    0  0.33867214411E+02 -0.97991163110E+01 -0.20252274082E+02  0.40659137939E+02  0.00000000000E+00 0.  1.
         11    1    3    3    0    0 -0.67882765212E+01 -0.12660445367E+01  0.75539531793E+01  0.10234538377E+02  0.51100000000E-03 0. -1.
        -11    1    3    3    0    0 -0.62083408484E+01  0.14483702157E+02  0.26267459134E+00  0.15760397282E+02  0.51100000000E-03 0.  1.
        -12    1    3    3    0    0 -0.20870597041E+02 -0.34185413095E+01  0.12435646311E+02  0.24533926403E+02  0.00000000000E+00 0.  1.
</event>
<event>
 7    1  0.9930326E-013  0.5052886E+02  0.7816164E-02  0.1300439E+00
        -11   -1    0    0    0    0  0.00000000000E+00  0.00000000000E+00  0.45593999997E+02  0.45594000000E+02  0.51100000000E-03 0.  1.
         11   -1    0    0    0    0 -0.00000000000E+00 -0.00000000000E+00 -0.45593999997E+02  0.45594000000E+02  0.51100000000E-03 0. -1.
    9900012    2    1    2    0    0 -0.20816140913E+02  0.33777916518E+02 -0.88829151118E+01  0.50528861449E+02  0.30000004862E+02 0.  0.
        -12    1    1    2    0    0  0.20816140913E+02 -0.33777916518E+02  0.88829151118E+01  0.40659138551E+02  0.00000000000E+00 0.  1.
         11    1    3    3    0    0 -0.67252193299E+01  0.27426226329E+01  0.64659211459E+01  0.97241292909E+01  0.51100000000E-03 0.  1.
        -11    1    3    3    0    0  0.24249217027E+01  0.75877270147E+01 -0.77974597299E+01  0.11146937921E+02  0.51100000000E-03 0. -1.
         12    1    3    3    0    0 -0.16515843286E+02  0.23447566870E+02 -0.75513765278E+01  0.29657794238E+02  0.00000000000E+00 0. -1.
</event>
<event>
 7    1  0.9930326E-013  0.5052885E+02  0.7816164E-02  0.1300439E+00
        -11   -1    0    0    0    0  0.00000000000E+00  0.00000000000E+00  0.45593999997E+02  0.45594000000E+02  0.51100000000E-03 0. -1.
         11   -1    0    0    0    0 -0.00000000000E+00 -0.00000000000E+00 -0.45593999997E+02  0.45594000000E+02  0.51100000000E-03 0.  1.
    9900012    2    1    2    0    0  0.39556596619E+02  0.40673549710E+00  0.93955672680E+01  0.50528850303E+02  0.29999970981E+02 0.  0.
        -12    1    1    2    0    0 -0.39556596619E+02 -0.40673549710E+00 -0.93955672680E+01  0.40659149697E+02  0.00000000000E+00 0.  1.
         11    1    3    3    0    0  0.23461483384E+02  0.21498682253E+01  0.11316606149E+02  0.26136731068E+02  0.51100000000E-03 0. -1.
        -11    1    3    3    0    0  0.97359696471E+01 -0.72989421565E+01 -0.74790536074E+01  0.14282853521E+02  0.51100000000E-03 0.  1.
         12    1    3    3    0    0  0.63591435879E+01  0.55558094282E+01  0.55580147264E+01  0.10109265714E+02  0.00000000000E+00 0. -1.
</event>
<event>
 7    1  0.9930326E-013  0.5052886E+02  0.7816164E-02  0.1300439E+00
        -11   -1    0    0    0    0  0.00000000000E+00  0.00000000000E+00  0.45593999997E+02  0.45594000000E+02  0.51100000000E-03 0.  1.
         11   -1    0    0    0    0 -0.00000000000E+00 -0.00000000000E+00 -0.45593999997E+02  0.45594000000E+02  0.51100000000E-03 0. -1.
    9900012    2    1    2    0    0 -0.18950445118E+02 -0.14444046354E+02 -0.32945646210E+02  0.50528862657E+02  0.30000008533E+02 0.  0.
        -12    1    1    2    0    0  0.18950445118E+02  0.14444046354E+02  0.32945646210E+02  0.40659137343E+02  0.00000000000E+00 0.  1.
         11    1    3    3    0    0 -0.43294113280E+01  0.78965762507E+01 -0.86629394522E+01  0.12495848876E+02  0.51100000000E-03 0. -1.
        -11    1    3    3    0    0 -0.12787296401E+02 -0.22628948485E+02 -0.18350219164E+02  0.31816894920E+02  0.51100000000E-03 0.  1.
        -12    1    3    3    0    0 -0.18337373898E+01  0.28832588048E+00 -0.59324875944E+01  0.62161188603E+01  0.00000000000E+00 0.  1.
</event>
<event>
 7    1  0.9930326E-013  0.5052886E+02  0.7816164E-02  0.1300439E+00
        -11   -1    0    0    0    0  0.00000000000E+00  0.00000000000E+00  0.45593999997E+02  0.45594000000E+02  0.51100000000E-03 0.  1.
         11   -1    0    0    0    0 -0.00000000000E+00 -0.00000000000E+00 -0.45593999997E+02  0.45594000000E+02  0.51100000000E-03 0. -1.
    9900012    2    1    2    0    0 -0.27912532424E+02 -0.14385640047E+02 -0.25828459933E+02  0.50528862671E+02  0.30000008574E+02 0.  0.
        -12    1    1    2    0    0  0.27912532424E+02  0.14385640047E+02  0.25828459933E+02  0.40659137329E+02  0.00000000000E+00 0.  1.
         11    1    3    3    0    0 -0.16748580860E+02 -0.70633128065E+01 -0.99645204657E+01  0.20729134497E+02  0.51100000000E-03 0. -1.
        -11    1    3    3    0    0  0.34145660609E+01  0.20248342485E+01  0.23935097302E+01  0.46355263140E+01  0.51100000000E-03 0.  1.
        -12    1    3    3    0    0 -0.14578517625E+02 -0.93471614894E+01 -0.18257449197E+02  0.25164201860E+02  0.00000000000E+00 0.  1.
</event>
<event>
 7    1  0.9930326E-013  0.5052886E+02  0.7816164E-02  0.1300439E+00
        -11   -1    0    0    0    0  0.00000000000E+00  0.00000000000E+00  0.45593999997E+02  0.45594000000E+02  0.51100000000E-03 0. -1.
         11   -1    0    0    0    0 -0.00000000000E+00 -0.00000000000E+00 -0.45593999997E+02  0.45594000000E+02  0.51100000000E-03 0.  1.
    9900012    2    1    2    0    0 -0.71422201625E+01 -0.24430408511E+02  0.31706616156E+02  0.50528859860E+02  0.30000000030E+02 0.  0.
        -12    1    1    2    0    0  0.71422201625E+01  0.24430408511E+02 -0.31706616156E+02  0.40659140140E+02  0.00000000000E+00 0.  1.
         11    1    3    3    0    0 -0.68811119932E+01 -0.14588703008E+02  0.33645223900E+02  0.37311942449E+02  0.51100000000E-03 0. -1.
        -11    1    3    3    0    0 -0.41208885908E+01 -0.48379615308E+01 -0.25928333388E+01  0.68637001344E+01  0.51100000000E-03 0.  1.
         12    1    3    3    0    0  0.38597804215E+01 -0.50037439719E+01  0.65422559424E+00  0.63532172768E+01  0.00000000000E+00 0. -1.
</event>
<event>
 7    1  0.9930326E-013  0.5052887E+02  0.7816164E-02  0.1300439E+00
        -11   -1    0    0    0    0  0.00000000000E+00  0.00000000000E+00  0.45593999997E+02  0.45594000000E+02  0.51100000000E-03 0. -1.
         11   -1    0    0    0    0 -0.00000000000E+00 -0.00000000000E+00 -0.45593999997E+02  0.45594000000E+02  0.51100000000E-03 0.  1.
    9900012    2    1    2    0    0  0.73091778482E+01  0.38656364093E+02 -0.10267744821E+02  0.50528866346E+02  0.30000019747E+02 0.  0.
        -12    1    1    2    0    0 -0.73091778482E+01 -0.38656364093E+02  0.10267744821E+02  0.40659133654E+02  0.00000000000E+00 0.  1.
         11    1    3    3    0    0 -0.72205177187E+01  0.91289787822E+01 -0.24751182999E+01  0.11899594136E+02  0.51100000000E-03 0.  1.
        -11    1    3    3    0    0  0.95865756619E+01  0.52890365923E+01  0.34185252940E+01  0.11470076567E+02  0.51100000000E-03 0. -1.
        -12    1    3    3    0    0  0.49431199050E+01  0.24238348719E+02 -0.11211151815E+02  0.27159195644E+02  0.00000000000E+00 0.  1.
</event>
<event>
 7    1  0.9930326E-013  0.5052887E+02  0.7816164E-02  0.1300439E+00
        -11   -1    0    0    0    0  0.00000000000E+00  0.00000000000E+00  0.45593999997E+02  0.45594000000E+02  0.51100000000E-03 0. -1.
         11   -1    0    0    0    0 -0.00000000000E+00 -0.00000000000E+00 -0.45593999997E+02  0.45594000000E+02  0.51100000000E-03 0.  1.
    9900012    2    1    2    0    0  0.33520416686E+02  0.20216020808E+02  0.10993597621E+02  0.50528867929E+02  0.30000024558E+02 0.  0.
        -12    1    1    2    0    0 -0.33520416686E+02 -0.20216020808E+02 -0.10993597621E+02  0.40659132071E+02  0.00000000000E+00 0.  1.
         11    1    3    3    0    0  0.13382270307E+02  0.20487661177E+01  0.11512524600E+02  0.17771348404E+02  0.51100000000E-03 0. -1.
        -11    1    3    3    0    0  0.10568406690E+02  0.15722171695E+01 -0.67200034996E+01  0.12622263429E+02  0.51100000000E-03 0.  1.
        -12    1    3    3    0    0  0.95697396894E+01  0.16595037520E+02  0.62010765207E+01  0.20135256096E+02  0.00000000000E+00 0.  1.
</event>
<event>
 7    1  0.9930326E-013  0.5052884E+02  0.7816164E-02  0.1300439E+00
        -11   -1    0    0    0    0  0.00000000000E+00  0.00000000000E+00  0.45593999997E+02  0.45594000000E+02  0.51100000000E-03 0.  1.
         11   -1    0    0    0    0 -0.00000000000E+00 -0.00000000000E+00 -0.45593999997E+02  0.45594000000E+02  0.51100000000E-03 0. -1.
    9900012    2    1    2    0    0 -0.35539919637E+02  0.14268507041E+02 -0.13656184729E+02  0.50528836674E+02  0.29999929555E+02 0.  0.
        -12    1    1    2    0    0  0.35539919637E+02 -0.14268507041E+02  0.13656184729E+02  0.40659163326E+02  0.00000000000E+00 0.  1.
         11    1    3    3    0    0 -0.25240442519E+02  0.20515424229E+02 -0.10328993449E+02  0.34126978708E+02  0.51100000000E-03 0. -1.
        -11    1    3    3    0    0 -0.36651532465E+01 -0.63201356465E+01 -0.57927632644E+01  0.93238173196E+01  0.51100000000E-03 0.  1.
         12    1    3    3    0    0 -0.66343238719E+01  0.73218458905E-01  0.24655719843E+01  0.70780406463E+01  0.00000000000E+00 0. -1.
</event>
<event>
 7    1  0.9930326E-013  0.5052887E+02  0.7816164E-02  0.1300439E+00
        -11   -1    0    0    0    0  0.00000000000E+00  0.00000000000E+00  0.45593999997E+02  0.45594000000E+02  0.51100000000E-03 0. -1.
         11   -1    0    0    0    0 -0.00000000000E+00 -0.00000000000E+00 -0.45593999997E+02  0.45594000000E+02  0.51100000000E-03 0.  1.
    9900012    2    1    2    0    0 -0.51538954294E+01  0.38858037933E+02 -0.10800716955E+02  0.50528865272E+02  0.30000016481E+02 0.  0.
        -12    1    1    2    0    0  0.51538954294E+01 -0.38858037933E+02  0.10800716955E+02  0.40659134728E+02  0.00000000000E+00 0.  1.
         11    1    3    3    0    0 -0.26585968149E+01  0.38001427258E+00  0.59280778764E+00  0.27502671153E+01  0.51100000000E-03 0. -1.
        -11    1    3    3    0    0 -0.14159108062E+02  0.21041433789E+02 -0.50217260141E+01  0.25854206803E+02  0.51100000000E-03 0.  1.
        -12    1    3    3    0    0  0.11663809448E+02  0.17436589871E+02 -0.63717987287E+01  0.21924391353E+02  0.00000000000E+00 0.  1.
</event>
<event>
 7    1  0.9930326E-013  0.5052886E+02  0.7816164E-02  0.1300439E+00
        -11   -1    0    0    0    0  0.00000000000E+00  0.00000000000E+00  0.45593999997E+02  0.45594000000E+02  0.51100000000E-03 0. -1.
         11   -1    0    0    0    0 -0.00000000000E+00 -0.00000000000E+00 -0.45593999997E+02  0.45594000000E+02  0.51100000000E-03 0.  1.
    9900012    2    1    2    0    0 -0.18893533821E+02  0.19552200921E+02  0.30230975577E+02  0.50528855082E+02  0.29999985507E+02 0.  0.
        -12    1    1    2    0    0  0.18893533821E+02 -0.19552200921E+02 -0.30230975577E+02  0.40659144918E+02  0.00000000000E+00 0.  1.
         11    1    3    3    0    0  0.11622469603E+01  0.18205612513E+02  0.85748162954E+01  0.20157445764E+02  0.51100000000E-03 0. -1.
        -11    1    3    3    0    0 -0.16190091919E+02 -0.64121349391E+00  0.13340091599E+02  0.20987812540E+02  0.51100000000E-03 0.  1.
         12    1    3    3    0    0 -0.38656888626E+01  0.19878019026E+01  0.83160676827E+01  0.93835967779E+01  0.00000000000E+00 0. -1.
</event>
<event>
 7    1  0.9930326E-013  0.5052885E+02  0.7816164E-02  0.1300439E+00
        -11   -1    0    0    0    0  0.00000000000E+00  0.00000000000E+00  0.45593999997E+02  0.45594000000E+02  0.51100000000E-03 0.  1.
         11   -1    0    0    0    0 -0.00000000000E+00 -0.00000000000E+00 -0.45593999997E+02  0.45594000000E+02  0.51100000000E-03 0. -1.
    9900012    2    1    2    0    0 -0.32747435741E+02  0.13502543874E+02 -0.19961300933E+02  0.50528846374E+02  0.29999959039E+02 0.  0.
        -12    1    1    2    0    0  0.32747435741E+02 -0.13502543874E+02  0.19961300933E+02  0.40659153626E+02  0.00000000000E+00 0.  1.
         11    1    3    3    0    0  0.30089492307E+01  0.44114300669E+01 -0.87881969363E+00  0.54117293930E+01  0.51100000000E-03 0.  1.
        -11    1    3    3    0    0 -0.31409134573E+02  0.73408564947E+01 -0.82194781916E+01  0.33286359530E+02  0.51100000000E-03 0. -1.
         12    1    3    3    0    0 -0.43472503978E+01  0.17502573120E+01 -0.10863003047E+02  0.11830757452E+02  0.00000000000E+00 0. -1.
</event>
<event>
 7    1  0.9930326E-013  0.5052886E+02  0.7816164E-02  0.1300439E+00
        -11   -1    0    0    0    0  0.00000000000E+00  0.00000000000E+00  0.45593999997E+02  0.45594000000E+02  0.51100000000E-03 0. -1.
         11   -1    0    0    0    0 -0.00000000000E+00 -0.00000000000E+00 -0.45593999997E+02  0.45594000000E+02  0.51100000000E-03 0.  1.
    9900012    2    1    2    0    0  0.34739201990E+01  0.38552613554E+02 -0.12441614155E+02  0.50528857164E+02  0.29999991834E+02 0.  0.
        -12    1    1    2    0    0 -0.34739201990E+01 -0.38552613554E+02  0.12441614155E+02  0.40659142836E+02  0.00000000000E+00 0.  1.
         11    1    3    3    0    0  0.58495355642E+01 -0.49518366169E+00  0.32897492936E+01  0.67293925322E+01  0.51100000000E-03 0. -1.
        -11    1    3    3    0    0  0.84888642006E+00  0.21449647686E+02 -0.26356505245E+01  0.21627636208E+02  0.51100000000E-03 0.  1.
        -12    1    3    3    0    0 -0.32245017853E+01  0.17598149530E+02 -0.13095712924E+02  0.22171828423E+02  0.00000000000E+00 0.  1.
</event>
<event>
 7    1  0.9930326E-013  0.5052887E+02  0.7816164E-02  0.1300439E+00
        -11   -1    0    0    0    0  0.00000000000E+00  0.00000000000E+00  0.45593999997E+02  0.45594000000E+02  0.51100000000E-03 0.  1.
         11   -1    0    0    0    0 -0.00000000000E+00 -0.00000000000E+00 -0.45593999997E+02  0.45594000000E+02  0.51100000000E-03 0. -1.
    9900012    2    1    2    0    0  0.23555656505E+02 -0.22966761356E+02  0.23891920934E+02  0.50528868596E+02  0.30000026585E+02 0.  0.
        -12    1    1    2    0    0 -0.23555656505E+02  0.22966761356E+02 -0.23891920934E+02  0.40659131404E+02  0.00000000000E+00 0.  1.
         11    1    3    3    0    0  0.41992046608E+01 -0.54384865550E+01  0.17203202416E+02  0.18524595257E+02  0.51100000000E-03 0. -1.
        -11    1    3    3    0    0  0.20124468663E+02 -0.19546889155E+02  0.83593424629E+01  0.29273771901E+02  0.51100000000E-03 0.  1.
        -12    1    3    3    0    0 -0.76801681878E+00  0.20186143535E+01 -0.16706239449E+01  0.27305014388E+01  0.00000000000E+00 0.  1.
</event>
<event>
 7    1  0.9930326E-013  0.5052886E+02  0.7816164E-02  0.1300439E+00
        -11   -1    0    0    0    0  0.00000000000E+00  0.00000000000E+00  0.45593999997E+02  0.45594000000E+02  0.51100000000E-03 0.  1.
         11   -1    0    0    0    0 -0.00000000000E+00 -0.00000000000E+00 -0.45593999997E+02  0.45594000000E+02  0.51100000000E-03 0. -1.
    9900012    2    1    2    0    0 -0.27080309634E+02 -0.14668035863E+02 -0.26545647382E+02  0.50528857844E+02  0.29999993902E+02 0.  0.
        -12    1    1    2    0    0  0.27080309634E+02  0.14668035863E+02  0.26545647382E+02  0.40659142156E+02  0.00000000000E+00 0.  1.
         11    1    3    3    0    0 -0.73217179594E+01 -0.26566098626E+01 -0.76127343815E+01  0.10891228345E+02  0.51100000000E-03 0. -1.
        -11    1    3    3    0    0  0.22245129410E+01 -0.10721369860E+02 -0.12664849011E+02  0.16742001978E+02  0.51100000000E-03 0.  1.
        -12    1    3    3    0    0 -0.21983104616E+02 -0.12900561406E+01 -0.62680639894E+01  0.22895627521E+02  0.00000000000E+00 0.  1.
</event>
<event>
 7    1  0.9930326E-013  0.5052886E+02  0.7816164E-02  0.1300439E+00
        -11   -1    0    0    0    0  0.00000000000E+00  0.00000000000E+00  0.45593999997E+02  0.45594000000E+02  0.51100000000E-03 0. -1.
         11   -1    0    0    0    0 -0.00000000000E+00 -0.00000000000E+00 -0.45593999997E+02  0.45594000000E+02  0.51100000000E-03 0.  1.
    9900012    2    1    2    0    0 -0.23681035283E+02  0.13820825833E+02  0.30022636263E+02  0.50528863918E+02  0.30000012365E+02 0.  0.
        -12    1    1    2    0    0  0.23681035283E+02 -0.13820825833E+02 -0.30022636263E+02  0.40659136082E+02  0.00000000000E+00 0.  1.
         11    1    3    3    0    0 -0.14434709627E+02 -0.68537781226E+01  0.86104988783E+01  0.18151468474E+02  0.51100000000E-03 0. -1.
        -11    1    3    3    0    0 -0.23981763592E+01  0.10430170846E+02  0.48912466066E+01  0.11767073015E+02  0.51100000000E-03 0.  1.
         12    1    3    3    0    0 -0.68481492970E+01  0.10244433110E+02  0.16520890778E+02  0.20610322429E+02  0.00000000000E+00 0. -1.
</event>
<event>
 7    1  0.9930326E-013  0.5052886E+02  0.7816164E-02  0.1300439E+00
        -11   -1    0    0    0    0  0.00000000000E+00  0.00000000000E+00  0.45593999997E+02  0.45594000000E+02  0.51100000000E-03 0. -1.
         11   -1    0    0    0    0 -0.00000000000E+00 -0.00000000000E+00 -0.45593999997E+02  0.45594000000E+02  0.51100000000E-03 0.  1.
    9900012    2    1    2    0    0 -0.40496256294E+02  0.36350944851E+01  0.68391953542E-01  0.50528863718E+02  0.30000011757E+02 0.  0.
        -12    1    1    2    0    0  0.40496256294E+02 -0.36350944851E+01 -0.68391953542E-01  0.40659136282E+02  0.00000000000E+00 0.  1.
         11    1    3    3    0    0 -0.36161027907E+02  0.97075530838E+00  0.20125137268E+01  0.36229994713E+02  0.51100000000E-03 0. -1.
        -11    1    3    3    0    0 -0.53688957276E+01 -0.50929409752E+00 -0.66296053972E+01  0.85461154799E+01  0.51100000000E-03 0.  1.
         12    1    3    3    0    0  0.10336673401E+01  0.31736332742E+01  0.46854836239E+01  0.57527535250E+01  0.00000000000E+00 0. -1.
</event>
<event>
 7    1  0.9930326E-013  0.5052886E+02  0.7816164E-02  0.1300439E+00
        -11   -1    0    0    0    0  0.00000000000E+00  0.00000000000E+00  0.45593999997E+02  0.45594000000E+02  0.51100000000E-03 0. -1.
         11   -1    0    0    0    0 -0.00000000000E+00 -0.00000000000E+00 -0.45593999997E+02  0.45594000000E+02  0.51100000000E-03 0.  1.
    9900012    2    1    2    0    0 -0.11506025399E+02  0.76582012588E+01  0.38237790897E+02  0.50528864253E+02  0.30000013384E+02 0.  0.
        -12    1    1    2    0    0  0.11506025399E+02 -0.76582012588E+01 -0.38237790897E+02  0.40659135747E+02  0.00000000000E+00 0.  1.
         11    1    3    3    0    0  0.18432488077E+01  0.41735874824E+01 -0.25485880361E+01  0.52260596896E+01  0.51100000000E-03 0. -1.
        -11    1    3    3    0    0 -0.63286339137E+01  0.83769111534E+01  0.28127880534E+02  0.30023356097E+02  0.51100000000E-03 0.  1.
         12    1    3    3    0    0 -0.70206402931E+01 -0.48922973770E+01  0.12658498399E+02  0.15279448467E+02  0.00000000000E+00 0. -1.
</event>
<event>
 7    1  0.9930326E-013  0.5052886E+02  0.7816164E-02  0.1300439E+00
        -11   -1    0    0    0    0  0.00000000000E+00  0.00000000000E+00  0.45593999997E+02  0.45594000000E+02  0.51100000000E-03 0.  1.
         11   -1    0    0    0    0 -0.00000000000E+00 -0.00000000000E+00 -0.45593999997E+02  0.45594000000E+02  0.51100000000E-03 0. -1.
    9900012    2    1    2    0    0 -0.24547949855E+02 -0.23179405058E+02 -0.22655657310E+02  0.50528862416E+02  0.30000007800E+02 0.  0.
        -12    1    1    2    0    0  0.24547949855E+02  0.23179405058E+02  0.22655657310E+02  0.40659137584E+02  0.00000000000E+00 0.  1.
         11    1    3    3    0    0 -0.13155026195E+02  0.31884681913E+01 -0.11352696490E+02  0.17666486958E+02  0.51100000000E-03 0. -1.
        -11    1    3    3    0    0 -0.77230532217E+01 -0.19117084413E+02 -0.13246354425E+02  0.24506618970E+02  0.51100000000E-03 0.  1.
         12    1    3    3    0    0 -0.36698704383E+01 -0.72507888359E+01  0.19433936048E+01  0.83557564875E+01  0.00000000000E+00 0. -1.
</event>
<event>
 7    1  0.9930326E-013  0.5052886E+02  0.7816164E-02  0.1300439E+00
        -11   -1    0    0    0    0  0.00000000000E+00  0.00000000000E+00  0.45593999997E+02  0.45594000000E+02  0.51100000000E-03 0.  1.
         11   -1    0    0    0    0 -0.00000000000E+00 -0.00000000000E+00 -0.45593999997E+02  0.45594000000E+02  0.51100000000E-03 0. -1.
    9900012    2    1    2    0    0  0.10478019080E+02 -0.20116396055E+02 -0.33744740485E+02  0.50528858537E+02  0.29999996010E+02 0.  0.
        -12    1    1    2    0    0 -0.10478019080E+02  0.20116396055E+02  0.33744740485E+02  0.40659141463E+02  0.00000000000E+00 0.  1.
         11    1    3    3    0    0  0.14407831986E+02 -0.21847035145E+02 -0.30646558588E+02  0.40300001497E+02  0.51100000000E-03 0. -1.
        -11    1    3    3    0    0  0.66456191645E+00 -0.30001974125E+01 -0.38124695729E+00  0.30964780895E+01  0.51100000000E-03 0.  1.
         12    1    3    3    0    0 -0.45943748224E+01  0.47308365025E+01 -0.27169349401E+01  0.71323789503E+01  0.00000000000E+00 0. -1.
</event>
<event>
 7    1  0.9930326E-013  0.5052886E+02  0.7816164E-02  0.1300439E+00
        -11   -1    0    0    0    0  0.00000000000E+00  0.00000000000E+00  0.45593999997E+02  0.45594000000E+02  0.51100000000E-03 0. -1.
         11   -1    0    0    0    0 -0.00000000000E+00 -0.00000000000E+00 -0.45593999997E+02  0.45594000000E+02  0.51100000000E-03 0.  1.
    9900012    2    1    2    0    0  0.25083503992E+02 -0.24792352699E+02  0.20231725816E+02  0.50528860137E+02  0.30000000873E+02 0.  0.
        -12    1    1    2    0    0 -0.25083503992E+02  0.24792352699E+02 -0.20231725816E+02  0.40659139863E+02  0.00000000000E+00 0.  1.
         11    1    3    3    0    0  0.39941173186E+01  0.61292285683E+00  0.11075668751E+01  0.41899107660E+01  0.51100000000E-03 0. -1.
        -11    1    3    3    0    0  0.11190754708E+02 -0.15393902188E+02 -0.38280467061E+01  0.19412860618E+02  0.51100000000E-03 0.  1.
        -12    1    3    3    0    0  0.98986319650E+01 -0.10011373368E+02  0.22952205647E+02  0.26926088754E+02  0.00000000000E+00 0.  1.
</event>
<event>
 7    1  0.9930326E-013  0.5052887E+02  0.7816164E-02  0.1300439E+00
        -11   -1    0    0    0    0  0.00000000000E+00  0.00000000000E+00  0.45593999997E+02  0.45594000000E+02  0.51100000000E-03 0. -1.
         11   -1    0    0    0    0 -0.00000000000E+00 -0.00000000000E+00 -0.45593999997E+02  0.45594000000E+02  0.51100000000E-03 0.  1.
    9900012    2    1    2    0    0 -0.58748917397E+01 -0.38986053546E+02  0.99367101326E+01  0.50528869017E+02  0.30000027865E+02 0.  0.
        -12    1    1    2    0    0  0.58748917397E+01  0.38986053546E+02 -0.99367101326E+01  0.40659130983E+02  0.00000000000E+00 0.  1.
         11    1    3    3    0    0 -0.46142990116E+01 -0.27940698767E+02 -0.60728255747E+00  0.28325663193E+02  0.51100000000E-03 0. -1.
        -11    1    3    3    0    0  0.35589939770E+01  0.29111860117E+01  0.12818289208E+01  0.47733141282E+01  0.51100000000E-03 0.  1.
         12    1    3    3    0    0 -0.48195867051E+01 -0.13956540790E+02  0.92621637693E+01  0.17429891696E+02  0.00000000000E+00 0. -1.
</event>
<event>
 7    1  0.9930326E-013  0.5052888E+02  0.7816164E-02  0.1300439E+00
        -11   -1    0    0    0    0  0.00000000000E+00  0.00000000000E+00  0.45593999997E+02  0.45594000000E+02  0.51100000000E-03 0. -1.
         11   -1    0    0    0    0 -0.00000000000E+00 -0.00000000000E+00 -0.45593999997E+02  0.45594000000E+02  0.51100000000E-03 0.  1.
    9900012    2    1    2    0    0  0.26864833957E+02 -0.71661305608E+01  0.29666334001E+02  0.50528879206E+02  0.30000058833E+02 0.  0.
        -12    1    1    2    0    0 -0.26864833957E+02  0.71661305608E+01 -0.29666334001E+02  0.40659120794E+02  0.00000000000E+00 0.  1.
         11    1    3    3    0    0  0.18135980923E+02  0.36349742507E+00  0.27927189082E+02  0.33301258606E+02  0.51100000000E-03 0. -1.
        -11    1    3    3    0    0  0.16243097269E+00 -0.48356464622E+01 -0.42448053846E+01  0.64364767958E+01  0.51100000000E-03 0.  1.
        -12    1    3    3    0    0  0.85664220611E+01 -0.26939815236E+01  0.59839503029E+01  0.10791143804E+02  0.00000000000E+00 0.  1.
</event>
<event>
 7    1  0.9930326E-013  0.5052887E+02  0.7816164E-02  0.1300439E+00
        -11   -1    0    0    0    0  0.00000000000E+00  0.00000000000E+00  0.45593999997E+02  0.45594000000E+02  0.51100000000E-03 0. -1.
         11   -1    0    0    0    0 -0.00000000000E+00 -0.00000000000E+00 -0.45593999997E+02  0.45594000000E+02  0.51100000000E-03 0.  1.
    9900012    2    1    2    0    0 -0.36700144157E+02 -0.17327621558E+02  0.24531349405E+01  0.50528869155E+02  0.30000028285E+02 0.  0.
        -12    1    1    2    0    0  0.36700144157E+02  0.17327621558E+02 -0.24531349405E+01  0.40659130845E+02  0.00000000000E+00 0.  1.
         11    1    3    3    0    0 -0.22549249508E+02 -0.17540709752E+02  0.12425254801E+02  0.31153364331E+02  0.51100000000E-03 0. -1.
        -11    1    3    3    0    0 -0.67233713408E+01  0.36742352787E+01 -0.77213713630E+01  0.10877651541E+02  0.51100000000E-03 0.  1.
         12    1    3    3    0    0 -0.74275233082E+01 -0.34611470839E+01 -0.22507484971E+01  0.84978532834E+01  0.00000000000E+00 0. -1.
</event>
<event>
 7    1  0.9930326E-013  0.5052886E+02  0.7816164E-02  0.1300439E+00
        -11   -1    0    0    0    0  0.00000000000E+00  0.00000000000E+00  0.45593999997E+02  0.45594000000E+02  0.51100000000E-03 0.  1.
         11   -1    0    0    0    0 -0.00000000000E+00 -0.00000000000E+00 -0.45593999997E+02  0.45594000000E+02  0.51100000000E-03 0. -1.
    9900012    2    1    2    0    0 -0.87164146641E+01 -0.16318976749E+01 -0.39680306971E+02  0.50528859134E+02  0.29999997824E+02 0.  0.
        -12    1    1    2    0    0  0.87164146641E+01  0.16318976749E+01  0.39680306971E+02  0.40659140866E+02  0.00000000000E+00 0.  1.
         11    1    3    3    0    0 -0.42967262281E+01  0.68054288240E+00 -0.40785159103E+02  0.41016511288E+02  0.51100000000E-03 0. -1.
        -11    1    3    3    0    0 -0.38327610441E+01  0.21518329460E+01  0.21451821524E+01  0.48910376176E+01  0.51100000000E-03 0.  1.
        -12    1    3    3    0    0 -0.58692739193E+00 -0.44642735033E+01 -0.10403300203E+01  0.46213102284E+01  0.00000000000E+00 0.  1.
</event>
<event>
 7    1  0.9930326E-013  0.5052884E+02  0.7816164E-02  0.1300439E+00
        -11   -1    0    0    0    0  0.00000000000E+00  0.00000000000E+00  0.45593999997E+02  0.45594000000E+02  0.51100000000E-03 0.  1.
         11   -1    0    0    0    0 -0.00000000000E+00 -0.00000000000E+00 -0.45593999997E+02  0.45594000000E+02  0.51100000000E-03 0. -1.
    9900012    2    1    2    0    0 -0.26961129811E+02 -0.51922170306E+01 -0.29988431838E+02  0.50528835197E+02  0.29999925064E+02 0.  0.
        -12    1    1    2    0    0  0.26961129811E+02  0.51922170306E+01  0.29988431838E+02  0.40659164803E+02  0.00000000000E+00 0.  1.
         11    1    3    3    0    0 -0.14071889565E+02  0.15094499815E+01 -0.82664336353E+01  0.16389949374E+02  0.51100000000E-03 0. -1.
        -11    1    3    3    0    0  0.30210262550E+01 -0.10828739546E+01 -0.16004730345E+02  0.16323314899E+02  0.51100000000E-03 0.  1.
        -12    1    3    3    0    0 -0.15910266501E+02 -0.56187930576E+01 -0.57172678578E+01  0.17815570923E+02  0.00000000000E+00 0.  1.
</event>
<event>
 7    1  0.9930326E-013  0.5052885E+02  0.7816164E-02  0.1300439E+00
        -11   -1    0    0    0    0  0.00000000000E+00  0.00000000000E+00  0.45593999997E+02  0.45594000000E+02  0.51100000000E-03 0. -1.
         11   -1    0    0    0    0 -0.00000000000E+00 -0.00000000000E+00 -0.45593999997E+02  0.45594000000E+02  0.51100000000E-03 0.  1.
    9900012    2    1    2    0    0 -0.18008343387E+01  0.39223991933E+02 -0.10554724049E+02  0.50528846698E+02  0.29999960023E+02 0.  0.
        -12    1    1    2    0    0  0.18008343387E+01 -0.39223991933E+02  0.10554724049E+02  0.40659153302E+02  0.00000000000E+00 0.  1.
         11    1    3    3    0    0  0.42560910442E+00  0.41685743705E+02 -0.61844607040E+01  0.42144156485E+02  0.51100000000E-03 0. -1.
        -11    1    3    3    0    0 -0.11115523490E+01 -0.23980754502E+01 -0.59149322100E+01  0.64786370325E+01  0.51100000000E-03 0.  1.
        -12    1    3    3    0    0 -0.11148910942E+01 -0.63676321405E-01  0.15446688648E+01  0.19060531807E+01  0.00000000000E+00 0.  1.
</event>
<event>
 7    1  0.9930326E-013  0.5052885E+02  0.7816164E-02  0.1300439E+00
        -11   -1    0    0    0    0  0.00000000000E+00  0.00000000000E+00  0.45593999997E+02  0.45594000000E+02  0.51100000000E-03 0. -1.
         11   -1    0    0    0    0 -0.00000000000E+00 -0.00000000000E+00 -0.45593999997E+02  0.45594000000E+02  0.51100000000E-03 0.  1.
    9900012    2    1    2    0    0  0.95730646826E+01 -0.80957137568E+01  0.38677929067E+02  0.50528851638E+02  0.29999975038E+02 0.  0.
        -12    1    1    2    0    0 -0.95730646826E+01  0.80957137568E+01 -0.38677929067E+02  0.40659148362E+02  0.00000000000E+00 0.  1.
         11    1    3    3    0    0 -0.31527782274E+01 -0.16703823978E+02  0.18589758105E+02  0.25190014940E+02  0.51100000000E-03 0. -1.
        -11    1    3    3    0    0  0.37863573648E+01  0.20924217144E+01  0.66498739723E+01  0.79331932306E+01  0.51100000000E-03 0.  1.
         12    1    3    3    0    0  0.89394855452E+01  0.65156885063E+01  0.13438296989E+02  0.17405643467E+02  0.00000000000E+00 0. -1.
</event>
<event>
 7    1  0.9930326E-013  0.5052881E+02  0.7816164E-02  0.1300439E+00
        -11   -1    0    0    0    0  0.00000000000E+00  0.00000000000E+00  0.45593999997E+02  0.45594000000E+02  0.51100000000E-03 0. -1.
         11   -1    0    0    0    0 -0.00000000000E+00 -0.00000000000E+00 -0.45593999997E+02  0.45594000000E+02  0.51100000000E-03 0.  1.
    9900012    2    1    2    0    0  0.12084983619E+02  0.35085156522E+02  0.16617904736E+02  0.50528809218E+02  0.29999846099E+02 0.  0.
        -12    1    1    2    0    0 -0.12084983619E+02 -0.35085156522E+02 -0.16617904736E+02  0.40659190782E+02  0.00000000000E+00 0.  1.
         11    1    3    3    0    0 -0.42313190261E+01  0.41997713383E+01  0.96056465385E+01  0.11305334390E+02  0.51100000000E-03 0. -1.
        -11    1    3    3    0    0  0.12169597899E+02  0.31501919294E+02  0.38856294621E+01  0.33993648654E+02  0.51100000000E-03 0.  1.
        -12    1    3    3    0    0  0.41467047455E+01 -0.61653411045E+00  0.31266287354E+01  0.52298261735E+01  0.00000000000E+00 0.  1.
</event>
<event>
 7    1  0.9930326E-013  0.5052887E+02  0.7816164E-02  0.1300439E+00
        -11   -1    0    0    0    0  0.00000000000E+00  0.00000000000E+00  0.45593999997E+02  0.45594000000E+02  0.51100000000E-03 0. -1.
         11   -1    0    0    0    0 -0.00000000000E+00 -0.00000000000E+00 -0.45593999997E+02  0.45594000000E+02  0.51100000000E-03 0.  1.
    9900012    2    1    2    0    0 -0.51388735713E+01 -0.12341290644E+02  0.38398564543E+02  0.50528865291E+02  0.30000016538E+02 0.  0.
        -12    1    1    2    0    0  0.51388735713E+01  0.12341290644E+02 -0.38398564543E+02  0.40659134709E+02  0.00000000000E+00 0.  1.
         11    1    3    3    0    0 -0.29547311564E+01 -0.68133718761E+01  0.12310630505E+02  0.14377207525E+02  0.51100000000E-03 0. -1.
        -11    1    3    3    0    0  0.18810726150E+01  0.89588687041E+01  0.55966361212E+01  0.10729496669E+02  0.51100000000E-03 0.  1.
        -12    1    3    3    0    0 -0.40652150299E+01 -0.14486787472E+02  0.20491297917E+02  0.25422161096E+02  0.00000000000E+00 0.  1.
</event>
<event>
 7    1  0.9930326E-013  0.5052886E+02  0.7816164E-02  0.1300439E+00
        -11   -1    0    0    0    0  0.00000000000E+00  0.00000000000E+00  0.45593999997E+02  0.45594000000E+02  0.51100000000E-03 0. -1.
         11   -1    0    0    0    0 -0.00000000000E+00 -0.00000000000E+00 -0.45593999997E+02  0.45594000000E+02  0.51100000000E-03 0.  1.
    9900012    2    1    2    0    0  0.98022495912E+01 -0.38004624476E+02 -0.10617455977E+02  0.50528856501E+02  0.29999989821E+02 0.  0.
        -12    1    1    2    0    0 -0.98022495912E+01  0.38004624476E+02  0.10617455977E+02  0.40659143499E+02  0.00000000000E+00 0.  1.
         11    1    3    3    0    0  0.46880222958E+01 -0.81824429458E+01 -0.90179712777E+01  0.13048131354E+02  0.51100000000E-03 0. -1.
        -11    1    3    3    0    0 -0.67655401514E+00 -0.26470373170E+02  0.62094820012E+01  0.27197353696E+02  0.51100000000E-03 0.  1.
        -12    1    3    3    0    0  0.57907813105E+01 -0.33518083607E+01 -0.78089667002E+01  0.10283371451E+02  0.00000000000E+00 0.  1.
</event>
<event>
 7    1  0.9930326E-013  0.5052886E+02  0.7816164E-02  0.1300439E+00
        -11   -1    0    0    0    0  0.00000000000E+00  0.00000000000E+00  0.45593999997E+02  0.45594000000E+02  0.51100000000E-03 0. -1.
         11   -1    0    0    0    0 -0.00000000000E+00 -0.00000000000E+00 -0.45593999997E+02  0.45594000000E+02  0.51100000000E-03 0.  1.
    9900012    2    1    2    0    0 -0.11573302548E+02 -0.26457390256E+02  0.28622211154E+02  0.50528858317E+02  0.29999995341E+02 0.  0.
        -12    1    1    2    0    0  0.11573302548E+02  0.26457390256E+02 -0.28622211154E+02  0.40659141683E+02  0.00000000000E+00 0.  1.
         11    1    3    3    0    0 -0.98233904131E+01 -0.29121060562E+01  0.22961592249E+02  0.25143867637E+02  0.51100000000E-03 0. -1.
        -11    1    3    3    0    0  0.23748984564E+01 -0.14407861786E+02  0.21334247797E+01  0.14757307528E+02  0.51100000000E-03 0.  1.
         12    1    3    3    0    0 -0.41248105917E+01 -0.91374224133E+01  0.35271941258E+01  0.10627683152E+02  0.00000000000E+00 0. -1.
</event>
<event>
 7    1  0.9930326E-013  0.5052886E+02  0.7816164E-02  0.1300439E+00
        -11   -1    0    0    0    0  0.00000000000E+00  0.00000000000E+00  0.45593999997E+02  0.45594000000E+02  0.51100000000E-03 0. -1.
         11   -1    0    0    0    0 -0.00000000000E+00 -0.00000000000E+00 -0.45593999997E+02  0.45594000000E+02  0.51100000000E-03 0.  1.
    9900012    2    1    2    0    0  0.16401072218E+02 -0.24765610004E+02  0.27763921700E+02  0.50528856416E+02  0.29999989562E+02 0.  0.
        -12    1    1    2    0    0 -0.16401072218E+02  0.24765610004E+02 -0.27763921700E+02  0.40659143584E+02  0.00000000000E+00 0.  1.
         11    1    3    3    0    0  0.81913795850E+01 -0.74620687523E+01  0.27141092829E+02  0.29315867543E+02  0.51100000000E-03 0. -1.
        -11    1    3    3    0    0 -0.16312696437E+00 -0.36155616281E+01  0.33564844459E+01  0.49360798605E+01  0.51100000000E-03 0.  1.
         12    1    3    3    0    0  0.83728195973E+01 -0.13687979624E+02 -0.27336555748E+01  0.16276909012E+02  0.00000000000E+00 0. -1.
</event>
<event>
 7    1  0.9930326E-013  0.5052887E+02  0.7816164E-02  0.1300439E+00
        -11   -1    0    0    0    0  0.00000000000E+00  0.00000000000E+00  0.45593999997E+02  0.45594000000E+02  0.51100000000E-03 0.  1.
         11   -1    0    0    0    0 -0.00000000000E+00 -0.00000000000E+00 -0.45593999997E+02  0.45594000000E+02  0.51100000000E-03 0. -1.
    9900012    2    1    2    0    0  0.16510737198E+02 -0.15832755059E+02 -0.33613756539E+02  0.50528865672E+02  0.30000017697E+02 0.  0.
        -12    1    1    2    0    0 -0.16510737198E+02  0.15832755059E+02  0.33613756539E+02  0.40659134328E+02  0.00000000000E+00 0.  1.
         11    1    3    3    0    0  0.81705386108E+01  0.19812265422E+00 -0.24585325407E+02  0.25908206797E+02  0.51100000000E-03 0. -1.
        -11    1    3    3    0    0  0.39159334849E+01 -0.14886219048E+02 -0.11693311885E+02  0.19330483587E+02  0.51100000000E-03 0.  1.
        -12    1    3    3    0    0  0.44242651026E+01 -0.11446586653E+01  0.26648807528E+01  0.52901752887E+01  0.00000000000E+00 0.  1.
</event>
<event>
 7    1  0.9930326E-013  0.5052886E+02  0.7816164E-02  0.1300439E+00
        -11   -1    0    0    0    0  0.00000000000E+00  0.00000000000E+00  0.45593999997E+02  0.45594000000E+02  0.51100000000E-03 0.  1.
         11   -1    0    0    0    0 -0.00000000000E+00 -0.00000000000E+00 -0.45593999997E+02  0.45594000000E+02  0.51100000000E-03 0. -1.
    9900012    2    1    2    0    0  0.18900182492E+01 -0.37455210917E+02 -0.15706705823E+02  0.50528860786E+02  0.30000002846E+02 0.  0.
        -12    1    1    2    0    0 -0.18900182492E+01  0.37455210917E+02  0.15706705823E+02  0.40659139214E+02  0.00000000000E+00 0.  1.
         11    1    3    3    0    0 -0.61150835314E+01 -0.24605042525E+02 -0.11488726589E+02  0.27835107385E+02  0.51100000000E-03 0. -1.
        -11    1    3    3    0    0  0.81672355969E+01 -0.50809974966E+01 -0.93234553739E+01  0.13395786398E+02  0.51100000000E-03 0.  1.
         12    1    3    3    0    0 -0.16213381625E+00 -0.77691708950E+01  0.51054761397E+01  0.92979670027E+01  0.00000000000E+00 0. -1.
</event>
<event>
 7    1  0.9930326E-013  0.5052884E+02  0.7816164E-02  0.1300439E+00
        -11   -1    0    0    0    0  0.00000000000E+00  0.00000000000E+00  0.45593999997E+02  0.45594000000E+02  0.51100000000E-03 0.  1.
         11   -1    0    0    0    0 -0.00000000000E+00 -0.00000000000E+00 -0.45593999997E+02  0.45594000000E+02  0.51100000000E-03 0. -1.
    9900012    2    1    2    0    0 -0.38552305681E+02 -0.28778465599E+00 -0.12915263050E+02  0.50528842200E+02  0.29999946352E+02 0.  0.
        -12    1    1    2    0    0  0.38552305681E+02  0.28778465599E+00  0.12915263050E+02  0.40659157800E+02  0.00000000000E+00 0.  1.
         11    1    3    3    0    0 -0.15693571420E+02  0.11018572674E+02  0.27689652811E+01  0.19374320548E+02  0.51100000000E-03 0.  1.
        -11    1    3    3    0    0 -0.39507594732E+01 -0.39122173967E+01 -0.10069664971E+00  0.55609428563E+01  0.51100000000E-03 0. -1.
         12    1    3    3    0    0 -0.18907974788E+02 -0.73941399338E+01 -0.15583531681E+02  0.25593578796E+02  0.00000000000E+00 0. -1.
</event>
<event>
 7    1  0.9930326E-013  0.5052885E+02  0.7816164E-02  0.1300439E+00
        -11   -1    0    0    0    0  0.00000000000E+00  0.00000000000E+00  0.45593999997E+02  0.45594000000E+02  0.51100000000E-03 0. -1.
         11   -1    0    0    0    0 -0.00000000000E+00 -0.00000000000E+00 -0.45593999997E+02  0.45594000000E+02  0.51100000000E-03 0.  1.
    9900012    2    1    2    0    0 -0.24963186712E+02  0.26448589677E+02  0.18179053330E+02  0.50528848918E+02  0.29999966771E+02 0.  0.
        -12    1    1    2    0    0  0.24963186712E+02 -0.26448589677E+02 -0.18179053330E+02  0.40659151082E+02  0.00000000000E+00 0.  1.
         11    1    3    3    0    0 -0.11993965827E+02  0.13736827417E+02  0.20071439716E+02  0.27118597609E+02  0.51100000000E-03 0. -1.
        -11    1    3    3    0    0 -0.84953428803E+01  0.58182139887E+01 -0.81084434050E+01  0.13106079482E+02  0.51100000000E-03 0.  1.
        -12    1    3    3    0    0 -0.44738780051E+01  0.68935482717E+01  0.62160570196E+01  0.10304171827E+02  0.00000000000E+00 0.  1.
</event>
<event>
 7    1  0.9930326E-013  0.5052886E+02  0.7816164E-02  0.1300439E+00
        -11   -1    0    0    0    0  0.00000000000E+00  0.00000000000E+00  0.45593999997E+02  0.45594000000E+02  0.51100000000E-03 0.  1.
         11   -1    0    0    0    0 -0.00000000000E+00 -0.00000000000E+00 -0.45593999997E+02  0.45594000000E+02  0.51100000000E-03 0. -1.
    9900012    2    1    2    0    0 -0.20759085024E+02  0.30434304315E+02 -0.17204045331E+02  0.50528859995E+02  0.30000000441E+02 0.  0.
        -12    1    1    2    0    0  0.20759085024E+02 -0.30434304315E+02  0.17204045331E+02  0.40659140005E+02  0.00000000000E+00 0.  1.
         11    1    3    3    0    0 -0.84565239848E+01  0.14376136478E+02 -0.85749296177E+01  0.18754079987E+02  0.51100000000E-03 0. -1.
        -11    1    3    3    0    0 -0.10172510928E+02 -0.99218963707E+00 -0.10300428478E+02  0.14510797564E+02  0.51100000000E-03 0.  1.
        -12    1    3    3    0    0 -0.21300501108E+01  0.17050357474E+02  0.16713127644E+01  0.17263982444E+02  0.00000000000E+00 0.  1.
</event>
<event>
 7    1  0.9930326E-013  0.5052885E+02  0.7816164E-02  0.1300439E+00
        -11   -1    0    0    0    0  0.00000000000E+00  0.00000000000E+00  0.45593999997E+02  0.45594000000E+02  0.51100000000E-03 0.  1.
         11   -1    0    0    0    0 -0.00000000000E+00 -0.00000000000E+00 -0.45593999997E+02  0.45594000000E+02  0.51100000000E-03 0. -1.
    9900012    2    1    2    0    0  0.22827517307E+02 -0.19642718818E+02 -0.27317288238E+02  0.50528853603E+02  0.29999981013E+02 0.  0.
        -12    1    1    2    0    0 -0.22827517307E+02  0.19642718818E+02  0.27317288238E+02  0.40659146397E+02  0.00000000000E+00 0.  1.
         11    1    3    3    0    0  0.80614074210E+01 -0.12184676598E+02 -0.20394955398E+02  0.25087981971E+02  0.51100000000E-03 0. -1.
        -11    1    3    3    0    0  0.10591707485E+02  0.41701198663E+01 -0.21991354941E+00  0.11385189036E+02  0.51100000000E-03 0.  1.
        -12    1    3    3    0    0  0.41744024013E+01 -0.11628162087E+02 -0.67024192908E+01  0.14055682597E+02  0.00000000000E+00 0.  1.
</event>
<event>
 7    1  0.9930326E-013  0.5052886E+02  0.7816164E-02  0.1300439E+00
        -11   -1    0    0    0    0  0.00000000000E+00  0.00000000000E+00  0.45593999997E+02  0.45594000000E+02  0.51100000000E-03 0.  1.
         11   -1    0    0    0    0 -0.00000000000E+00 -0.00000000000E+00 -0.45593999997E+02  0.45594000000E+02  0.51100000000E-03 0. -1.
    9900012    2    1    2    0    0  0.15429421171E+02  0.17237437463E+02 -0.33436054101E+02  0.50528855865E+02  0.29999987888E+02 0.  0.
        -12    1    1    2    0    0 -0.15429421171E+02 -0.17237437463E+02  0.33436054101E+02  0.40659144135E+02  0.00000000000E+00 0.  1.
         11    1    3    3    0    0  0.40786801436E+01  0.65179267364E+01 -0.23975811481E+02  0.25178533259E+02  0.51100000000E-03 0. -1.
        -11    1    3    3    0    0  0.10378610982E+01  0.23591407465E+01  0.50582624392E+01  0.56770344270E+01  0.51100000000E-03 0.  1.
        -12    1    3    3    0    0  0.10312879929E+02  0.83603699798E+01 -0.14518505059E+02  0.19673288179E+02  0.00000000000E+00 0.  1.
</event>
<event>
 7    1  0.9930326E-013  0.5052885E+02  0.7816164E-02  0.1300439E+00
        -11   -1    0    0    0    0  0.00000000000E+00  0.00000000000E+00  0.45593999997E+02  0.45594000000E+02  0.51100000000E-03 0.  1.
         11   -1    0    0    0    0 -0.00000000000E+00 -0.00000000000E+00 -0.45593999997E+02  0.45594000000E+02  0.51100000000E-03 0. -1.
    9900012    2    1    2    0    0 -0.22415684080E+02 -0.92764561207E+01 -0.32628983451E+02  0.50528854756E+02  0.29999984517E+02 0.  0.
        -12    1    1    2    0    0  0.22415684080E+02  0.92764561207E+01  0.32628983451E+02  0.40659145244E+02  0.00000000000E+00 0.  1.
         11    1    3    3    0    0 -0.12587008770E+02 -0.83562284826E+01 -0.21668116937E+02  0.26415272781E+02  0.51100000000E-03 0. -1.
        -11    1    3    3    0    0 -0.13027328230E+01  0.79017655541E+01 -0.83510535533E+01  0.11570441106E+02  0.51100000000E-03 0.  1.
        -12    1    3    3    0    0 -0.85259424869E+01 -0.88219931922E+01 -0.26098129605E+01  0.12543140869E+02  0.00000000000E+00 0.  1.
</event>
<event>
 7    1  0.9930326E-013  0.5052886E+02  0.7816164E-02  0.1300439E+00
        -11   -1    0    0    0    0  0.00000000000E+00  0.00000000000E+00  0.45593999997E+02  0.45594000000E+02  0.51100000000E-03 0.  1.
         11   -1    0    0    0    0 -0.00000000000E+00 -0.00000000000E+00 -0.45593999997E+02  0.45594000000E+02  0.51100000000E-03 0. -1.
    9900012    2    1    2    0    0 -0.24303871658E+02  0.10382663440E+02 -0.30898016998E+02  0.50528864101E+02  0.30000012921E+02 0.  0.
        -12    1    1    2    0    0  0.24303871658E+02 -0.10382663440E+02  0.30898016998E+02  0.40659135899E+02  0.00000000000E+00 0.  1.
         11    1    3    3    0    0  0.22999220873E+01  0.62830718014E+01 -0.83362794395E+01  0.10689255728E+02  0.51100000000E-03 0. -1.
        -11    1    3    3    0    0 -0.22755782089E+02  0.10026387776E+02 -0.21125249368E+02  0.32628671923E+02  0.51100000000E-03 0.  1.
        -12    1    3    3    0    0 -0.38480116563E+01 -0.59267961375E+01 -0.14364881901E+01  0.72109364498E+01  0.00000000000E+00 0.  1.
</event>
<event>
 7    1  0.9930326E-013  0.5052886E+02  0.7816164E-02  0.1300439E+00
        -11   -1    0    0    0    0  0.00000000000E+00  0.00000000000E+00  0.45593999997E+02  0.45594000000E+02  0.51100000000E-03 0.  1.
         11   -1    0    0    0    0 -0.00000000000E+00 -0.00000000000E+00 -0.45593999997E+02  0.45594000000E+02  0.51100000000E-03 0. -1.
    9900012    2    1    2    0    0  0.15470279108E+02  0.36522969692E+02 -0.89391924981E+01  0.50528855723E+02  0.29999987457E+02 0.  0.
        -12    1    1    2    0    0 -0.15470279108E+02 -0.36522969692E+02  0.89391924981E+01  0.40659144277E+02  0.00000000000E+00 0.  1.
         11    1    3    3    0    0  0.21143782981E+02  0.19355925287E+02 -0.73250415416E+01  0.29586612450E+02  0.51100000000E-03 0. -1.
        -11    1    3    3    0    0 -0.40845317906E+01  0.17709717053E+02  0.57448982333E+00  0.18183715705E+02  0.51100000000E-03 0.  1.
         12    1    3    3    0    0 -0.15889720816E+01 -0.54267264769E+00 -0.21886407799E+01  0.27585275677E+01  0.00000000000E+00 0. -1.
</event>
<event>
 7    1  0.9930326E-013  0.5052886E+02  0.7816164E-02  0.1300439E+00
        -11   -1    0    0    0    0  0.00000000000E+00  0.00000000000E+00  0.45593999997E+02  0.45594000000E+02  0.51100000000E-03 0.  1.
         11   -1    0    0    0    0 -0.00000000000E+00 -0.00000000000E+00 -0.45593999997E+02  0.45594000000E+02  0.51100000000E-03 0. -1.
    9900012    2    1    2    0    0 -0.38698381073E+02  0.10641681409E+02 -0.65081089437E+01  0.50528861262E+02  0.30000004292E+02 0.  0.
        -12    1    1    2    0    0  0.38698381073E+02 -0.10641681409E+02  0.65081089437E+01  0.40659138738E+02  0.00000000000E+00 0.  1.
         11    1    3    3    0    0 -0.18695779114E+02 -0.44219297524E+01 -0.45479409811E+01  0.19742578019E+02  0.51100000000E-03 0. -1.
        -11    1    3    3    0    0 -0.22552698273E+02  0.13346105234E+02 -0.47522040805E+01  0.26633177958E+02  0.51100000000E-03 0.  1.
        -12    1    3    3    0    0  0.25500963135E+01  0.17175059277E+01  0.27920361179E+01  0.41531052844E+01  0.00000000000E+00 0.  1.
</event>
<event>
 7    1  0.9930326E-013  0.5052886E+02  0.7816164E-02  0.1300439E+00
        -11   -1    0    0    0    0  0.00000000000E+00  0.00000000000E+00  0.45593999997E+02  0.45594000000E+02  0.51100000000E-03 0.  1.
         11   -1    0    0    0    0 -0.00000000000E+00 -0.00000000000E+00 -0.45593999997E+02  0.45594000000E+02  0.51100000000E-03 0. -1.
    9900012    2    1    2    0    0  0.11829054145E+02 -0.30624980764E+01 -0.38779638104E+02  0.50528858987E+02  0.29999997378E+02 0.  0.
        -12    1    1    2    0    0 -0.11829054145E+02  0.30624980764E+01  0.38779638104E+02  0.40659141013E+02  0.00000000000E+00 0.  1.
         11    1    3    3    0    0  0.42265999282E+01  0.39102744002E+00 -0.11740525561E+02  0.12484269707E+02  0.51100000000E-03 0. -1.
        -11    1    3    3    0    0 -0.69851195827E+01 -0.79612251042E+01 -0.16063618757E+02  0.19240916002E+02  0.51100000000E-03 0.  1.
        -12    1    3    3    0    0  0.14587573800E+02  0.45076995877E+01 -0.10975493786E+02  0.18803673279E+02  0.00000000000E+00 0.  1.
</event>
<event>
 7    1  0.9930326E-013  0.5052888E+02  0.7816164E-02  0.1300439E+00
        -11   -1    0    0    0    0  0.00000000000E+00  0.00000000000E+00  0.45593999997E+02  0.45594000000E+02  0.51100000000E-03 0.  1.
         11   -1    0    0    0    0 -0.00000000000E+00 -0.00000000000E+00 -0.45593999997E+02  0.45594000000E+02  0.51100000000E-03 0. -1.
    9900012    2    1    2    0    0 -0.24701208744E+02  0.83843998078E+01 -0.31188403630E+02  0.50528875630E+02  0.30000047964E+02 0.  0.
        -12    1    1    2    0    0  0.24701208744E+02 -0.83843998078E+01  0.31188403630E+02  0.40659124370E+02  0.00000000000E+00 0.  1.
         11    1    3    3    0    0  0.25150054852E+01 -0.71650569019E+01 -0.69771908727E+01  0.10312346277E+02  0.51100000000E-03 0. -1.
        -11    1    3    3    0    0 -0.11282538977E+02  0.26157909976E+01 -0.83031837034E+01  0.14250645886E+02  0.51100000000E-03 0.  1.
         12    1    3    3    0    0 -0.15933675252E+02  0.12933665712E+02 -0.15908029054E+02  0.25965883466E+02  0.00000000000E+00 0. -1.
</event>
<event>
 7    1  0.9930326E-013  0.5052887E+02  0.7816164E-02  0.1300439E+00
        -11   -1    0    0    0    0  0.00000000000E+00  0.00000000000E+00  0.45593999997E+02  0.45594000000E+02  0.51100000000E-03 0.  1.
         11   -1    0    0    0    0 -0.00000000000E+00 -0.00000000000E+00 -0.45593999997E+02  0.45594000000E+02  0.51100000000E-03 0. -1.
    9900012    2    1    2    0    0  0.24569478935E+02  0.83917243275E+01 -0.31290327590E+02  0.50528869008E+02  0.30000027837E+02 0.  0.
        -12    1    1    2    0    0 -0.24569478935E+02 -0.83917243275E+01  0.31290327590E+02  0.40659130992E+02  0.00000000000E+00 0.  1.
         11    1    3    3    0    0  0.27533852430E+02  0.71161320710E+01 -0.14023342350E+02  0.31708145582E+02  0.51100000000E-03 0. -1.
        -11    1    3    3    0    0 -0.31194772767E+01  0.37751173242E+01 -0.10009046158E+02  0.11142874609E+02  0.51100000000E-03 0.  1.
         12    1    3    3    0    0  0.15510378128E+00 -0.24995250676E+01 -0.72579390822E+01  0.76778488177E+01  0.00000000000E+00 0. -1.
</event>
<event>
 7    1  0.9930326E-013  0.5052886E+02  0.7816164E-02  0.1300439E+00
        -11   -1    0    0    0    0  0.00000000000E+00  0.00000000000E+00  0.45593999997E+02  0.45594000000E+02  0.51100000000E-03 0. -1.
         11   -1    0    0    0    0 -0.00000000000E+00 -0.00000000000E+00 -0.45593999997E+02  0.45594000000E+02  0.51100000000E-03 0.  1.
    9900012    2    1    2    0    0  0.34962602306E+02 -0.20741657390E+02  0.75210064020E+00  0.50528861216E+02  0.30000004152E+02 0.  0.
        -12    1    1    2    0    0 -0.34962602306E+02  0.20741657390E+02 -0.75210064020E+00  0.40659138784E+02  0.00000000000E+00 0.  1.
         11    1    3    3    0    0 -0.66004250384E+00 -0.76067825189E+01 -0.42352602754E+01  0.87313358805E+01  0.51100000000E-03 0. -1.
        -11    1    3    3    0    0  0.72800601243E+01  0.38309395277E+01 -0.78749429742E+00  0.82641103942E+01  0.51100000000E-03 0.  1.
         12    1    3    3    0    0  0.28342584686E+02 -0.16965814399E+02  0.57748552130E+01  0.33533414941E+02  0.00000000000E+00 0. -1.
</event>
<event>
 7    1  0.9930326E-013  0.5052885E+02  0.7816164E-02  0.1300439E+00
        -11   -1    0    0    0    0  0.00000000000E+00  0.00000000000E+00  0.45593999997E+02  0.45594000000E+02  0.51100000000E-03 0. -1.
         11   -1    0    0    0    0 -0.00000000000E+00 -0.00000000000E+00 -0.45593999997E+02  0.45594000000E+02  0.51100000000E-03 0.  1.
    9900012    2    1    2    0    0  0.32793822678E+02 -0.90375572787E+00  0.24019052074E+02  0.50528850442E+02  0.29999971404E+02 0.  0.
        -12    1    1    2    0    0 -0.32793822678E+02  0.90375572787E+00 -0.24019052074E+02  0.40659149558E+02  0.00000000000E+00 0.  1.
         11    1    3    3    0    0  0.72507359782E+01  0.62804514989E+01  0.14603585079E+02  0.17472319270E+02  0.51100000000E-03 0. -1.
        -11    1    3    3    0    0  0.29207460964E+01 -0.84483527070E+01  0.15492048373E+01  0.90722355079E+01  0.51100000000E-03 0.  1.
         12    1    3    3    0    0  0.22622340603E+02  0.12641454802E+01  0.78662621579E+01  0.23984295664E+02  0.00000000000E+00 0. -1.
</event>
<event>
 7    1  0.9930326E-013  0.5052886E+02  0.7816164E-02  0.1300439E+00
        -11   -1    0    0    0    0  0.00000000000E+00  0.00000000000E+00  0.45593999997E+02  0.45594000000E+02  0.51100000000E-03 0. -1.
         11   -1    0    0    0    0 -0.00000000000E+00 -0.00000000000E+00 -0.45593999997E+02  0.45594000000E+02  0.51100000000E-03 0.  1.
    9900012    2    1    2    0    0 -0.13633918827E+02  0.17504818001E+02  0.34071439651E+02  0.50528863318E+02  0.30000010541E+02 0.  0.
        -12    1    1    2    0    0  0.13633918827E+02 -0.17504818001E+02 -0.34071439651E+02  0.40659136682E+02  0.00000000000E+00 0.  1.
         11    1    3    3    0    0 -0.48673031714E+01 -0.13006021564E+01 -0.28265089898E+00  0.50459982088E+01  0.51100000000E-03 0.  1.
        -11    1    3    3    0    0 -0.13676776885E+02  0.87044730062E+01  0.28571548187E+02  0.32850501402E+02  0.51100000000E-03 0. -1.
        -12    1    3    3    0    0  0.49101612295E+01  0.10100947152E+02  0.57825423626E+01  0.12632363707E+02  0.00000000000E+00 0.  1.
</event>
<event>
 7    1  0.9930326E-013  0.5052885E+02  0.7816164E-02  0.1300439E+00
        -11   -1    0    0    0    0  0.00000000000E+00  0.00000000000E+00  0.45593999997E+02  0.45594000000E+02  0.51100000000E-03 0.  1.
         11   -1    0    0    0    0 -0.00000000000E+00 -0.00000000000E+00 -0.45593999997E+02  0.45594000000E+02  0.51100000000E-03 0. -1.
    9900012    2    1    2    0    0  0.52000838966E+00  0.39347779780E+02 -0.10229777449E+02  0.50528849382E+02  0.29999968180E+02 0.  0.
        -12    1    1    2    0    0 -0.52000838966E+00 -0.39347779780E+02  0.10229777449E+02  0.40659150618E+02  0.00000000000E+00 0.  1.
         11    1    3    3    0    0  0.12748530101E+02  0.27026974117E+02 -0.11357561716E+02  0.31968368086E+02  0.51100000000E-03 0. -1.
        -11    1    3    3    0    0 -0.11809792458E+02  0.12043727438E+02 -0.48151960802E+00  0.16874668290E+02  0.51100000000E-03 0.  1.
        -12    1    3    3    0    0 -0.41872925289E+00  0.27707822447E+00  0.16093038746E+01  0.16858130058E+01  0.00000000000E+00 0.  1.
</event>
<event>
 7    1  0.9930326E-013  0.5052885E+02  0.7816164E-02  0.1300439E+00
        -11   -1    0    0    0    0  0.00000000000E+00  0.00000000000E+00  0.45593999997E+02  0.45594000000E+02  0.51100000000E-03 0.  1.
         11   -1    0    0    0    0 -0.00000000000E+00 -0.00000000000E+00 -0.45593999997E+02  0.45594000000E+02  0.51100000000E-03 0. -1.
    9900012    2    1    2    0    0  0.33991414799E+02  0.66739024300E+01 -0.21288718361E+02  0.50528846257E+02  0.29999958681E+02 0.  0.
        -12    1    1    2    0    0 -0.33991414799E+02 -0.66739024300E+01  0.21288718361E+02  0.40659153743E+02  0.00000000000E+00 0.  1.
         11    1    3    3    0    0  0.22888165774E+02  0.76763070770E+01 -0.10306021391E+02  0.26248959980E+02  0.51100000000E-03 0. -1.
        -11    1    3    3    0    0 -0.13136469211E+01  0.18409565817E+01 -0.11313468979E+02  0.11537303410E+02  0.51100000000E-03 0.  1.
        -12    1    3    3    0    0  0.12416895946E+02 -0.28433612288E+01  0.33077200882E+00  0.12742582867E+02  0.00000000000E+00 0.  1.
</event>
<event>
 7    1  0.9930326E-013  0.5052886E+02  0.7816164E-02  0.1300439E+00
        -11   -1    0    0    0    0  0.00000000000E+00  0.00000000000E+00  0.45593999997E+02  0.45594000000E+02  0.51100000000E-03 0.  1.
         11   -1    0    0    0    0 -0.00000000000E+00 -0.00000000000E+00 -0.45593999997E+02  0.45594000000E+02  0.51100000000E-03 0. -1.
    9900012    2    1    2    0    0  0.14214671615E+01  0.35679710735E+02 -0.19444870072E+02  0.50528864505E+02  0.30000014151E+02 0.  0.
        -12    1    1    2    0    0 -0.14214671615E+01 -0.35679710735E+02  0.19444870072E+02  0.40659135495E+02  0.00000000000E+00 0.  1.
         11    1    3    3    0    0  0.65221417994E+00 -0.22855869015E+00  0.32644234582E+01  0.33367773655E+01  0.51100000000E-03 0.  1.
        -11    1    3    3    0    0 -0.31150982632E+01  0.27149916566E+02 -0.25327252559E+02  0.37259784342E+02  0.51100000000E-03 0. -1.
         12    1    3    3    0    0  0.38843512448E+01  0.87583528592E+01  0.26179590286E+01  0.99323027982E+01  0.00000000000E+00 0. -1.
</event>
<event>
 7    1  0.9930326E-013  0.5052886E+02  0.7816164E-02  0.1300439E+00
        -11   -1    0    0    0    0  0.00000000000E+00  0.00000000000E+00  0.45593999997E+02  0.45594000000E+02  0.51100000000E-03 0.  1.
         11   -1    0    0    0    0 -0.00000000000E+00 -0.00000000000E+00 -0.45593999997E+02  0.45594000000E+02  0.51100000000E-03 0. -1.
    9900012    2    1    2    0    0 -0.40918875606E+01  0.22100553000E+02 -0.33881972768E+02  0.50528855083E+02  0.29999985511E+02 0.  0.
        -12    1    1    2    0    0  0.40918875606E+01 -0.22100553000E+02  0.33881972768E+02  0.40659144917E+02  0.00000000000E+00 0.  1.
         11    1    3    3    0    0 -0.11623887813E+02  0.21126577846E+02 -0.27529932949E+02  0.36597052720E+02  0.51100000000E-03 0. -1.
        -11    1    3    3    0    0 -0.17461884652E+01 -0.53220651807E+00  0.92311872716E+00  0.20456212698E+01  0.51100000000E-03 0.  1.
         12    1    3    3    0    0  0.92781887174E+01  0.15061816718E+01 -0.72751585468E+01  0.11886181093E+02  0.00000000000E+00 0. -1.
</event>
<event>
 7    1  0.9930326E-013  0.5052885E+02  0.7816164E-02  0.1300439E+00
        -11   -1    0    0    0    0  0.00000000000E+00  0.00000000000E+00  0.45593999997E+02  0.45594000000E+02  0.51100000000E-03 0.  1.
         11   -1    0    0    0    0 -0.00000000000E+00 -0.00000000000E+00 -0.45593999997E+02  0.45594000000E+02  0.51100000000E-03 0. -1.
    9900012    2    1    2    0    0 -0.30248387521E+02  0.34994263941E+01 -0.26943557842E+02  0.50528852913E+02  0.29999978913E+02 0.  0.
        -12    1    1    2    0    0  0.30248387521E+02 -0.34994263941E+01  0.26943557842E+02  0.40659147087E+02  0.00000000000E+00 0.  1.
         11    1    3    3    0    0 -0.79877342228E+01  0.60139632270E+01 -0.13972222247E+02  0.17181229482E+02  0.51100000000E-03 0. -1.
        -11    1    3    3    0    0 -0.79547400602E+01  0.54551213759E+01  0.33657893594E+01  0.10215908032E+02  0.51100000000E-03 0.  1.
        -12    1    3    3    0    0 -0.14305913237E+02 -0.79696582088E+01 -0.16337124954E+02  0.23131715399E+02  0.00000000000E+00 0.  1.
</event>
<event>
 7    1  0.9930326E-013  0.5052886E+02  0.7816164E-02  0.1300439E+00
        -11   -1    0    0    0    0  0.00000000000E+00  0.00000000000E+00  0.45593999997E+02  0.45594000000E+02  0.51100000000E-03 0.  1.
         11   -1    0    0    0    0 -0.00000000000E+00 -0.00000000000E+00 -0.45593999997E+02  0.45594000000E+02  0.51100000000E-03 0. -1.
    9900012    2    1    2    0    0  0.35009621103E+02  0.31475156275E+01 -0.20434911863E+02  0.50528855306E+02  0.29999986187E+02 0.  0.
        -12    1    1    2    0    0 -0.35009621103E+02 -0.31475156275E+01  0.20434911863E+02  0.40659144694E+02  0.00000000000E+00 0.  1.
         11    1    3    3    0    0  0.14910802435E+02  0.14872319533E+02 -0.12968239900E+02  0.24732431419E+02  0.51100000000E-03 0. -1.
        -11    1    3    3    0    0  0.13342256914E+01 -0.40802018000E+01 -0.23684928596E+01  0.49028525994E+01  0.51100000000E-03 0.  1.
         12    1    3    3    0    0  0.18764592977E+02 -0.76446021056E+01 -0.50981791034E+01  0.20893571287E+02  0.00000000000E+00 0. -1.
</event>
<event>
 7    1  0.9930326E-013  0.5052886E+02  0.7816164E-02  0.1300439E+00
        -11   -1    0    0    0    0  0.00000000000E+00  0.00000000000E+00  0.45593999997E+02  0.45594000000E+02  0.51100000000E-03 0.  1.
         11   -1    0    0    0    0 -0.00000000000E+00 -0.00000000000E+00 -0.45593999997E+02  0.45594000000E+02  0.51100000000E-03 0. -1.
    9900012    2    1    2    0    0 -0.20872291804E+02  0.22696488524E+00 -0.34892143252E+02  0.50528859097E+02  0.29999997713E+02 0.  0.
        -12    1    1    2    0    0  0.20872291804E+02 -0.22696488524E+00  0.34892143252E+02  0.40659140903E+02  0.00000000000E+00 0.  1.
         11    1    3    3    0    0  0.24840090130E+01  0.53659770535E+01 -0.16365919147E+02  0.17401359725E+02  0.51100000000E-03 0. -1.
        -11    1    3    3    0    0 -0.21273293264E+02 -0.39089373124E+01 -0.92209978546E+01  0.23512966612E+02  0.51100000000E-03 0.  1.
        -12    1    3    3    0    0 -0.20830075534E+01 -0.12300748559E+01 -0.93052262506E+01  0.96145327600E+01  0.00000000000E+00 0.  1.
</event>
<event>
 7    1  0.9930326E-013  0.5052886E+02  0.7816164E-02  0.1300439E+00
        -11   -1    0    0    0    0  0.00000000000E+00  0.00000000000E+00  0.45593999997E+02  0.45594000000E+02  0.51100000000E-03 0.  1.
         11   -1    0    0    0    0 -0.00000000000E+00 -0.00000000000E+00 -0.45593999997E+02  0.45594000000E+02  0.51100000000E-03 0. -1.
    9900012    2    1    2    0    0 -0.11657350892E+00  0.86966343114E+01 -0.39718013225E+02  0.50528860655E+02  0.30000002446E+02 0.  0.
        -12    1    1    2    0    0  0.11657350892E+00 -0.86966343114E+01  0.39718013225E+02  0.40659139345E+02  0.00000000000E+00 0.  1.
         11    1    3    3    0    0 -0.34920447055E+01 -0.23998544009E+01  0.15239803598E+01  0.45029094782E+01  0.51100000000E-03 0.  1.
        -11    1    3    3    0    0  0.10155633678E+02  0.56400147686E+01 -0.21155763597E+02  0.24135305998E+02  0.51100000000E-03 0. -1.
         12    1    3    3    0    0 -0.67801624815E+01  0.54564739436E+01 -0.20086229988E+02  0.21890645178E+02  0.00000000000E+00 0. -1.
</event>
<event>
 7    1  0.9930326E-013  0.5052887E+02  0.7816164E-02  0.1300439E+00
        -11   -1    0    0    0    0  0.00000000000E+00  0.00000000000E+00  0.45593999997E+02  0.45594000000E+02  0.51100000000E-03 0.  1.
         11   -1    0    0    0    0 -0.00000000000E+00 -0.00000000000E+00 -0.45593999997E+02  0.45594000000E+02  0.51100000000E-03 0. -1.
    9900012    2    1    2    0    0 -0.33954511533E+02  0.47041438359E+01 -0.21866122729E+02  0.50528866390E+02  0.30000019879E+02 0.  0.
        -12    1    1    2    0    0  0.33954511533E+02 -0.47041438359E+01  0.21866122729E+02  0.40659133610E+02  0.00000000000E+00 0.  1.
         11    1    3    3    0    0 -0.23166890047E+02 -0.30749528460E+01 -0.10840312938E+02  0.25761842215E+02  0.51100000000E-03 0. -1.
        -11    1    3    3    0    0  0.43850453024E+01  0.45878095129E+01 -0.51975762239E+01  0.82031346018E+01  0.51100000000E-03 0.  1.
        -12    1    3    3    0    0 -0.15172666789E+02  0.31912871690E+01 -0.58282335667E+01  0.16563889574E+02  0.00000000000E+00 0.  1.
</event>
<event>
 7    1  0.9930326E-013  0.5052886E+02  0.7816164E-02  0.1300439E+00
        -11   -1    0    0    0    0  0.00000000000E+00  0.00000000000E+00  0.45593999997E+02  0.45594000000E+02  0.51100000000E-03 0.  1.
         11   -1    0    0    0    0 -0.00000000000E+00 -0.00000000000E+00 -0.45593999997E+02  0.45594000000E+02  0.51100000000E-03 0. -1.
    9900012    2    1    2    0    0 -0.18547370164E+01  0.30835129089E+02 -0.26437109120E+02  0.50528856207E+02  0.29999988926E+02 0.  0.
        -12    1    1    2    0    0  0.18547370164E+01 -0.30835129089E+02  0.26437109120E+02  0.40659143793E+02  0.00000000000E+00 0.  1.
         11    1    3    3    0    0 -0.59584125561E+01  0.28256457341E+01 -0.12600212353E+02  0.14221543714E+02  0.51100000000E-03 0. -1.
        -11    1    3    3    0    0 -0.34775524878E+01  0.20260051777E+02 -0.26452152574E+01  0.20725834925E+02  0.51100000000E-03 0.  1.
        -12    1    3    3    0    0  0.75812280275E+01  0.77494315784E+01 -0.11191681510E+02  0.15581477569E+02  0.00000000000E+00 0.  1.
</event>
<event>
 7    1  0.9930326E-013  0.5052886E+02  0.7816164E-02  0.1300439E+00
        -11   -1    0    0    0    0  0.00000000000E+00  0.00000000000E+00  0.45593999997E+02  0.45594000000E+02  0.51100000000E-03 0.  1.
         11   -1    0    0    0    0 -0.00000000000E+00 -0.00000000000E+00 -0.45593999997E+02  0.45594000000E+02  0.51100000000E-03 0. -1.
    9900012    2    1    2    0    0  0.20692938038E+02 -0.30038602969E+02 -0.17962472298E+02  0.50528858788E+02  0.29999996773E+02 0.  0.
        -12    1    1    2    0    0 -0.20692938038E+02  0.30038602969E+02  0.17962472298E+02  0.40659141212E+02  0.00000000000E+00 0.  1.
         11    1    3    3    0    0  0.12931177778E+01 -0.43770379370E+01  0.63462923979E+01  0.78170353811E+01  0.51100000000E-03 0. -1.
        -11    1    3    3    0    0  0.15894730969E+02 -0.11940234849E+02 -0.88927541665E+01  0.21778263424E+02  0.51100000000E-03 0.  1.
         12    1    3    3    0    0  0.35050892913E+01 -0.13721330183E+02 -0.15416010530E+02  0.20933559984E+02  0.00000000000E+00 0. -1.
</event>
<event>
 7    1  0.9930326E-013  0.5052885E+02  0.7816164E-02  0.1300439E+00
        -11   -1    0    0    0    0  0.00000000000E+00  0.00000000000E+00  0.45593999997E+02  0.45594000000E+02  0.51100000000E-03 0.  1.
         11   -1    0    0    0    0 -0.00000000000E+00 -0.00000000000E+00 -0.45593999997E+02  0.45594000000E+02  0.51100000000E-03 0. -1.
    9900012    2    1    2    0    0  0.39720972946E+02  0.84532234419E+01  0.19885006130E+01  0.50528845889E+02  0.29999957564E+02 0.  0.
        -12    1    1    2    0    0 -0.39720972946E+02 -0.84532234419E+01 -0.19885006130E+01  0.40659154111E+02  0.00000000000E+00 0.  1.
         11    1    3    3    0    0  0.10543466334E+02  0.13409665213E+02 -0.47495957294E+01  0.17707130296E+02  0.51100000000E-03 0. -1.
        -11    1    3    3    0    0  0.16196246412E+02 -0.32125513414E+01  0.10026176000E+02  0.19317429679E+02  0.51100000000E-03 0.  1.
        -12    1    3    3    0    0  0.12981260200E+02 -0.17438904295E+01 -0.32880796579E+01  0.13504285914E+02  0.00000000000E+00 0.  1.
</event>
<event>
 7    1  0.9930326E-013  0.5052886E+02  0.7816164E-02  0.1300439E+00
        -11   -1    0    0    0    0  0.00000000000E+00  0.00000000000E+00  0.45593999997E+02  0.45594000000E+02  0.51100000000E-03 0. -1.
         11   -1    0    0    0    0 -0.00000000000E+00 -0.00000000000E+00 -0.45593999997E+02  0.45594000000E+02  0.51100000000E-03 0.  1.
    9900012    2    1    2    0    0 -0.36591856236E+02 -0.14139976335E+02  0.10689376108E+02  0.50528860374E+02  0.30000001593E+02 0.  0.
        -12    1    1    2    0    0  0.36591856236E+02  0.14139976335E+02 -0.10689376108E+02  0.40659139626E+02  0.00000000000E+00 0.  1.
         11    1    3    3    0    0 -0.34174279011E+01 -0.68184750761E-01  0.14717336040E+01  0.37214866225E+01  0.51100000000E-03 0. -1.
        -11    1    3    3    0    0 -0.49947008361E+01  0.80795741217E+01 -0.95854548826E+00  0.95470081253E+01  0.51100000000E-03 0.  1.
        -12    1    3    3    0    0 -0.28179727499E+02 -0.22151365706E+02  0.10176187992E+02  0.37260365626E+02  0.00000000000E+00 0.  1.
</event>
<event>
 7    1  0.9930326E-013  0.5052886E+02  0.7816164E-02  0.1300439E+00
        -11   -1    0    0    0    0  0.00000000000E+00  0.00000000000E+00  0.45593999997E+02  0.45594000000E+02  0.51100000000E-03 0.  1.
         11   -1    0    0    0    0 -0.00000000000E+00 -0.00000000000E+00 -0.45593999997E+02  0.45594000000E+02  0.51100000000E-03 0. -1.
    9900012    2    1    2    0    0 -0.25093465066E+01  0.10587401006E+02 -0.39176218050E+02  0.50528856617E+02  0.29999990174E+02 0.  0.
        -12    1    1    2    0    0  0.25093465066E+01 -0.10587401006E+02  0.39176218050E+02  0.40659143383E+02  0.00000000000E+00 0.  1.
         11    1    3    3    0    0 -0.69280247320E+01 -0.31991108965E+01 -0.60243920045E+01  0.97224038437E+01  0.51100000000E-03 0. -1.
        -11    1    3    3    0    0 -0.14538653051E+00  0.15369277403E+02 -0.13144134943E+02  0.20223850000E+02  0.51100000000E-03 0.  1.
        -12    1    3    3    0    0  0.45640647559E+01 -0.15827655009E+01 -0.20007691102E+02  0.20582602774E+02  0.00000000000E+00 0.  1.
</event>
<event>
 7    1  0.9930326E-013  0.5052886E+02  0.7816164E-02  0.1300439E+00
        -11   -1    0    0    0    0  0.00000000000E+00  0.00000000000E+00  0.45593999997E+02  0.45594000000E+02  0.51100000000E-03 0.  1.
         11   -1    0    0    0    0 -0.00000000000E+00 -0.00000000000E+00 -0.45593999997E+02  0.45594000000E+02  0.51100000000E-03 0. -1.
    9900012    2    1    2    0    0 -0.62760099557E+01 -0.23054082764E+02 -0.32898125872E+02  0.50528859343E+02  0.29999998460E+02 0.  0.
        -12    1    1    2    0    0  0.62760099557E+01  0.23054082764E+02  0.32898125872E+02  0.40659140657E+02  0.00000000000E+00 0.  1.
         11    1    3    3    0    0  0.84112922790E+01 -0.23730779976E+01 -0.16967577969E+02  0.19086121643E+02  0.51100000000E-03 0. -1.
        -11    1    3    3    0    0 -0.11367366120E+01  0.10020709378E+01 -0.59877431629E+00  0.16293701950E+01  0.51100000000E-03 0.  1.
         12    1    3    3    0    0 -0.13550565623E+02 -0.21683075704E+02 -0.15331773587E+02  0.29813367505E+02  0.00000000000E+00 0. -1.
</event>
<event>
 7    1  0.9930326E-013  0.5052886E+02  0.7816164E-02  0.1300439E+00
        -11   -1    0    0    0    0  0.00000000000E+00  0.00000000000E+00  0.45593999997E+02  0.45594000000E+02  0.51100000000E-03 0.  1.
         11   -1    0    0    0    0 -0.00000000000E+00 -0.00000000000E+00 -0.45593999997E+02  0.45594000000E+02  0.51100000000E-03 0. -1.
    9900012    2    1    2    0    0  0.22382158334E+02  0.96361444044E+01 -0.32547647163E+02  0.50528860480E+02  0.30000001916E+02 0.  0.
        -12    1    1    2    0    0 -0.22382158334E+02 -0.96361444044E+01  0.32547647163E+02  0.40659139520E+02  0.00000000000E+00 0.  1.
         11    1    3    3    0    0  0.18852382450E+02  0.14468219843E+02 -0.31746723887E+02  0.39655972908E+02  0.51100000000E-03 0. -1.
        -11    1    3    3    0    0  0.54517043047E+00 -0.52886805777E+01 -0.38635059397E+01  0.65722166320E+01  0.51100000000E-03 0.  1.
        -12    1    3    3    0    0  0.29846054531E+01  0.45660513875E+00  0.30625826639E+01  0.43006709403E+01  0.00000000000E+00 0.  1.
</event>
<event>
 7    1  0.9930326E-013  0.5052886E+02  0.7816164E-02  0.1300439E+00
        -11   -1    0    0    0    0  0.00000000000E+00  0.00000000000E+00  0.45593999997E+02  0.45594000000E+02  0.51100000000E-03 0.  1.
         11   -1    0    0    0    0 -0.00000000000E+00 -0.00000000000E+00 -0.45593999997E+02  0.45594000000E+02  0.51100000000E-03 0. -1.
    9900012    2    1    2    0    0  0.35233559051E+02  0.20281113948E+02  0.66205150447E+00  0.50528861070E+02  0.30000003707E+02 0.  0.
        -12    1    1    2    0    0 -0.35233559051E+02 -0.20281113948E+02 -0.66205150447E+00  0.40659138930E+02  0.00000000000E+00 0.  1.
         11    1    3    3    0    0  0.11529416279E+02  0.17496797268E+02 -0.10257587336E+02  0.23329883253E+02  0.51100000000E-03 0. -1.
        -11    1    3    3    0    0  0.18165277433E+02  0.16869489541E+01  0.11431816360E+02  0.21529271389E+02  0.51100000000E-03 0.  1.
         12    1    3    3    0    0  0.55388653386E+01  0.10973677257E+01 -0.51217751958E+00  0.56697064277E+01  0.00000000000E+00 0. -1.
</event>
<event>
 7    1  0.9930326E-013  0.5052886E+02  0.7816164E-02  0.1300439E+00
        -11   -1    0    0    0    0  0.00000000000E+00  0.00000000000E+00  0.45593999997E+02  0.45594000000E+02  0.51100000000E-03 0. -1.
         11   -1    0    0    0    0 -0.00000000000E+00 -0.00000000000E+00 -0.45593999997E+02  0.45594000000E+02  0.51100000000E-03 0.  1.
    9900012    2    1    2    0    0  0.24138776505E+02 -0.12312027336E+02  0.30313354533E+02  0.50528855748E+02  0.29999987532E+02 0.  0.
        -12    1    1    2    0    0 -0.24138776505E+02  0.12312027336E+02 -0.30313354533E+02  0.40659144252E+02  0.00000000000E+00 0.  1.
         11    1    3    3    0    0  0.26782589390E+02 -0.11834592279E+02  0.27768427140E+02  0.40354060699E+02  0.51100000000E-03 0. -1.
        -11    1    3    3    0    0 -0.42902173011E+00  0.39215882444E+01  0.33609302577E+01  0.51825444003E+01  0.51100000000E-03 0.  1.
         12    1    3    3    0    0 -0.22147911552E+01 -0.43990233008E+01 -0.81600286467E+00  0.49922506485E+01  0.00000000000E+00 0. -1.
</event>
<event>
 7    1  0.9930326E-013  0.5052886E+02  0.7816164E-02  0.1300439E+00
        -11   -1    0    0    0    0  0.00000000000E+00  0.00000000000E+00  0.45593999997E+02  0.45594000000E+02  0.51100000000E-03 0.  1.
         11   -1    0    0    0    0 -0.00000000000E+00 -0.00000000000E+00 -0.45593999997E+02  0.45594000000E+02  0.51100000000E-03 0. -1.
    9900012    2    1    2    0    0 -0.10050986606E+02 -0.11587611148E+02 -0.37654625665E+02  0.50528857143E+02  0.29999991772E+02 0.  0.
        -12    1    1    2    0    0  0.10050986606E+02  0.11587611148E+02  0.37654625665E+02  0.40659142857E+02  0.00000000000E+00 0.  1.
         11    1    3    3    0    0  0.59884394697E+01  0.54908041115E+01 -0.10329231618E+02  0.13141665159E+02  0.51100000000E-03 0.  1.
        -11    1    3    3    0    0 -0.67251279645E+01 -0.47912330442E+01 -0.16797128629E+02  0.18717018744E+02  0.51100000000E-03 0. -1.
         12    1    3    3    0    0 -0.93142981110E+01 -0.12287182215E+02 -0.10528265419E+02  0.18670173240E+02  0.00000000000E+00 0. -1.
</event>
<event>
 7    1  0.9930326E-013  0.5052886E+02  0.7816164E-02  0.1300439E+00
        -11   -1    0    0    0    0  0.00000000000E+00  0.00000000000E+00  0.45593999997E+02  0.45594000000E+02  0.51100000000E-03 0.  1.
         11   -1    0    0    0    0 -0.00000000000E+00 -0.00000000000E+00 -0.45593999997E+02  0.45594000000E+02  0.51100000000E-03 0. -1.
    9900012    2    1    2    0    0 -0.78978899817E+00 -0.22867740058E+02 -0.33609645139E+02  0.50528861441E+02  0.30000004835E+02 0.  0.
        -12    1    1    2    0    0  0.78978899817E+00  0.22867740058E+02  0.33609645139E+02  0.40659138559E+02  0.00000000000E+00 0.  1.
         11    1    3    3    0    0  0.11118125708E+02 -0.11283374279E+02 -0.25220425623E+02  0.29782496928E+02  0.51100000000E-03 0. -1.
        -11    1    3    3    0    0 -0.72056108841E+01 -0.46626434519E+01 -0.88984329098E+01  0.12362976206E+02  0.51100000000E-03 0.  1.
         12    1    3    3    0    0 -0.47023038225E+01 -0.69217223272E+01  0.50921339380E+00  0.83833883063E+01  0.00000000000E+00 0. -1.
</event>
<event>
 7    1  0.9930326E-013  0.5052886E+02  0.7816164E-02  0.1300439E+00
        -11   -1    0    0    0    0  0.00000000000E+00  0.00000000000E+00  0.45593999997E+02  0.45594000000E+02  0.51100000000E-03 0.  1.
         11   -1    0    0    0    0 -0.00000000000E+00 -0.00000000000E+00 -0.45593999997E+02  0.45594000000E+02  0.51100000000E-03 0. -1.
    9900012    2    1    2    0    0 -0.23853571747E+02  0.30309411777E+02 -0.12865171080E+02  0.50528856449E+02  0.29999989663E+02 0.  0.
        -12    1    1    2    0    0  0.23853571747E+02 -0.30309411777E+02  0.12865171080E+02  0.40659143551E+02  0.00000000000E+00 0.  1.
         11    1    3    3    0    0 -0.34346135211E+00  0.19756241907E+02  0.20729865205E+01  0.19867670557E+02  0.51100000000E-03 0. -1.
        -11    1    3    3    0    0 -0.81580036762E+01  0.93938561981E+00 -0.21520729087E+01  0.84892218365E+01  0.51100000000E-03 0.  1.
         12    1    3    3    0    0 -0.15352106719E+02  0.96137842499E+01 -0.12786084692E+02  0.22171964055E+02  0.00000000000E+00 0. -1.
</event>
<event>
 7    1  0.9930326E-013  0.5052885E+02  0.7816164E-02  0.1300439E+00
        -11   -1    0    0    0    0  0.00000000000E+00  0.00000000000E+00  0.45593999997E+02  0.45594000000E+02  0.51100000000E-03 0.  1.
         11   -1    0    0    0    0 -0.00000000000E+00 -0.00000000000E+00 -0.45593999997E+02  0.45594000000E+02  0.51100000000E-03 0. -1.
    9900012    2    1    2    0    0  0.16012416149E+02  0.10768171491E+02 -0.35788479005E+02  0.50528853210E+02  0.29999979817E+02 0.  0.
        -12    1    1    2    0    0 -0.16012416149E+02 -0.10768171491E+02  0.35788479005E+02  0.40659146790E+02  0.00000000000E+00 0.  1.
         11    1    3    3    0    0 -0.40378400496E+01  0.10169903539E+02 -0.18132657450E+02  0.21178393629E+02  0.51100000000E-03 0. -1.
        -11    1    3    3    0    0  0.88840378242E+01 -0.40289967451E+01 -0.13318429012E+02  0.16508770228E+02  0.51100000000E-03 0.  1.
         12    1    3    3    0    0  0.11166218375E+02  0.46272646969E+01 -0.43373925434E+01  0.12841689353E+02  0.00000000000E+00 0. -1.
</event>
<event>
 7    1  0.9930326E-013  0.5052887E+02  0.7816164E-02  0.1300439E+00
        -11   -1    0    0    0    0  0.00000000000E+00  0.00000000000E+00  0.45593999997E+02  0.45594000000E+02  0.51100000000E-03 0.  1.
         11   -1    0    0    0    0 -0.00000000000E+00 -0.00000000000E+00 -0.45593999997E+02  0.45594000000E+02  0.51100000000E-03 0. -1.
    9900012    2    1    2    0    0 -0.16785348102E+02  0.90238908920E+01 -0.35916379768E+02  0.50528869988E+02  0.30000030815E+02 0.  0.
        -12    1    1    2    0    0  0.16785348102E+02 -0.90238908920E+01  0.35916379768E+02  0.40659130012E+02  0.00000000000E+00 0.  1.
         11    1    3    3    0    0 -0.15188672516E+02  0.18107916788E+01 -0.11163327573E+02  0.18936594786E+02  0.51100000000E-03 0. -1.
        -11    1    3    3    0    0 -0.30184269753E+01  0.12047593627E+02 -0.23206564779E+02  0.26321095393E+02  0.51100000000E-03 0.  1.
        -12    1    3    3    0    0  0.14217513898E+01 -0.48344944135E+01 -0.15464874153E+01  0.52711798085E+01  0.00000000000E+00 0.  1.
</event>
<event>
 7    1  0.9930326E-013  0.5052885E+02  0.7816164E-02  0.1300439E+00
        -11   -1    0    0    0    0  0.00000000000E+00  0.00000000000E+00  0.45593999997E+02  0.45594000000E+02  0.51100000000E-03 0.  1.
         11   -1    0    0    0    0 -0.00000000000E+00 -0.00000000000E+00 -0.45593999997E+02  0.45594000000E+02  0.51100000000E-03 0. -1.
    9900012    2    1    2    0    0 -0.30531485947E+02  0.18316137967E+02 -0.19634502484E+02  0.50528853035E+02  0.29999979285E+02 0.  0.
        -12    1    1    2    0    0  0.30531485947E+02 -0.18316137967E+02  0.19634502484E+02  0.40659146965E+02  0.00000000000E+00 0.  1.
         11    1    3    3    0    0 -0.17506898874E+02  0.14524186787E+01 -0.96229029262E+01  0.20030009715E+02  0.51100000000E-03 0. -1.
        -11    1    3    3    0    0  0.17538325041E+01  0.23572624511E+01  0.43846165621E+01  0.52780183188E+01  0.51100000000E-03 0.  1.
        -12    1    3    3    0    0 -0.14778419577E+02  0.14506456837E+02 -0.14396216119E+02  0.25220825001E+02  0.00000000000E+00 0.  1.
</event>
<event>
 7    1  0.1121793E-012  0.5052885E+02  0.7816164E-02  0.1300439E+00
        -11   -1    0    0    0    0  0.00000000000E+00  0.00000000000E+00  0.45593999997E+02  0.45594000000E+02  0.51100000000E-03 0. -1.
         11   -1    0    0    0    0 -0.00000000000E+00 -0.00000000000E+00 -0.45593999997E+02  0.45594000000E+02  0.51100000000E-03 0.  1.
    9900012    2    1    2    0    0 -0.31525676948E+02 -0.25658572984E+02  0.96723061395E+00  0.50528853309E+02  0.29999980118E+02 0.  0.
        -12    1    1    2    0    0  0.31525676948E+02  0.25658572984E+02 -0.96723061395E+00  0.40659146691E+02  0.00000000000E+00 0.  1.
         11    1    3    3    0    0 -0.23402651203E+02 -0.75088215164E+01  0.15589997319E+01  0.24627159080E+02  0.51100000000E-03 0. -1.
        -11    1    3    3    0    0  0.38500279024E+01 -0.34248850870E+00 -0.20848487379E+01  0.43916520523E+01  0.51100000000E-03 0.  1.
         12    1    3    3    0    0 -0.11973053647E+02 -0.17807262959E+02  0.14930796200E+01  0.21510042177E+02  0.00000000000E+00 0. -1.
</event>
<event>
 7    1  0.9930326E-013  0.5052889E+02  0.7816164E-02  0.1300439E+00
        -11   -1    0    0    0    0  0.00000000000E+00  0.00000000000E+00  0.45593999997E+02  0.45594000000E+02  0.51100000000E-03 0.  1.
         11   -1    0    0    0    0 -0.00000000000E+00 -0.00000000000E+00 -0.45593999997E+02  0.45594000000E+02  0.51100000000E-03 0. -1.
    9900012    2    1    2    0    0  0.28426578310E+02  0.29069683456E+02  0.21528673580E+00  0.50528890332E+02  0.30000092652E+02 0.  0.
        -12    1    1    2    0    0 -0.28426578310E+02 -0.29069683456E+02 -0.21528673580E+00  0.40659109668E+02  0.00000000000E+00 0.  1.
         11    1    3    3    0    0  0.88815325398E+01  0.21732790761E+02 -0.71277875886E+01  0.24535712150E+02  0.51100000000E-03 0. -1.
        -11    1    3    3    0    0  0.58704727823E+01 -0.35500831826E+01  0.46984525542E+01  0.83151066113E+01  0.51100000000E-03 0.  1.
         12    1    3    3    0    0  0.13674572988E+02  0.10886975878E+02  0.26446217702E+01  0.17678071571E+02  0.00000000000E+00 0. -1.
</event>
<event>
 7    1  0.9930326E-013  0.5052888E+02  0.7816164E-02  0.1300439E+00
        -11   -1    0    0    0    0  0.00000000000E+00  0.00000000000E+00  0.45593999997E+02  0.45594000000E+02  0.51100000000E-03 0. -1.
         11   -1    0    0    0    0 -0.00000000000E+00 -0.00000000000E+00 -0.45593999997E+02  0.45594000000E+02  0.51100000000E-03 0.  1.
    9900012    2    1    2    0    0 -0.58462893138E+01 -0.28067130958E+02  0.28830898758E+02  0.50528884636E+02  0.30000075341E+02 0.  0.
        -12    1    1    2    0    0  0.58462893138E+01  0.28067130958E+02 -0.28830898758E+02  0.40659115364E+02  0.00000000000E+00 0.  1.
         11    1    3    3    0    0 -0.30131161988E+01 -0.15778267090E+02 -0.28813877136E+01  0.16319772578E+02  0.51100000000E-03 0.  1.
        -11    1    3    3    0    0 -0.28594035334E+01 -0.81094296091E+01  0.22728432668E+02  0.24300631452E+02  0.51100000000E-03 0. -1.
        -12    1    3    3    0    0  0.26230418397E-01 -0.41794342592E+01  0.89838538033E+01  0.99084806060E+01  0.00000000000E+00 0.  1.
</event>
<event>
 7    1  0.9930326E-013  0.5052886E+02  0.7816164E-02  0.1300439E+00
        -11   -1    0    0    0    0  0.00000000000E+00  0.00000000000E+00  0.45593999997E+02  0.45594000000E+02  0.51100000000E-03 0.  1.
         11   -1    0    0    0    0 -0.00000000000E+00 -0.00000000000E+00 -0.45593999997E+02  0.45594000000E+02  0.51100000000E-03 0. -1.
    9900012    2    1    2    0    0 -0.25990118516E+02 -0.17418130469E+02 -0.25967065005E+02  0.50528855955E+02  0.29999988161E+02 0.  0.
        -12    1    1    2    0    0  0.25990118516E+02  0.17418130469E+02  0.25967065005E+02  0.40659144045E+02  0.00000000000E+00 0.  1.
         11    1    3    3    0    0 -0.17133899017E+02 -0.93749239510E+01 -0.29989914645E+02  0.35789030097E+02  0.51100000000E-03 0. -1.
        -11    1    3    3    0    0  0.10480803518E+01 -0.27616051544E+01  0.93614038053E+00  0.30985955731E+01  0.51100000000E-03 0.  1.
         12    1    3    3    0    0 -0.99042998506E+01 -0.52816013639E+01  0.30867092596E+01  0.11641230285E+02  0.00000000000E+00 0. -1.
</event>
<event>
 7    1  0.9930326E-013  0.5052886E+02  0.7816164E-02  0.1300439E+00
        -11   -1    0    0    0    0  0.00000000000E+00  0.00000000000E+00  0.45593999997E+02  0.45594000000E+02  0.51100000000E-03 0. -1.
         11   -1    0    0    0    0 -0.00000000000E+00 -0.00000000000E+00 -0.45593999997E+02  0.45594000000E+02  0.51100000000E-03 0.  1.
    9900012    2    1    2    0    0  0.27153527123E+02 -0.27884796861E+02 -0.11759674650E+02  0.50528857374E+02  0.29999992474E+02 0.  0.
        -12    1    1    2    0    0 -0.27153527123E+02  0.27884796861E+02  0.11759674650E+02  0.40659142626E+02  0.00000000000E+00 0.  1.
         11    1    3    3    0    0  0.20646603460E+02 -0.41316264466E+01 -0.32684695375E+01  0.21308107961E+02  0.51100000000E-03 0. -1.
        -11    1    3    3    0    0 -0.18433677777E+01 -0.80545443995E+01 -0.78968651920E+01  0.11429530628E+02  0.51100000000E-03 0.  1.
         12    1    3    3    0    0  0.83502914408E+01 -0.15698626015E+02 -0.59433992019E+00  0.17791218785E+02  0.00000000000E+00 0. -1.
</event>
<event>
 7    1  0.9930326E-013  0.5052888E+02  0.7816164E-02  0.1300439E+00
        -11   -1    0    0    0    0  0.00000000000E+00  0.00000000000E+00  0.45593999997E+02  0.45594000000E+02  0.51100000000E-03 0.  1.
         11   -1    0    0    0    0 -0.00000000000E+00 -0.00000000000E+00 -0.45593999997E+02  0.45594000000E+02  0.51100000000E-03 0. -1.
    9900012    2    1    2    0    0  0.18834251103E+02  0.10732838456E+02 -0.34398271606E+02  0.50528881399E+02  0.30000065500E+02 0.  0.
        -12    1    1    2    0    0 -0.18834251103E+02 -0.10732838456E+02  0.34398271606E+02  0.40659118601E+02  0.00000000000E+00 0.  1.
         11    1    3    3    0    0  0.19055474728E+02  0.17759802150E+02 -0.27217886102E+02  0.37674062877E+02  0.51100000000E-03 0. -1.
        -11    1    3    3    0    0  0.13135752016E-01 -0.30767975237E+01  0.14192885946E+01  0.33883972503E+01  0.51100000000E-03 0.  1.
         12    1    3    3    0    0 -0.23435937765E+00 -0.39501661701E+01 -0.85996740988E+01  0.94664212718E+01  0.00000000000E+00 0. -1.
</event>
<event>
 7    1  0.9930326E-013  0.5052886E+02  0.7816164E-02  0.1300439E+00
        -11   -1    0    0    0    0  0.00000000000E+00  0.00000000000E+00  0.45593999997E+02  0.45594000000E+02  0.51100000000E-03 0.  1.
         11   -1    0    0    0    0 -0.00000000000E+00 -0.00000000000E+00 -0.45593999997E+02  0.45594000000E+02  0.51100000000E-03 0. -1.
    9900012    2    1    2    0    0  0.70142628825E+01  0.89464630557E+01 -0.39037506365E+02  0.50528856033E+02  0.29999988397E+02 0.  0.
        -12    1    1    2    0    0 -0.70142628825E+01 -0.89464630557E+01  0.39037506365E+02  0.40659143967E+02  0.00000000000E+00 0.  1.
         11    1    3    3    0    0  0.42557148874E+01 -0.94008697235E+01 -0.12591398337E+02  0.16279765757E+02  0.51100000000E-03 0. -1.
        -11    1    3    3    0    0  0.47438669130E+01  0.69894033235E+01 -0.47797882395E+01  0.97057924963E+01  0.51100000000E-03 0.  1.
         12    1    3    3    0    0 -0.19853189180E+01  0.11357929456E+02 -0.21666319789E+02  0.24543297780E+02  0.00000000000E+00 0. -1.
</event>
<event>
 7    1  0.9930326E-013  0.5052887E+02  0.7816164E-02  0.1300439E+00
        -11   -1    0    0    0    0  0.00000000000E+00  0.00000000000E+00  0.45593999997E+02  0.45594000000E+02  0.51100000000E-03 0. -1.
         11   -1    0    0    0    0 -0.00000000000E+00 -0.00000000000E+00 -0.45593999997E+02  0.45594000000E+02  0.51100000000E-03 0.  1.
    9900012    2    1    2    0    0 -0.28403750827E+02 -0.27263457622E+02  0.10153614163E+02  0.50528867408E+02  0.30000022974E+02 0.  0.
        -12    1    1    2    0    0  0.28403750827E+02  0.27263457622E+02 -0.10153614163E+02  0.40659132592E+02  0.00000000000E+00 0.  1.
         11    1    3    3    0    0 -0.35306622516E+01 -0.59599860772E+01  0.11888678593E+02  0.13759639854E+02  0.51100000000E-03 0. -1.
        -11    1    3    3    0    0 -0.20219084485E+02 -0.23250508011E+02  0.13746224222E+01  0.30842942259E+02  0.51100000000E-03 0.  1.
        -12    1    3    3    0    0 -0.46540040910E+01  0.19470364661E+01 -0.31096868521E+01  0.59262852950E+01  0.00000000000E+00 0.  1.
</event>
<event>
 7    1  0.9930326E-013  0.5052886E+02  0.7816164E-02  0.1300439E+00
        -11   -1    0    0    0    0  0.00000000000E+00  0.00000000000E+00  0.45593999997E+02  0.45594000000E+02  0.51100000000E-03 0.  1.
         11   -1    0    0    0    0 -0.00000000000E+00 -0.00000000000E+00 -0.45593999997E+02  0.45594000000E+02  0.51100000000E-03 0. -1.
    9900012    2    1    2    0    0  0.35992698231E+02  0.12620369800E+02  0.14086082741E+02  0.50528858509E+02  0.29999995923E+02 0.  0.
        -12    1    1    2    0    0 -0.35992698231E+02 -0.12620369800E+02 -0.14086082741E+02  0.40659141491E+02  0.00000000000E+00 0.  1.
         11    1    3    3    0    0  0.19444353871E+02 -0.42770961208E+00  0.19671626636E+01  0.19548287960E+02  0.51100000000E-03 0. -1.
        -11    1    3    3    0    0 -0.29120245825E+01 -0.22825924218E+01  0.21266062938E+01  0.42676187649E+01  0.51100000000E-03 0.  1.
        -12    1    3    3    0    0  0.19460368943E+02  0.15330671834E+02  0.99923137832E+01  0.26712951784E+02  0.00000000000E+00 0.  1.
</event>
<event>
 7    1  0.9930326E-013  0.5052887E+02  0.7816164E-02  0.1300439E+00
        -11   -1    0    0    0    0  0.00000000000E+00  0.00000000000E+00  0.45593999997E+02  0.45594000000E+02  0.51100000000E-03 0. -1.
         11   -1    0    0    0    0 -0.00000000000E+00 -0.00000000000E+00 -0.45593999997E+02  0.45594000000E+02  0.51100000000E-03 0.  1.
    9900012    2    1    2    0    0 -0.10637138270E+01  0.31476476184E+02  0.25715074467E+02  0.50528867017E+02  0.30000021786E+02 0.  0.
        -12    1    1    2    0    0  0.10637138270E+01 -0.31476476184E+02 -0.25715074467E+02  0.40659132983E+02  0.00000000000E+00 0.  1.
         11    1    3    3    0    0  0.13458124129E+00 -0.75632569730E+00 -0.48832166113E+01  0.49432727423E+01  0.51100000000E-03 0.  1.
        -11    1    3    3    0    0 -0.45003972725E+01  0.18167886805E+02  0.21528694047E+02  0.28527361501E+02  0.51100000000E-03 0. -1.
        -12    1    3    3    0    0  0.33021022043E+01  0.14064915076E+02  0.90695970319E+01  0.17058232774E+02  0.00000000000E+00 0.  1.
</event>
<event>
 7    1  0.9930326E-013  0.5052885E+02  0.7816164E-02  0.1300439E+00
        -11   -1    0    0    0    0  0.00000000000E+00  0.00000000000E+00  0.45593999997E+02  0.45594000000E+02  0.51100000000E-03 0.  1.
         11   -1    0    0    0    0 -0.00000000000E+00 -0.00000000000E+00 -0.45593999997E+02  0.45594000000E+02  0.51100000000E-03 0. -1.
    9900012    2    1    2    0    0 -0.67578769182E+01  0.39596949452E+02 -0.62911712167E+01  0.50528854145E+02  0.29999982660E+02 0.  0.
        -12    1    1    2    0    0  0.67578769182E+01 -0.39596949452E+02  0.62911712167E+01  0.40659145855E+02  0.00000000000E+00 0.  1.
         11    1    3    3    0    0 -0.75649158565E+01  0.52968588801E+01 -0.68535625326E+01  0.11500260239E+02  0.51100000000E-03 0. -1.
        -11    1    3    3    0    0  0.79499703567E+01  0.22158231413E+02  0.53659478961E+01  0.24145033550E+02  0.51100000000E-03 0.  1.
         12    1    3    3    0    0 -0.71429314183E+01  0.12141859159E+02 -0.48035565802E+01  0.14883560357E+02  0.00000000000E+00 0. -1.
</event>
<event>
 7    1  0.9930326E-013  0.5052886E+02  0.7816164E-02  0.1300439E+00
        -11   -1    0    0    0    0  0.00000000000E+00  0.00000000000E+00  0.45593999997E+02  0.45594000000E+02  0.51100000000E-03 0. -1.
         11   -1    0    0    0    0 -0.00000000000E+00 -0.00000000000E+00 -0.45593999997E+02  0.45594000000E+02  0.51100000000E-03 0.  1.
    9900012    2    1    2    0    0  0.36054659520E+02 -0.78630300128E+00 -0.18777882619E+02  0.50528860546E+02  0.30000002115E+02 0.  0.
        -12    1    1    2    0    0 -0.36054659520E+02  0.78630300128E+00  0.18777882619E+02  0.40659139454E+02  0.00000000000E+00 0.  1.
         11    1    3    3    0    0  0.11457375234E+02  0.92455673026E+01 -0.59324030185E+00  0.14734445912E+02  0.51100000000E-03 0. -1.
        -11    1    3    3    0    0  0.11001634525E+02 -0.73189787293E+01 -0.17480578395E+02  0.21912873685E+02  0.51100000000E-03 0.  1.
        -12    1    3    3    0    0  0.13595649761E+02 -0.27128915745E+01 -0.70406392190E+00  0.13881540949E+02  0.00000000000E+00 0.  1.
</event>
<event>
 7    1  0.9930326E-013  0.5052885E+02  0.7816164E-02  0.1300439E+00
        -11   -1    0    0    0    0  0.00000000000E+00  0.00000000000E+00  0.45593999997E+02  0.45594000000E+02  0.51100000000E-03 0. -1.
         11   -1    0    0    0    0 -0.00000000000E+00 -0.00000000000E+00 -0.45593999997E+02  0.45594000000E+02  0.51100000000E-03 0.  1.
    9900012    2    1    2    0    0 -0.91772490946E+01 -0.38649429414E+02  0.86698263447E+01  0.50528853626E+02  0.29999981082E+02 0.  0.
        -12    1    1    2    0    0  0.91772490946E+01  0.38649429414E+02 -0.86698263447E+01  0.40659146374E+02  0.00000000000E+00 0.  1.
         11    1    3    3    0    0  0.11766069763E+01 -0.30577647086E+00  0.52923577063E+00  0.13258936567E+01  0.51100000000E-03 0. -1.
        -11    1    3    3    0    0 -0.47811649088E+01  0.31719685758E+01 -0.20505561609E+01  0.60930865217E+01  0.51100000000E-03 0.  1.
        -12    1    3    3    0    0 -0.55726911621E+01 -0.41515621519E+02  0.10191146735E+02  0.43109873448E+02  0.00000000000E+00 0.  1.
</event>
<event>
 7    1  0.9930326E-013  0.5052887E+02  0.7816164E-02  0.1300439E+00
        -11   -1    0    0    0    0  0.00000000000E+00  0.00000000000E+00  0.45593999997E+02  0.45594000000E+02  0.51100000000E-03 0.  1.
         11   -1    0    0    0    0 -0.00000000000E+00 -0.00000000000E+00 -0.45593999997E+02  0.45594000000E+02  0.51100000000E-03 0. -1.
    9900012    2    1    2    0    0  0.14995826124E+02  0.26184278165E+02 -0.27252042480E+02  0.50528867649E+02  0.30000023706E+02 0.  0.
        -12    1    1    2    0    0 -0.14995826124E+02 -0.26184278165E+02  0.27252042480E+02  0.40659132351E+02  0.00000000000E+00 0.  1.
         11    1    3    3    0    0  0.45530489677E+01  0.42342630252E+01 -0.20681473020E+02  0.21595892314E+02  0.51100000000E-03 0.  1.
        -11    1    3    3    0    0  0.12904032875E+02  0.19320584533E+02 -0.86294510465E+01  0.24784399867E+02  0.51100000000E-03 0. -1.
        -12    1    3    3    0    0 -0.24612557190E+01  0.26294306067E+01  0.20588815864E+01  0.41485754683E+01  0.00000000000E+00 0.  1.
</event>
<event>
 7    1  0.9930326E-013  0.5052887E+02  0.7816164E-02  0.1300439E+00
        -11   -1    0    0    0    0  0.00000000000E+00  0.00000000000E+00  0.45593999997E+02  0.45594000000E+02  0.51100000000E-03 0. -1.
         11   -1    0    0    0    0 -0.00000000000E+00 -0.00000000000E+00 -0.45593999997E+02  0.45594000000E+02  0.51100000000E-03 0.  1.
    9900012    2    1    2    0    0 -0.19276582551E+02 -0.35789904851E+02  0.81301778218E+00  0.50528869144E+02  0.30000028250E+02 0.  0.
        -12    1    1    2    0    0  0.19276582551E+02  0.35789904851E+02 -0.81301778218E+00  0.40659130856E+02  0.00000000000E+00 0.  1.
         11    1    3    3    0    0 -0.36455654353E+01 -0.13596096982E+02  0.81804438913E+01  0.16280775873E+02  0.51100000000E-03 0. -1.
        -11    1    3    3    0    0 -0.18601848595E+02 -0.11719530374E+02 -0.78624775514E+01  0.23349405064E+02  0.51100000000E-03 0.  1.
        -12    1    3    3    0    0  0.29708314792E+01 -0.10474277494E+02  0.49505144236E+00  0.10898688207E+02  0.00000000000E+00 0.  1.
</event>
<event>
 7    1  0.9930326E-013  0.5052886E+02  0.7816164E-02  0.1300439E+00
        -11   -1    0    0    0    0  0.00000000000E+00  0.00000000000E+00  0.45593999997E+02  0.45594000000E+02  0.51100000000E-03 0. -1.
         11   -1    0    0    0    0 -0.00000000000E+00 -0.00000000000E+00 -0.45593999997E+02  0.45594000000E+02  0.51100000000E-03 0.  1.
    9900012    2    1    2    0    0  0.11834741921E+02 -0.37409182079E+02 -0.10661035708E+02  0.50528859545E+02  0.29999999074E+02 0.  0.
        -12    1    1    2    0    0 -0.11834741921E+02  0.37409182079E+02  0.10661035708E+02  0.40659140455E+02  0.00000000000E+00 0.  1.
         11    1    3    3    0    0 -0.27737758338E+01 -0.60923676543E+00 -0.73584906899E+00  0.29336795882E+01  0.51100000000E-03 0. -1.
        -11    1    3    3    0    0  0.18824347793E+02 -0.34818101656E+02 -0.13395403381E+02  0.41786278905E+02  0.51100000000E-03 0.  1.
        -12    1    3    3    0    0 -0.42158300381E+01 -0.19818436574E+01  0.34702167418E+01  0.58089010516E+01  0.00000000000E+00 0.  1.
</event>
<event>
 7    1  0.9930326E-013  0.5052887E+02  0.7816164E-02  0.1300439E+00
        -11   -1    0    0    0    0  0.00000000000E+00  0.00000000000E+00  0.45593999997E+02  0.45594000000E+02  0.51100000000E-03 0.  1.
         11   -1    0    0    0    0 -0.00000000000E+00 -0.00000000000E+00 -0.45593999997E+02  0.45594000000E+02  0.51100000000E-03 0. -1.
    9900012    2    1    2    0    0 -0.27381758187E+02  0.17501575801E+02 -0.24435611093E+02  0.50528869089E+02  0.30000028083E+02 0.  0.
        -12    1    1    2    0    0  0.27381758187E+02 -0.17501575801E+02  0.24435611093E+02  0.40659130911E+02  0.00000000000E+00 0.  1.
         11    1    3    3    0    0 -0.42443580573E+01 -0.12227182444E+01 -0.61774313566E+01  0.75940946564E+01  0.51100000000E-03 0. -1.
        -11    1    3    3    0    0 -0.20205708733E+02  0.14727850885E+02 -0.10485052182E+01  0.25025579325E+02  0.51100000000E-03 0.  1.
        -12    1    3    3    0    0 -0.29316913966E+01  0.39964431599E+01 -0.17209674518E+02  0.17909195107E+02  0.00000000000E+00 0.  1.
</event>
<event>
 7    1  0.9930326E-013  0.5052887E+02  0.7816164E-02  0.1300439E+00
        -11   -1    0    0    0    0  0.00000000000E+00  0.00000000000E+00  0.45593999997E+02  0.45594000000E+02  0.51100000000E-03 0.  1.
         11   -1    0    0    0    0 -0.00000000000E+00 -0.00000000000E+00 -0.45593999997E+02  0.45594000000E+02  0.51100000000E-03 0. -1.
    9900012    2    1    2    0    0 -0.49909018821E+01  0.34380191973E+02 -0.21124830292E+02  0.50528866259E+02  0.30000019480E+02 0.  0.
        -12    1    1    2    0    0  0.49909018821E+01 -0.34380191973E+02  0.21124830292E+02  0.40659133741E+02  0.00000000000E+00 0.  1.
         11    1    3    3    0    0  0.24344709896E+01  0.16325168210E+02  0.43059957270E+01  0.17058117292E+02  0.51100000000E-03 0. -1.
        -11    1    3    3    0    0  0.10650353758E+01 -0.56678659423E+00 -0.80394203573E+00  0.14497828986E+01  0.51100000000E-03 0.  1.
         12    1    3    3    0    0 -0.84904082476E+01  0.18621810357E+02 -0.24626883984E+02  0.32020966068E+02  0.00000000000E+00 0. -1.
</event>
<event>
 7    1  0.9930326E-013  0.5052885E+02  0.7816164E-02  0.1300439E+00
        -11   -1    0    0    0    0  0.00000000000E+00  0.00000000000E+00  0.45593999997E+02  0.45594000000E+02  0.51100000000E-03 0.  1.
         11   -1    0    0    0    0 -0.00000000000E+00 -0.00000000000E+00 -0.45593999997E+02  0.45594000000E+02  0.51100000000E-03 0. -1.
    9900012    2    1    2    0    0 -0.13018378133E+01 -0.90292948550E+01 -0.39622508045E+02  0.50528854767E+02  0.29999984551E+02 0.  0.
        -12    1    1    2    0    0  0.13018378133E+01  0.90292948550E+01  0.39622508045E+02  0.40659145233E+02  0.00000000000E+00 0.  1.
         11    1    3    3    0    0 -0.73398410508E+00  0.63442729089E+01 -0.10151654801E+02  0.11993524372E+02  0.51100000000E-03 0. -1.
        -11    1    3    3    0    0 -0.88207469960E+01 -0.11908305477E+02 -0.12662999132E+02  0.19492687454E+02  0.51100000000E-03 0.  1.
        -12    1    3    3    0    0  0.82528932878E+01 -0.34652622875E+01 -0.16807854112E+02  0.19042642941E+02  0.00000000000E+00 0.  1.
</event>
<event>
 7    1  0.9930326E-013  0.5052886E+02  0.7816164E-02  0.1300439E+00
        -11   -1    0    0    0    0  0.00000000000E+00  0.00000000000E+00  0.45593999997E+02  0.45594000000E+02  0.51100000000E-03 0.  1.
         11   -1    0    0    0    0 -0.00000000000E+00 -0.00000000000E+00 -0.45593999997E+02  0.45594000000E+02  0.51100000000E-03 0. -1.
    9900012    2    1    2    0    0  0.29495524734E+02  0.22189940524E+02 -0.17052464170E+02  0.50528856206E+02  0.29999988923E+02 0.  0.
        -12    1    1    2    0    0 -0.29495524734E+02 -0.22189940524E+02  0.17052464170E+02  0.40659143794E+02  0.00000000000E+00 0.  1.
         11    1    3    3    0    0  0.13886882885E+02  0.10537062078E+01 -0.11590046398E+02  0.18118636505E+02  0.51100000000E-03 0. -1.
        -11    1    3    3    0    0  0.15183457816E+02  0.20635770682E+02  0.12648555055E+01  0.25650970403E+02  0.51100000000E-03 0.  1.
        -12    1    3    3    0    0  0.42518403269E+00  0.50046363408E+00 -0.67272732780E+01  0.67592492976E+01  0.00000000000E+00 0.  1.
</event>
<event>
 7    1  0.9930326E-013  0.5052886E+02  0.7816164E-02  0.1300439E+00
        -11   -1    0    0    0    0  0.00000000000E+00  0.00000000000E+00  0.45593999997E+02  0.45594000000E+02  0.51100000000E-03 0.  1.
         11   -1    0    0    0    0 -0.00000000000E+00 -0.00000000000E+00 -0.45593999997E+02  0.45594000000E+02  0.51100000000E-03 0. -1.
    9900012    2    1    2    0    0  0.81624418938E+01 -0.21085321187E+02 -0.33792746189E+02  0.50528856843E+02  0.29999990861E+02 0.  0.
        -12    1    1    2    0    0 -0.81624418938E+01  0.21085321187E+02  0.33792746189E+02  0.40659143157E+02  0.00000000000E+00 0.  1.
         11    1    3    3    0    0  0.70833734333E+01 -0.15226903934E+02 -0.34012575849E+02  0.37932678508E+02  0.51100000000E-03 0. -1.
        -11    1    3    3    0    0  0.28076802797E+01 -0.67708725543E+01  0.39928554774E+01  0.83468963588E+01  0.51100000000E-03 0.  1.
        -12    1    3    3    0    0 -0.17286118193E+01  0.91245530105E+00 -0.37730258176E+01  0.42492819768E+01  0.00000000000E+00 0.  1.
</event>
<event>
 7    1  0.9930326E-013  0.5052886E+02  0.7816164E-02  0.1300439E+00
        -11   -1    0    0    0    0  0.00000000000E+00  0.00000000000E+00  0.45593999997E+02  0.45594000000E+02  0.51100000000E-03 0. -1.
         11   -1    0    0    0    0 -0.00000000000E+00 -0.00000000000E+00 -0.45593999997E+02  0.45594000000E+02  0.51100000000E-03 0.  1.
    9900012    2    1    2    0    0 -0.11271945939E+01 -0.57511766503E+01  0.40234552425E+02  0.50528858231E+02  0.29999995080E+02 0.  0.
        -12    1    1    2    0    0  0.11271945939E+01  0.57511766503E+01 -0.40234552425E+02  0.40659141769E+02  0.00000000000E+00 0.  1.
         11    1    3    3    0    0  0.11597052641E+02 -0.31580330530E+01  0.22502179679E+02  0.25511034736E+02  0.51100000000E-03 0. -1.
        -11    1    3    3    0    0 -0.96995127458E+01 -0.26857525387E+01  0.37957889490E+01  0.10756478430E+02  0.51100000000E-03 0.  1.
         12    1    3    3    0    0 -0.30247344893E+01  0.92608941401E-01  0.13936583797E+02  0.14261345065E+02  0.00000000000E+00 0. -1.
</event>
<event>
 7    1  0.9930326E-013  0.5052887E+02  0.7816164E-02  0.1300439E+00
        -11   -1    0    0    0    0  0.00000000000E+00  0.00000000000E+00  0.45593999997E+02  0.45594000000E+02  0.51100000000E-03 0.  1.
         11   -1    0    0    0    0 -0.00000000000E+00 -0.00000000000E+00 -0.45593999997E+02  0.45594000000E+02  0.51100000000E-03 0. -1.
    9900012    2    1    2    0    0  0.11617932972E+02 -0.36827896853E+02 -0.12723789744E+02  0.50528865988E+02  0.30000018657E+02 0.  0.
        -12    1    1    2    0    0 -0.11617932972E+02  0.36827896853E+02  0.12723789744E+02  0.40659134012E+02  0.00000000000E+00 0.  1.
         11    1    3    3    0    0  0.14877437807E+02 -0.15117718707E+02  0.14718304142E+01  0.21261464193E+02  0.51100000000E-03 0. -1.
        -11    1    3    3    0    0 -0.58025383725E+01 -0.37849746824E+01 -0.13234484502E+01  0.70531553912E+01  0.51100000000E-03 0.  1.
         12    1    3    3    0    0  0.25430335372E+01 -0.17925203464E+02 -0.12872171708E+02  0.22214246404E+02  0.00000000000E+00 0. -1.
</event>
<event>
 7    1  0.9930326E-013  0.5052885E+02  0.7816164E-02  0.1300439E+00
        -11   -1    0    0    0    0  0.00000000000E+00  0.00000000000E+00  0.45593999997E+02  0.45594000000E+02  0.51100000000E-03 0.  1.
         11   -1    0    0    0    0 -0.00000000000E+00 -0.00000000000E+00 -0.45593999997E+02  0.45594000000E+02  0.51100000000E-03 0. -1.
    9900012    2    1    2    0    0 -0.17771111347E+02  0.32180224627E+02 -0.17372028563E+02  0.50528848116E+02  0.29999964334E+02 0.  0.
        -12    1    1    2    0    0  0.17771111347E+02 -0.32180224627E+02  0.17372028563E+02  0.40659151884E+02  0.00000000000E+00 0.  1.
         11    1    3    3    0    0 -0.18166071836E+02  0.26189209742E+02 -0.95375999252E+01  0.33269305455E+02  0.51100000000E-03 0. -1.
        -11    1    3    3    0    0  0.40878285254E+01  0.21907145137E+01 -0.10388776221E+02  0.11377005044E+02  0.51100000000E-03 0.  1.
        -12    1    3    3    0    0 -0.36928680362E+01  0.38003003707E+01  0.25543475836E+01  0.58825376173E+01  0.00000000000E+00 0.  1.
</event>
<event>
 7    1  0.9930326E-013  0.5052885E+02  0.7816164E-02  0.1300439E+00
        -11   -1    0    0    0    0  0.00000000000E+00  0.00000000000E+00  0.45593999997E+02  0.45594000000E+02  0.51100000000E-03 0.  1.
         11   -1    0    0    0    0 -0.00000000000E+00 -0.00000000000E+00 -0.45593999997E+02  0.45594000000E+02  0.51100000000E-03 0. -1.
    9900012    2    1    2    0    0 -0.35377965716E+02 -0.19533179012E+02  0.44745039469E+01  0.50528846958E+02  0.29999960813E+02 0.  0.
        -12    1    1    2    0    0  0.35377965716E+02  0.19533179012E+02 -0.44745039469E+01  0.40659153042E+02  0.00000000000E+00 0.  1.
         11    1    3    3    0    0 -0.12402740835E+02 -0.59619690355E+01  0.98079604793E+00  0.13796195713E+02  0.51100000000E-03 0. -1.
        -11    1    3    3    0    0 -0.25373939857E+01 -0.78564425911E+01  0.11408944086E+02  0.14082828687E+02  0.51100000000E-03 0.  1.
        -12    1    3    3    0    0 -0.20437830896E+02 -0.57147673852E+01 -0.79152361867E+01  0.22649822558E+02  0.00000000000E+00 0.  1.
</event>
<event>
 7    1  0.9930326E-013  0.5052886E+02  0.7816164E-02  0.1300439E+00
        -11   -1    0    0    0    0  0.00000000000E+00  0.00000000000E+00  0.45593999997E+02  0.45594000000E+02  0.51100000000E-03 0.  1.
         11   -1    0    0    0    0 -0.00000000000E+00 -0.00000000000E+00 -0.45593999997E+02  0.45594000000E+02  0.51100000000E-03 0. -1.
    9900012    2    1    2    0    0 -0.24315256111E+02  0.29306276631E+02 -0.14250484928E+02  0.50528857727E+02  0.29999993547E+02 0.  0.
        -12    1    1    2    0    0  0.24315256111E+02 -0.29306276631E+02  0.14250484928E+02  0.40659142273E+02  0.00000000000E+00 0.  1.
         11    1    3    3    0    0 -0.13085502701E+01  0.17669617446E+02 -0.10444027687E+02  0.20567095057E+02  0.51100000000E-03 0. -1.
        -11    1    3    3    0    0 -0.20914395993E+02  0.38596519253E+01 -0.54974458373E+00  0.21274658449E+02  0.51100000000E-03 0.  1.
        -12    1    3    3    0    0 -0.20923098473E+01  0.77770072601E+01 -0.32567126564E+01  0.86871042211E+01  0.00000000000E+00 0.  1.
</event>
<event>
 7    1  0.9930326E-013  0.5052888E+02  0.7816164E-02  0.1300439E+00
        -11   -1    0    0    0    0  0.00000000000E+00  0.00000000000E+00  0.45593999997E+02  0.45594000000E+02  0.51100000000E-03 0.  1.
         11   -1    0    0    0    0 -0.00000000000E+00 -0.00000000000E+00 -0.45593999997E+02  0.45594000000E+02  0.51100000000E-03 0. -1.
    9900012    2    1    2    0    0  0.10858179609E+02  0.26544025652E+02 -0.28821490544E+02  0.50528884424E+02  0.30000074695E+02 0.  0.
        -12    1    1    2    0    0 -0.10858179609E+02 -0.26544025652E+02  0.28821490544E+02  0.40659115576E+02  0.00000000000E+00 0.  1.
         11    1    3    3    0    0 -0.59043321282E+01  0.18306696539E+02 -0.22514417134E+02  0.29612417247E+02  0.51100000000E-03 0. -1.
        -11    1    3    3    0    0  0.14579332092E+01  0.14980644883E+01  0.13869890473E+01  0.25086859772E+01  0.51100000000E-03 0.  1.
         12    1    3    3    0    0  0.15304578528E+02  0.67392646245E+01 -0.76940624576E+01  0.18407781200E+02  0.00000000000E+00 0. -1.
</event>
<event>
 7    1  0.9930326E-013  0.5052886E+02  0.7816164E-02  0.1300439E+00
        -11   -1    0    0    0    0  0.00000000000E+00  0.00000000000E+00  0.45593999997E+02  0.45594000000E+02  0.51100000000E-03 0. -1.
         11   -1    0    0    0    0 -0.00000000000E+00 -0.00000000000E+00 -0.45593999997E+02  0.45594000000E+02  0.51100000000E-03 0.  1.
    9900012    2    1    2    0    0  0.29370894616E+02  0.96678361113E+01  0.26401683448E+02  0.50528863334E+02  0.30000010589E+02 0.  0.
        -12    1    1    2    0    0 -0.29370894616E+02 -0.96678361113E+01 -0.26401683448E+02  0.40659136666E+02  0.00000000000E+00 0.  1.
         11    1    3    3    0    0  0.24812154101E+02  0.27872850448E+01  0.25216628813E+02  0.35486480778E+02  0.51100000000E-03 0. -1.
        -11    1    3    3    0    0 -0.26209700730E+01  0.88690918814E+00 -0.35969836710E+01  0.45381035491E+01  0.51100000000E-03 0.  1.
         12    1    3    3    0    0  0.71797105876E+01  0.59936418784E+01  0.47820383054E+01  0.10504279006E+02  0.00000000000E+00 0. -1.
</event>
<event>
 7    1  0.9930326E-013  0.5052886E+02  0.7816164E-02  0.1300439E+00
        -11   -1    0    0    0    0  0.00000000000E+00  0.00000000000E+00  0.45593999997E+02  0.45594000000E+02  0.51100000000E-03 0. -1.
         11   -1    0    0    0    0 -0.00000000000E+00 -0.00000000000E+00 -0.45593999997E+02  0.45594000000E+02  0.51100000000E-03 0.  1.
    9900012    2    1    2    0    0  0.33386172494E+02  0.21731634867E+02  0.81403437146E+01  0.50528860024E+02  0.30000000528E+02 0.  0.
        -12    1    1    2    0    0 -0.33386172494E+02 -0.21731634867E+02 -0.81403437146E+01  0.40659139976E+02  0.00000000000E+00 0.  1.
         11    1    3    3    0    0  0.11792511318E+02  0.14767315722E+02 -0.94560539797E+01  0.21131821832E+02  0.51100000000E-03 0. -1.
        -11    1    3    3    0    0  0.56279783661E+00 -0.60137071677E+00 -0.17561305523E+00  0.84215696290E+00  0.51100000000E-03 0.  1.
         12    1    3    3    0    0  0.21030863340E+02  0.75656898620E+01  0.17772010750E+02  0.28554881229E+02  0.00000000000E+00 0. -1.
</event>
<event>
 7    1  0.9930326E-013  0.5052878E+02  0.7816164E-02  0.1300439E+00
        -11   -1    0    0    0    0  0.00000000000E+00  0.00000000000E+00  0.45593999997E+02  0.45594000000E+02  0.51100000000E-03 0.  1.
         11   -1    0    0    0    0 -0.00000000000E+00 -0.00000000000E+00 -0.45593999997E+02  0.45594000000E+02  0.51100000000E-03 0. -1.
    9900012    2    1    2    0    0 -0.81215520826E+01 -0.39814192755E+02  0.14293133696E+01  0.50528776082E+02  0.29999745377E+02 0.  0.
        -12    1    1    2    0    0  0.81215520826E+01  0.39814192755E+02 -0.14293133696E+01  0.40659223918E+02  0.00000000000E+00 0.  1.
         11    1    3    3    0    0 -0.11512923480E+02 -0.26931803499E+02  0.86645167130E+01  0.30544120496E+02  0.51100000000E-03 0. -1.
        -11    1    3    3    0    0  0.40511480580E+00 -0.14952016829E+02 -0.63195485748E+01  0.16237722122E+02  0.51100000000E-03 0.  1.
         12    1    3    3    0    0  0.29862565916E+01  0.20696275735E+01 -0.91565476854E+00  0.37469334634E+01  0.00000000000E+00 0. -1.
</event>
<event>
 7    1  0.9930326E-013  0.5052884E+02  0.7816164E-02  0.1300439E+00
        -11   -1    0    0    0    0  0.00000000000E+00  0.00000000000E+00  0.45593999997E+02  0.45594000000E+02  0.51100000000E-03 0.  1.
         11   -1    0    0    0    0 -0.00000000000E+00 -0.00000000000E+00 -0.45593999997E+02  0.45594000000E+02  0.51100000000E-03 0. -1.
    9900012    2    1    2    0    0 -0.46323026652E+01  0.21332647565E+01 -0.40338046115E+02  0.50528843456E+02  0.29999950169E+02 0.  0.
        -12    1    1    2    0    0  0.46323026652E+01 -0.21332647565E+01  0.40338046115E+02  0.40659156544E+02  0.00000000000E+00 0.  1.
         11    1    3    3    0    0 -0.62236268710E+01  0.11730326366E+02 -0.26686376015E+02  0.29807662659E+02  0.51100000000E-03 0. -1.
        -11    1    3    3    0    0 -0.40847800976E+01 -0.84453453879E+01 -0.60439203948E+01  0.11159671194E+02  0.51100000000E-03 0.  1.
         12    1    3    3    0    0  0.56761043033E+01 -0.11517162219E+01 -0.76077497048E+01  0.95615096031E+01  0.00000000000E+00 0. -1.
</event>
<event>
 7    1  0.9930326E-013  0.5052886E+02  0.7816164E-02  0.1300439E+00
        -11   -1    0    0    0    0  0.00000000000E+00  0.00000000000E+00  0.45593999997E+02  0.45594000000E+02  0.51100000000E-03 0.  1.
         11   -1    0    0    0    0 -0.00000000000E+00 -0.00000000000E+00 -0.45593999997E+02  0.45594000000E+02  0.51100000000E-03 0. -1.
    9900012    2    1    2    0    0 -0.28840549341E+02 -0.15657063599E+02 -0.24005091949E+02  0.50528863680E+02  0.30000011640E+02 0.  0.
        -12    1    1    2    0    0  0.28840549341E+02  0.15657063599E+02  0.24005091949E+02  0.40659136320E+02  0.00000000000E+00 0.  1.
         11    1    3    3    0    0 -0.25586773120E+02 -0.79265228989E+01 -0.14275668680E+02  0.30353046642E+02  0.51100000000E-03 0. -1.
        -11    1    3    3    0    0 -0.14059083399E+01 -0.11716589742E+02 -0.30627781901E+01  0.12191622695E+02  0.51100000000E-03 0.  1.
        -12    1    3    3    0    0 -0.18478678811E+01  0.39860490421E+01 -0.66666450795E+01  0.79841943419E+01  0.00000000000E+00 0.  1.
</event>
<event>
 7    1  0.9930326E-013  0.5052887E+02  0.7816164E-02  0.1300439E+00
        -11   -1    0    0    0    0  0.00000000000E+00  0.00000000000E+00  0.45593999997E+02  0.45594000000E+02  0.51100000000E-03 0.  1.
         11   -1    0    0    0    0 -0.00000000000E+00 -0.00000000000E+00 -0.45593999997E+02  0.45594000000E+02  0.51100000000E-03 0. -1.
    9900012    2    1    2    0    0 -0.30308440714E+02 -0.26382828689E+02 -0.62056139639E+01  0.50528869748E+02  0.30000030087E+02 0.  0.
        -12    1    1    2    0    0  0.30308440714E+02  0.26382828689E+02  0.62056139639E+01  0.40659130252E+02  0.00000000000E+00 0.  1.
         11    1    3    3    0    0 -0.31625034903E+02 -0.22892371707E+02 -0.10809842799E+02  0.40509952069E+02  0.51100000000E-03 0. -1.
        -11    1    3    3    0    0  0.20370084223E+01  0.21382926396E+01  0.45264479673E+00  0.29877393290E+01  0.51100000000E-03 0.  1.
         12    1    3    3    0    0 -0.72041423277E+00 -0.56287496216E+01  0.41515840380E+01  0.70311783503E+01  0.00000000000E+00 0. -1.
</event>
<event>
 7    1  0.9930326E-013  0.5052888E+02  0.7816164E-02  0.1300439E+00
        -11   -1    0    0    0    0  0.00000000000E+00  0.00000000000E+00  0.45593999997E+02  0.45594000000E+02  0.51100000000E-03 0.  1.
         11   -1    0    0    0    0 -0.00000000000E+00 -0.00000000000E+00 -0.45593999997E+02  0.45594000000E+02  0.51100000000E-03 0. -1.
    9900012    2    1    2    0    0  0.37881367669E+02 -0.13369197703E+02 -0.62793448917E+01  0.50528884959E+02  0.30000076321E+02 0.  0.
        -12    1    1    2    0    0 -0.37881367669E+02  0.13369197703E+02  0.62793448917E+01  0.40659115041E+02  0.00000000000E+00 0.  1.
         11    1    3    3    0    0  0.18649466973E+02 -0.15901126567E+02 -0.48037296416E+01  0.24974472231E+02  0.51100000000E-03 0. -1.
        -11    1    3    3    0    0  0.14722894073E+01  0.65387301025E+01 -0.28785832311E+01  0.72944409746E+01  0.51100000000E-03 0.  1.
         12    1    3    3    0    0  0.17759611289E+02 -0.40068012378E+01  0.14029679811E+01  0.18259971754E+02  0.00000000000E+00 0. -1.
</event>
<event>
 7    1  0.9930326E-013  0.5052889E+02  0.7816164E-02  0.1300439E+00
        -11   -1    0    0    0    0  0.00000000000E+00  0.00000000000E+00  0.45593999997E+02  0.45594000000E+02  0.51100000000E-03 0. -1.
         11   -1    0    0    0    0 -0.00000000000E+00 -0.00000000000E+00 -0.45593999997E+02  0.45594000000E+02  0.51100000000E-03 0.  1.
    9900012    2    1    2    0    0 -0.85507445389E+00  0.16639909873E+02  0.37088348178E+02  0.50528888801E+02  0.30000087998E+02 0.  0.
        -12    1    1    2    0    0  0.85507445389E+00 -0.16639909873E+02 -0.37088348178E+02  0.40659111199E+02  0.00000000000E+00 0.  1.
         11    1    3    3    0    0  0.90120571801E+01  0.29774808917E+01  0.19990874036E+02  0.22129564209E+02  0.51100000000E-03 0. -1.
        -11    1    3    3    0    0 -0.68938573963E+01  0.11342961045E+02  0.19744919404E+02  0.23791802740E+02  0.51100000000E-03 0.  1.
        -12    1    3    3    0    0 -0.29732742377E+01  0.23194679365E+01 -0.26474452620E+01  0.46075218520E+01  0.00000000000E+00 0.  1.
</event>
<event>
 7    1  0.9930326E-013  0.5052887E+02  0.7816164E-02  0.1300439E+00
        -11   -1    0    0    0    0  0.00000000000E+00  0.00000000000E+00  0.45593999997E+02  0.45594000000E+02  0.51100000000E-03 0.  1.
         11   -1    0    0    0    0 -0.00000000000E+00 -0.00000000000E+00 -0.45593999997E+02  0.45594000000E+02  0.51100000000E-03 0. -1.
    9900012    2    1    2    0    0  0.15548514692E+02 -0.10685774523E+01 -0.37553513218E+02  0.50528874063E+02  0.30000043202E+02 0.  0.
        -12    1    1    2    0    0 -0.15548514692E+02  0.10685774523E+01  0.37553513218E+02  0.40659125937E+02  0.00000000000E+00 0.  1.
         11    1    3    3    0    0  0.12241923434E+02 -0.14924788450E+01 -0.30235472795E+02  0.32653881819E+02  0.51100000000E-03 0. -1.
        -11    1    3    3    0    0  0.39065863969E+01 -0.54271296168E+01  0.18898710501E+01  0.69488679654E+01  0.51100000000E-03 0.  1.
        -12    1    3    3    0    0 -0.59999513866E+00  0.58510310095E+01 -0.92079114735E+01  0.10926124278E+02  0.00000000000E+00 0.  1.
</event>
<event>
 7    1  0.9930326E-013  0.5052887E+02  0.7816164E-02  0.1300439E+00
        -11   -1    0    0    0    0  0.00000000000E+00  0.00000000000E+00  0.45593999997E+02  0.45594000000E+02  0.51100000000E-03 0.  1.
         11   -1    0    0    0    0 -0.00000000000E+00 -0.00000000000E+00 -0.45593999997E+02  0.45594000000E+02  0.51100000000E-03 0. -1.
    9900012    2    1    2    0    0 -0.13935838993E+02 -0.25729936683E+02 -0.28229909916E+02  0.50528867397E+02  0.30000022941E+02 0.  0.
        -12    1    1    2    0    0  0.13935838993E+02  0.25729936683E+02  0.28229909916E+02  0.40659132603E+02  0.00000000000E+00 0.  1.
         11    1    3    3    0    0 -0.10191493327E+02  0.39144632035E+01 -0.12463635827E+02  0.16569000474E+02  0.51100000000E-03 0. -1.
        -11    1    3    3    0    0 -0.17084382300E+01 -0.10630479177E+02 -0.75311633666E+01  0.13139416678E+02  0.51100000000E-03 0.  1.
         12    1    3    3    0    0 -0.20359074355E+01 -0.19013920709E+02 -0.82351107226E+01  0.20820450246E+02  0.00000000000E+00 0. -1.
</event>
<event>
 7    1  0.9930326E-013  0.5052886E+02  0.7816164E-02  0.1300439E+00
        -11   -1    0    0    0    0  0.00000000000E+00  0.00000000000E+00  0.45593999997E+02  0.45594000000E+02  0.51100000000E-03 0. -1.
         11   -1    0    0    0    0 -0.00000000000E+00 -0.00000000000E+00 -0.45593999997E+02  0.45594000000E+02  0.51100000000E-03 0.  1.
    9900012    2    1    2    0    0  0.37326357835E+02 -0.15907540894E+02  0.26189267881E+01  0.50528860510E+02  0.30000002007E+02 0.  0.
        -12    1    1    2    0    0 -0.37326357835E+02  0.15907540894E+02 -0.26189267881E+01  0.40659139490E+02  0.00000000000E+00 0.  1.
         11    1    3    3    0    0  0.61951611938E+01 -0.10125599796E+02 -0.53882587692E+01  0.13036146910E+02  0.51100000000E-03 0. -1.
        -11    1    3    3    0    0  0.33558888885E+02 -0.52054741110E+01  0.64970284852E+01  0.34576109719E+02  0.51100000000E-03 0.  1.
        -12    1    3    3    0    0 -0.24276922435E+01 -0.57646698682E+00  0.15101570722E+01  0.29166038810E+01  0.00000000000E+00 0.  1.
</event>
<event>
 7    1  0.1094453E-012  0.5052886E+02  0.7816164E-02  0.1300439E+00
        -11   -1    0    0    0    0  0.00000000000E+00  0.00000000000E+00  0.45593999997E+02  0.45594000000E+02  0.51100000000E-03 0. -1.
         11   -1    0    0    0    0 -0.00000000000E+00 -0.00000000000E+00 -0.45593999997E+02  0.45594000000E+02  0.51100000000E-03 0.  1.
    9900012    2    1    2    0    0 -0.10798436350E+02  0.35399331029E+02  0.16835881364E+02  0.50528858762E+02  0.29999996694E+02 0.  0.
        -12    1    1    2    0    0  0.10798436350E+02 -0.35399331029E+02 -0.16835881364E+02  0.40659141238E+02  0.00000000000E+00 0.  1.
         11    1    3    3    0    0 -0.13278740740E+02  0.84767774623E+01  0.76251781641E+01  0.17502115703E+02  0.51100000000E-03 0. -1.
        -11    1    3    3    0    0 -0.10334040479E+01  0.27403128916E+02  0.56448092175E+01  0.27997558281E+02  0.51100000000E-03 0.  1.
        -12    1    3    3    0    0  0.35137084373E+01 -0.48057534959E+00  0.35658939823E+01  0.50291847790E+01  0.00000000000E+00 0.  1.
</event>
<event>
 7    1  0.9930326E-013  0.5052885E+02  0.7816164E-02  0.1300439E+00
        -11   -1    0    0    0    0  0.00000000000E+00  0.00000000000E+00  0.45593999997E+02  0.45594000000E+02  0.51100000000E-03 0.  1.
         11   -1    0    0    0    0 -0.00000000000E+00 -0.00000000000E+00 -0.45593999997E+02  0.45594000000E+02  0.51100000000E-03 0. -1.
    9900012    2    1    2    0    0  0.98500061407E+01  0.44119756749E+01 -0.39200491450E+02  0.50528847522E+02  0.29999962526E+02 0.  0.
        -12    1    1    2    0    0 -0.98500061407E+01 -0.44119756749E+01  0.39200491450E+02  0.40659152478E+02  0.00000000000E+00 0.  1.
         11    1    3    3    0    0 -0.28908205177E+00 -0.50910780389E+01 -0.12093005554E+02  0.13124154359E+02  0.51100000000E-03 0. -1.
        -11    1    3    3    0    0  0.51522110255E+01  0.12512023861E+02 -0.28381994061E+02  0.31442544533E+02  0.51100000000E-03 0.  1.
        -12    1    3    3    0    0  0.49868771669E+01 -0.30089701470E+01  0.12745081653E+01  0.59621486301E+01  0.00000000000E+00 0.  1.
</event>
<event>
 7    1  0.9930326E-013  0.5052886E+02  0.7816164E-02  0.1300439E+00
        -11   -1    0    0    0    0  0.00000000000E+00  0.00000000000E+00  0.45593999997E+02  0.45594000000E+02  0.51100000000E-03 0.  1.
         11   -1    0    0    0    0 -0.00000000000E+00 -0.00000000000E+00 -0.45593999997E+02  0.45594000000E+02  0.51100000000E-03 0. -1.
    9900012    2    1    2    0    0 -0.16681261380E+02 -0.33952905501E+02  0.14903072090E+02  0.50528857967E+02  0.29999994275E+02 0.  0.
        -12    1    1    2    0    0  0.16681261380E+02  0.33952905501E+02 -0.14903072090E+02  0.40659142033E+02  0.00000000000E+00 0.  1.
         11    1    3    3    0    0 -0.10187304345E+02 -0.32770650895E+02  0.17316851129E+02  0.38439173549E+02  0.51100000000E-03 0. -1.
        -11    1    3    3    0    0  0.17230915783E+01  0.20488922804E+01 -0.18261341886E+01  0.32406435317E+01  0.51100000000E-03 0.  1.
         12    1    3    3    0    0 -0.82170486138E+01 -0.32311468863E+01 -0.58764485016E+00  0.88490408854E+01  0.00000000000E+00 0. -1.
</event>
<event>
 7    1  0.9930326E-013  0.5052886E+02  0.7816164E-02  0.1300439E+00
        -11   -1    0    0    0    0  0.00000000000E+00  0.00000000000E+00  0.45593999997E+02  0.45594000000E+02  0.51100000000E-03 0.  1.
         11   -1    0    0    0    0 -0.00000000000E+00 -0.00000000000E+00 -0.45593999997E+02  0.45594000000E+02  0.51100000000E-03 0. -1.
    9900012    2    1    2    0    0  0.36177265092E+02  0.18547567624E+02 -0.59904761329E+00  0.50528860408E+02  0.30000001697E+02 0.  0.
        -12    1    1    2    0    0 -0.36177265092E+02 -0.18547567624E+02  0.59904761329E+00  0.40659139592E+02  0.00000000000E+00 0.  1.
         11    1    3    3    0    0  0.19159093991E+02  0.15320465702E+02  0.24927593566E+01  0.24657684428E+02  0.51100000000E-03 0. -1.
        -11    1    3    3    0    0 -0.17193150236E+01 -0.46471438027E+01  0.11999117407E+01  0.50982132282E+01  0.51100000000E-03 0.  1.
         12    1    3    3    0    0  0.18737486125E+02  0.78742457247E+01 -0.42917187107E+01  0.20772962752E+02  0.00000000000E+00 0. -1.
</event>
<event>
 7    1  0.9930326E-013  0.5052886E+02  0.7816164E-02  0.1300439E+00
        -11   -1    0    0    0    0  0.00000000000E+00  0.00000000000E+00  0.45593999997E+02  0.45594000000E+02  0.51100000000E-03 0.  1.
         11   -1    0    0    0    0 -0.00000000000E+00 -0.00000000000E+00 -0.45593999997E+02  0.45594000000E+02  0.51100000000E-03 0. -1.
    9900012    2    1    2    0    0 -0.17206691501E+02  0.22723760032E+02 -0.28995276429E+02  0.50528861327E+02  0.30000004490E+02 0.  0.
        -12    1    1    2    0    0  0.17206691501E+02 -0.22723760032E+02  0.28995276429E+02  0.40659138673E+02  0.00000000000E+00 0.  1.
         11    1    3    3    0    0 -0.86114653364E+01  0.60693329200E+01 -0.15716391707E+02  0.18920864301E+02  0.51100000000E-03 0. -1.
        -11    1    3    3    0    0  0.61775075202E+01  0.74452626079E+00 -0.12535329485E+00  0.62234742889E+01  0.51100000000E-03 0.  1.
        -12    1    3    3    0    0 -0.14772733685E+02  0.15909900851E+02 -0.13153531428E+02  0.25384522738E+02  0.00000000000E+00 0.  1.
</event>
<event>
 7    1  0.9930326E-013  0.5052886E+02  0.7816164E-02  0.1300439E+00
        -11   -1    0    0    0    0  0.00000000000E+00  0.00000000000E+00  0.45593999997E+02  0.45594000000E+02  0.51100000000E-03 0. -1.
         11   -1    0    0    0    0 -0.00000000000E+00 -0.00000000000E+00 -0.45593999997E+02  0.45594000000E+02  0.51100000000E-03 0.  1.
    9900012    2    1    2    0    0  0.34055188108E+02  0.21751618804E+02  0.45030072251E+01  0.50528857956E+02  0.29999994244E+02 0.  0.
        -12    1    1    2    0    0 -0.34055188108E+02 -0.21751618804E+02 -0.45030072251E+01  0.40659142044E+02  0.00000000000E+00 0.  1.
         11    1    3    3    0    0  0.31546595436E+02  0.24639708666E+02  0.78555596252E+01  0.40792312315E+02  0.51100000000E-03 0. -1.
        -11    1    3    3    0    0  0.28682790530E+01  0.66137737595E+00 -0.50037342659E+01  0.58053252815E+01  0.51100000000E-03 0.  1.
         12    1    3    3    0    0 -0.35968638056E+00 -0.35494672377E+01  0.16511818658E+01  0.39312203599E+01  0.00000000000E+00 0. -1.
</event>
<event>
 7    1  0.9930326E-013  0.5052885E+02  0.7816164E-02  0.1300439E+00
        -11   -1    0    0    0    0  0.00000000000E+00  0.00000000000E+00  0.45593999997E+02  0.45594000000E+02  0.51100000000E-03 0.  1.
         11   -1    0    0    0    0 -0.00000000000E+00 -0.00000000000E+00 -0.45593999997E+02  0.45594000000E+02  0.51100000000E-03 0. -1.
    9900012    2    1    2    0    0 -0.70662741591E+01 -0.17590534107E+02 -0.35969536688E+02  0.50528847399E+02  0.29999962155E+02 0.  0.
        -12    1    1    2    0    0  0.70662741591E+01  0.17590534107E+02  0.35969536688E+02  0.40659152601E+02  0.00000000000E+00 0.  1.
         11    1    3    3    0    0  0.62545000543E+01 -0.16234435895E+02 -0.12601722655E+02  0.21482064470E+02  0.51100000000E-03 0. -1.
        -11    1    3    3    0    0 -0.13591183070E+02 -0.12035198709E+00 -0.13706207654E+02  0.19302716657E+02  0.51100000000E-03 0.  1.
        -12    1    3    3    0    0  0.27040885638E+00 -0.12357462247E+01 -0.96616063797E+01  0.97440662723E+01  0.00000000000E+00 0.  1.
</event>
<event>
 7    1  0.9930326E-013  0.5052886E+02  0.7816164E-02  0.1300439E+00
        -11   -1    0    0    0    0  0.00000000000E+00  0.00000000000E+00  0.45593999997E+02  0.45594000000E+02  0.51100000000E-03 0.  1.
         11   -1    0    0    0    0 -0.00000000000E+00 -0.00000000000E+00 -0.45593999997E+02  0.45594000000E+02  0.51100000000E-03 0. -1.
    9900012    2    1    2    0    0 -0.30602209664E+01 -0.54927112952E+01 -0.40170024289E+02  0.50528859809E+02  0.29999999874E+02 0.  0.
        -12    1    1    2    0    0  0.30602209664E+01  0.54927112952E+01  0.40170024289E+02  0.40659140191E+02  0.00000000000E+00 0.  1.
         11    1    3    3    0    0  0.73611831427E+01  0.12304328848E+01 -0.30106388032E+02  0.31017665660E+02  0.51100000000E-03 0. -1.
        -11    1    3    3    0    0 -0.10287262526E+02 -0.40394843834E+00 -0.72547866737E+01  0.12594557339E+02  0.51100000000E-03 0.  1.
        -12    1    3    3    0    0 -0.13414158295E+00 -0.63191957416E+01 -0.28088495827E+01  0.69166368101E+01  0.00000000000E+00 0.  1.
</event>
<event>
 7    1  0.9930326E-013  0.5052887E+02  0.7816164E-02  0.1300439E+00
        -11   -1    0    0    0    0  0.00000000000E+00  0.00000000000E+00  0.45593999997E+02  0.45594000000E+02  0.51100000000E-03 0. -1.
         11   -1    0    0    0    0 -0.00000000000E+00 -0.00000000000E+00 -0.45593999997E+02  0.45594000000E+02  0.51100000000E-03 0.  1.
    9900012    2    1    2    0    0  0.47198037756E+01  0.18973857976E+02  0.35649420929E+02  0.50528867609E+02  0.30000023586E+02 0.  0.
        -12    1    1    2    0    0 -0.47198037756E+01 -0.18973857976E+02 -0.35649420929E+02  0.40659132391E+02  0.00000000000E+00 0.  1.
         11    1    3    3    0    0 -0.89096132574E+01  0.16468162176E+02  0.13998748642E+02  0.23378334792E+02  0.51100000000E-03 0. -1.
        -11    1    3    3    0    0  0.61448668521E+01  0.38205045238E+01  0.48489504861E+01  0.87102218413E+01  0.51100000000E-03 0.  1.
         12    1    3    3    0    0  0.74845501809E+01 -0.13148087245E+01  0.16801721802E+02  0.18440310976E+02  0.00000000000E+00 0. -1.
</event>
<event>
 7    1  0.9930326E-013  0.5052886E+02  0.7816164E-02  0.1300439E+00
        -11   -1    0    0    0    0  0.00000000000E+00  0.00000000000E+00  0.45593999997E+02  0.45594000000E+02  0.51100000000E-03 0.  1.
         11   -1    0    0    0    0 -0.00000000000E+00 -0.00000000000E+00 -0.45593999997E+02  0.45594000000E+02  0.51100000000E-03 0. -1.
    9900012    2    1    2    0    0  0.13681615127E+02 -0.12427024522E+02 -0.36215298047E+02  0.50528863959E+02  0.30000012491E+02 0.  0.
        -12    1    1    2    0    0 -0.13681615127E+02  0.12427024522E+02  0.36215298047E+02  0.40659136041E+02  0.00000000000E+00 0.  1.
         11    1    3    3    0    0 -0.62125127222E+01  0.46193703537E+01 -0.79593803382E+01  0.11103406343E+02  0.51100000000E-03 0.  1.
        -11    1    3    3    0    0  0.94244021855E+01 -0.13149546057E+02 -0.14696074437E+02  0.21856452644E+02  0.51100000000E-03 0. -1.
         12    1    3    3    0    0  0.10469725663E+02 -0.38968488188E+01 -0.13559843271E+02  0.17569004973E+02  0.00000000000E+00 0. -1.
</event>
<event>
 7    1  0.9930326E-013  0.5052885E+02  0.7816164E-02  0.1300439E+00
        -11   -1    0    0    0    0  0.00000000000E+00  0.00000000000E+00  0.45593999997E+02  0.45594000000E+02  0.51100000000E-03 0. -1.
         11   -1    0    0    0    0 -0.00000000000E+00 -0.00000000000E+00 -0.45593999997E+02  0.45594000000E+02  0.51100000000E-03 0.  1.
    9900012    2    1    2    0    0 -0.19029220921E+02  0.35856086910E+02  0.23229039383E+01  0.50528854656E+02  0.29999984213E+02 0.  0.
        -12    1    1    2    0    0  0.19029220921E+02 -0.35856086910E+02 -0.23229039383E+01  0.40659145344E+02  0.00000000000E+00 0.  1.
         11    1    3    3    0    0 -0.19668909739E+02  0.35701562074E+02  0.92608133256E+00  0.40771622137E+02  0.51100000000E-03 0. -1.
        -11    1    3    3    0    0  0.34931265875E+01 -0.94054268877E+00 -0.27935874021E+01  0.45706328599E+01  0.51100000000E-03 0.  1.
         12    1    3    3    0    0 -0.28534377694E+01  0.10950675253E+01  0.41904100079E+01  0.51865996590E+01  0.00000000000E+00 0. -1.
</event>
<event>
 7    1  0.9930326E-013  0.5052886E+02  0.7816164E-02  0.1300439E+00
        -11   -1    0    0    0    0  0.00000000000E+00  0.00000000000E+00  0.45593999997E+02  0.45594000000E+02  0.51100000000E-03 0. -1.
         11   -1    0    0    0    0 -0.00000000000E+00 -0.00000000000E+00 -0.45593999997E+02  0.45594000000E+02  0.51100000000E-03 0.  1.
    9900012    2    1    2    0    0 -0.57176041313E+01  0.35593208471E+02  0.18804212262E+02  0.50528857301E+02  0.29999992252E+02 0.  0.
        -12    1    1    2    0    0  0.57176041313E+01 -0.35593208471E+02 -0.18804212262E+02  0.40659142699E+02  0.00000000000E+00 0.  1.
         11    1    3    3    0    0 -0.85642758057E+00  0.35942125851E+02  0.14113781950E+02  0.38623421911E+02  0.51100000000E-03 0. -1.
        -11    1    3    3    0    0 -0.33362889519E+00 -0.16353997573E+01 -0.26818159900E+01  0.31587937367E+01  0.51100000000E-03 0.  1.
         12    1    3    3    0    0 -0.45275476555E+01  0.12864823764E+01  0.73722463019E+01  0.87466416534E+01  0.00000000000E+00 0. -1.
</event>
<event>
 7    1  0.9930326E-013  0.5052881E+02  0.7816164E-02  0.1300439E+00
        -11   -1    0    0    0    0  0.00000000000E+00  0.00000000000E+00  0.45593999997E+02  0.45594000000E+02  0.51100000000E-03 0.  1.
         11   -1    0    0    0    0 -0.00000000000E+00 -0.00000000000E+00 -0.45593999997E+02  0.45594000000E+02  0.51100000000E-03 0. -1.
    9900012    2    1    2    0    0  0.21438805150E+02  0.37442387164E+01 -0.34344261044E+02  0.50528807233E+02  0.29999840065E+02 0.  0.
        -12    1    1    2    0    0 -0.21438805150E+02 -0.37442387164E+01  0.34344261044E+02  0.40659192767E+02  0.00000000000E+00 0.  1.
         11    1    3    3    0    0  0.74872370442E+01  0.45078300983E+01 -0.23915041143E+02  0.25461901812E+02  0.51100000000E-03 0. -1.
        -11    1    3    3    0    0  0.48041968026E+01 -0.78722864541E+01  0.36918121602E+00  0.92298155975E+01  0.51100000000E-03 0.  1.
         12    1    3    3    0    0  0.91473713037E+01  0.71086950722E+01 -0.10798401117E+02  0.15837089823E+02  0.00000000000E+00 0. -1.
</event>
<event>
 7    1  0.9930326E-013  0.5052885E+02  0.7816164E-02  0.1300439E+00
        -11   -1    0    0    0    0  0.00000000000E+00  0.00000000000E+00  0.45593999997E+02  0.45594000000E+02  0.51100000000E-03 0.  1.
         11   -1    0    0    0    0 -0.00000000000E+00 -0.00000000000E+00 -0.45593999997E+02  0.45594000000E+02  0.51100000000E-03 0. -1.
    9900012    2    1    2    0    0 -0.61033522330E+01  0.24440090469E+02 -0.31915477700E+02  0.50528847925E+02  0.29999963753E+02 0.  0.
        -12    1    1    2    0    0  0.61033522330E+01 -0.24440090469E+02  0.31915477700E+02  0.40659152075E+02  0.00000000000E+00 0.  1.
         11    1    3    3    0    0 -0.14086344989E+02  0.36866316793E+01 -0.17892533418E+02  0.23068574310E+02  0.51100000000E-03 0. -1.
        -11    1    3    3    0    0  0.65113950358E+01  0.11106414124E+02 -0.40242807585E+01  0.13488718838E+02  0.51100000000E-03 0.  1.
        -12    1    3    3    0    0  0.14715977206E+01  0.96470446654E+01 -0.99986635240E+01  0.13971554777E+02  0.00000000000E+00 0.  1.
</event>
<event>
 7    1  0.9930326E-013  0.5052888E+02  0.7816164E-02  0.1300439E+00
        -11   -1    0    0    0    0  0.00000000000E+00  0.00000000000E+00  0.45593999997E+02  0.45594000000E+02  0.51100000000E-03 0. -1.
         11   -1    0    0    0    0 -0.00000000000E+00 -0.00000000000E+00 -0.45593999997E+02  0.45594000000E+02  0.51100000000E-03 0.  1.
    9900012    2    1    2    0    0 -0.14531845830E+02  0.24808504363E+02  0.28749391733E+02  0.50528881011E+02  0.30000064322E+02 0.  0.
        -12    1    1    2    0    0  0.14531845830E+02 -0.24808504363E+02 -0.28749391733E+02  0.40659118989E+02  0.00000000000E+00 0.  1.
         11    1    3    3    0    0 -0.21354776229E+01 -0.39395456792E+00  0.11613626700E+02  0.11814896964E+02  0.51100000000E-03 0. -1.
        -11    1    3    3    0    0  0.26832720539E+01  0.16187966476E+02  0.43208313906E+01  0.16968199424E+02  0.51100000000E-03 0.  1.
        -12    1    3    3    0    0 -0.15079640261E+02  0.90144924550E+01  0.12814933642E+02  0.21745784623E+02  0.00000000000E+00 0.  1.
</event>
<event>
 7    1  0.9930326E-013  0.5052886E+02  0.7816164E-02  0.1300439E+00
        -11   -1    0    0    0    0  0.00000000000E+00  0.00000000000E+00  0.45593999997E+02  0.45594000000E+02  0.51100000000E-03 0.  1.
         11   -1    0    0    0    0 -0.00000000000E+00 -0.00000000000E+00 -0.45593999997E+02  0.45594000000E+02  0.51100000000E-03 0. -1.
    9900012    2    1    2    0    0 -0.20376859480E+01 -0.23383913142E+02 -0.33199486456E+02  0.50528862542E+02  0.30000008184E+02 0.  0.
        -12    1    1    2    0    0  0.20376859480E+01  0.23383913142E+02  0.33199486456E+02  0.40659137458E+02  0.00000000000E+00 0.  1.
         11    1    3    3    0    0  0.77317093614E+01 -0.17187198906E+02 -0.29947851024E+02  0.35384359781E+02  0.51100000000E-03 0. -1.
        -11    1    3    3    0    0 -0.87257778793E+01 -0.76354474954E+01 -0.18058392771E+00  0.11596200622E+02  0.51100000000E-03 0.  1.
        -12    1    3    3    0    0 -0.10436174301E+01  0.14387332591E+01 -0.30710515044E+01  0.35483021396E+01  0.00000000000E+00 0.  1.
</event>
<event>
 7    1  0.9930326E-013  0.5052884E+02  0.7816164E-02  0.1300439E+00
        -11   -1    0    0    0    0  0.00000000000E+00  0.00000000000E+00  0.45593999997E+02  0.45594000000E+02  0.51100000000E-03 0. -1.
         11   -1    0    0    0    0 -0.00000000000E+00 -0.00000000000E+00 -0.45593999997E+02  0.45594000000E+02  0.51100000000E-03 0.  1.
    9900012    2    1    2    0    0 -0.40388601932E+01  0.82781851101E+01  0.39602098520E+02  0.50528844234E+02  0.29999952535E+02 0.  0.
        -12    1    1    2    0    0  0.40388601932E+01 -0.82781851101E+01 -0.39602098520E+02  0.40659155766E+02  0.00000000000E+00 0.  1.
         11    1    3    3    0    0 -0.67423842803E+01  0.51616088711E+01  0.14636483997E+02  0.16921247471E+02  0.51100000000E-03 0. -1.
        -11    1    3    3    0    0  0.15536484160E+01 -0.81369880666E+01  0.19199973531E+02  0.20910843647E+02  0.51100000000E-03 0.  1.
        -12    1    3    3    0    0  0.11498756711E+01  0.11253564306E+02  0.57656409925E+01  0.12696753116E+02  0.00000000000E+00 0.  1.
</event>
<event>
 7    1  0.9930326E-013  0.5052886E+02  0.7816164E-02  0.1300439E+00
        -11   -1    0    0    0    0  0.00000000000E+00  0.00000000000E+00  0.45593999997E+02  0.45594000000E+02  0.51100000000E-03 0.  1.
         11   -1    0    0    0    0 -0.00000000000E+00 -0.00000000000E+00 -0.45593999997E+02  0.45594000000E+02  0.51100000000E-03 0. -1.
    9900012    2    1    2    0    0 -0.67660916096E+01  0.27010026004E+02 -0.29628435878E+02  0.50528859416E+02  0.29999998681E+02 0.  0.
        -12    1    1    2    0    0  0.67660916096E+01 -0.27010026004E+02  0.29628435878E+02  0.40659140584E+02  0.00000000000E+00 0.  1.
         11    1    3    3    0    0 -0.29616633104E+01  0.25044864486E+02 -0.17732722438E+02  0.30829630747E+02  0.51100000000E-03 0. -1.
        -11    1    3    3    0    0 -0.85963427284E+01  0.50548710868E+01 -0.69978112038E+01  0.12182700518E+02  0.51100000000E-03 0.  1.
         12    1    3    3    0    0  0.47919144292E+01 -0.30897095691E+01 -0.48979022367E+01  0.75165281506E+01  0.00000000000E+00 0. -1.
</event>
<event>
 7    1  0.9930326E-013  0.5052887E+02  0.7816164E-02  0.1300439E+00
        -11   -1    0    0    0    0  0.00000000000E+00  0.00000000000E+00  0.45593999997E+02  0.45594000000E+02  0.51100000000E-03 0.  1.
         11   -1    0    0    0    0 -0.00000000000E+00 -0.00000000000E+00 -0.45593999997E+02  0.45594000000E+02  0.51100000000E-03 0. -1.
    9900012    2    1    2    0    0 -0.35071027417E+02 -0.10831562622E+02 -0.17489008976E+02  0.50528866365E+02  0.30000019804E+02 0.  0.
        -12    1    1    2    0    0  0.35071027417E+02  0.10831562622E+02  0.17489008976E+02  0.40659133635E+02  0.00000000000E+00 0.  1.
         11    1    3    3    0    0 -0.33622839267E+00 -0.92806913740E+01 -0.15778043811E+01  0.94198592791E+01  0.51100000000E-03 0. -1.
        -11    1    3    3    0    0 -0.16577051366E+02 -0.12673591439E+00  0.51059431969E+00  0.16585397216E+02  0.51100000000E-03 0.  1.
         12    1    3    3    0    0 -0.18157747658E+02 -0.14241353337E+01 -0.16421798915E+02  0.24523609870E+02  0.00000000000E+00 0. -1.
</event>
<event>
 7    1  0.9930326E-013  0.5052887E+02  0.7816164E-02  0.1300439E+00
        -11   -1    0    0    0    0  0.00000000000E+00  0.00000000000E+00  0.45593999997E+02  0.45594000000E+02  0.51100000000E-03 0.  1.
         11   -1    0    0    0    0 -0.00000000000E+00 -0.00000000000E+00 -0.45593999997E+02  0.45594000000E+02  0.51100000000E-03 0. -1.
    9900012    2    1    2    0    0 -0.22551512843E+02 -0.11079628398E+02 -0.31966163191E+02  0.50528874504E+02  0.30000044542E+02 0.  0.
        -12    1    1    2    0    0  0.22551512843E+02  0.11079628398E+02  0.31966163191E+02  0.40659125496E+02  0.00000000000E+00 0.  1.
         11    1    3    3    0    0 -0.11326817600E+02 -0.13434341299E+01 -0.17826751849E+02  0.21163522721E+02  0.51100000000E-03 0. -1.
        -11    1    3    3    0    0 -0.17300931181E+01 -0.14558665913E+02 -0.55227948513E+01  0.15666819671E+02  0.51100000000E-03 0.  1.
        -12    1    3    3    0    0 -0.94946021247E+01  0.48224716454E+01 -0.86166164909E+01  0.13698532112E+02  0.00000000000E+00 0.  1.
</event>
<event>
 7    1  0.9930326E-013  0.5052886E+02  0.7816164E-02  0.1300439E+00
        -11   -1    0    0    0    0  0.00000000000E+00  0.00000000000E+00  0.45593999997E+02  0.45594000000E+02  0.51100000000E-03 0. -1.
         11   -1    0    0    0    0 -0.00000000000E+00 -0.00000000000E+00 -0.45593999997E+02  0.45594000000E+02  0.51100000000E-03 0.  1.
    9900012    2    1    2    0    0 -0.13078197207E+02 -0.37644364340E+02 -0.80640064437E+01  0.50528860699E+02  0.30000002582E+02 0.  0.
        -12    1    1    2    0    0  0.13078197207E+02  0.37644364340E+02  0.80640064437E+01  0.40659139301E+02  0.00000000000E+00 0.  1.
         11    1    3    3    0    0 -0.16404928250E+02 -0.20377049741E+02  0.46280344183E+01  0.26566229124E+02  0.51100000000E-03 0. -1.
        -11    1    3    3    0    0  0.60298922872E+01 -0.80099806541E+01 -0.94791437463E+01  0.13797592453E+02  0.51100000000E-03 0.  1.
        -12    1    3    3    0    0 -0.27031612436E+01 -0.92573339451E+01 -0.32128971157E+01  0.10165039122E+02  0.00000000000E+00 0.  1.
</event>
<event>
 7    1  0.9930326E-013  0.5052889E+02  0.7816164E-02  0.1300439E+00
        -11   -1    0    0    0    0  0.00000000000E+00  0.00000000000E+00  0.45593999997E+02  0.45594000000E+02  0.51100000000E-03 0. -1.
         11   -1    0    0    0    0 -0.00000000000E+00 -0.00000000000E+00 -0.45593999997E+02  0.45594000000E+02  0.51100000000E-03 0.  1.
    9900012    2    1    2    0    0  0.13879093860E+02 -0.34105557934E+02  0.17243695436E+02  0.50528888344E+02  0.30000086610E+02 0.  0.
        -12    1    1    2    0    0 -0.13879093860E+02  0.34105557934E+02 -0.17243695436E+02  0.40659111656E+02  0.00000000000E+00 0.  1.
         11    1    3    3    0    0 -0.68924783797E+01 -0.21463958913E+02  0.82326393402E+01  0.23999669606E+02  0.51100000000E-03 0. -1.
        -11    1    3    3    0    0  0.13140325538E+02 -0.71068828091E+01  0.82643616748E+01  0.17072656872E+02  0.51100000000E-03 0.  1.
         12    1    3    3    0    0  0.76312467018E+01 -0.55347162117E+01  0.74669442111E+00  0.94565618660E+01  0.00000000000E+00 0. -1.
</event>
<event>
 7    1  0.9930326E-013  0.5052886E+02  0.7816164E-02  0.1300439E+00
        -11   -1    0    0    0    0  0.00000000000E+00  0.00000000000E+00  0.45593999997E+02  0.45594000000E+02  0.51100000000E-03 0.  1.
         11   -1    0    0    0    0 -0.00000000000E+00 -0.00000000000E+00 -0.45593999997E+02  0.45594000000E+02  0.51100000000E-03 0. -1.
    9900012    2    1    2    0    0  0.62319979182E+01 -0.25625842348E+02 -0.30945830107E+02  0.50528855948E+02  0.29999988138E+02 0.  0.
        -12    1    1    2    0    0 -0.62319979182E+01  0.25625842348E+02  0.30945830107E+02  0.40659144052E+02  0.00000000000E+00 0.  1.
         11    1    3    3    0    0  0.13362160646E+02 -0.91667074600E+01 -0.71264235734E+01  0.17702027454E+02  0.51100000000E-03 0. -1.
        -11    1    3    3    0    0 -0.68665756682E+01 -0.16127411222E+01 -0.41561219413E+01  0.81868275410E+01  0.51100000000E-03 0.  1.
         12    1    3    3    0    0 -0.26358705938E+00 -0.14846393766E+02 -0.19663284592E+02  0.24640000952E+02  0.00000000000E+00 0. -1.
</event>
<event>
 7    1  0.9930326E-013  0.5052886E+02  0.7816164E-02  0.1300439E+00
        -11   -1    0    0    0    0  0.00000000000E+00  0.00000000000E+00  0.45593999997E+02  0.45594000000E+02  0.51100000000E-03 0.  1.
         11   -1    0    0    0    0 -0.00000000000E+00 -0.00000000000E+00 -0.45593999997E+02  0.45594000000E+02  0.51100000000E-03 0. -1.
    9900012    2    1    2    0    0  0.31996058733E+02  0.12562346295E+02 -0.21716483573E+02  0.50528856162E+02  0.29999988790E+02 0.  0.
        -12    1    1    2    0    0 -0.31996058733E+02 -0.12562346295E+02  0.21716483573E+02  0.40659143838E+02  0.00000000000E+00 0.  1.
         11    1    3    3    0    0  0.13628765937E+02 -0.58191027434E+01  0.55646652540E+00  0.14829527065E+02  0.51100000000E-03 0. -1.
        -11    1    3    3    0    0  0.14754982038E+02  0.14648271758E+02 -0.11549453149E+02  0.23783843859E+02  0.51100000000E-03 0.  1.
        -12    1    3    3    0    0  0.36123107576E+01  0.37331772805E+01 -0.10723496950E+02  0.11915485238E+02  0.00000000000E+00 0.  1.
</event>
<event>
 7    1  0.9930326E-013  0.5052885E+02  0.7816164E-02  0.1300439E+00
        -11   -1    0    0    0    0  0.00000000000E+00  0.00000000000E+00  0.45593999997E+02  0.45594000000E+02  0.51100000000E-03 0.  1.
         11   -1    0    0    0    0 -0.00000000000E+00 -0.00000000000E+00 -0.45593999997E+02  0.45594000000E+02  0.51100000000E-03 0. -1.
    9900012    2    1    2    0    0 -0.10267199826E+02  0.37169863371E+02 -0.12890004052E+02  0.50528851709E+02  0.29999975255E+02 0.  0.
        -12    1    1    2    0    0  0.10267199826E+02 -0.37169863371E+02  0.12890004052E+02  0.40659148291E+02  0.00000000000E+00 0.  1.
         11    1    3    3    0    0 -0.62906466906E+01  0.20050736488E+01 -0.63486746388E+01  0.91595974832E+01  0.51100000000E-03 0. -1.
        -11    1    3    3    0    0  0.82752125443E+01  0.17207157085E+02 -0.24764794402E+01  0.19253528204E+02  0.51100000000E-03 0.  1.
        -12    1    3    3    0    0 -0.12251765680E+02  0.17957632637E+02 -0.40648499732E+01  0.22115726022E+02  0.00000000000E+00 0.  1.
</event>
<event>
 7    1  0.9930326E-013  0.5052882E+02  0.7816164E-02  0.1300439E+00
        -11   -1    0    0    0    0  0.00000000000E+00  0.00000000000E+00  0.45593999997E+02  0.45594000000E+02  0.51100000000E-03 0.  1.
         11   -1    0    0    0    0 -0.00000000000E+00 -0.00000000000E+00 -0.45593999997E+02  0.45594000000E+02  0.51100000000E-03 0. -1.
    9900012    2    1    2    0    0 -0.91507499551E+01 -0.15480282362E+02 -0.36466339251E+02  0.50528815735E+02  0.29999865907E+02 0.  0.
        -12    1    1    2    0    0  0.91507499551E+01  0.15480282362E+02  0.36466339251E+02  0.40659184265E+02  0.00000000000E+00 0.  1.
         11    1    3    3    0    0 -0.10066721692E+02  0.57997487134E+01 -0.81511191884E+01  0.14192135676E+02  0.51100000000E-03 0.  1.
        -11    1    3    3    0    0 -0.28614898910E+01 -0.16027949503E+02 -0.20972766466E+02  0.26550710408E+02  0.51100000000E-03 0. -1.
        -12    1    3    3    0    0  0.37774616277E+01 -0.52520815729E+01 -0.73424535959E+01  0.97859696507E+01  0.00000000000E+00 0.  1.
</event>
<event>
 7    1  0.9930326E-013  0.5052886E+02  0.7816164E-02  0.1300439E+00
        -11   -1    0    0    0    0  0.00000000000E+00  0.00000000000E+00  0.45593999997E+02  0.45594000000E+02  0.51100000000E-03 0.  1.
         11   -1    0    0    0    0 -0.00000000000E+00 -0.00000000000E+00 -0.45593999997E+02  0.45594000000E+02  0.51100000000E-03 0. -1.
    9900012    2    1    2    0    0 -0.33248107845E+02  0.74704955525E+01 -0.22179284957E+02  0.50528860064E+02  0.30000000652E+02 0.  0.
        -12    1    1    2    0    0  0.33248107845E+02 -0.74704955525E+01  0.22179284957E+02  0.40659139936E+02  0.00000000000E+00 0.  1.
         11    1    3    3    0    0 -0.20697389608E+02 -0.46389026467E+01 -0.11920642747E+02  0.24331113376E+02  0.51100000000E-03 0. -1.
        -11    1    3    3    0    0 -0.85426820227E+01  0.10579453461E+02 -0.14698586701E+02  0.20023753468E+02  0.51100000000E-03 0.  1.
         12    1    3    3    0    0 -0.40080362145E+01  0.15299447385E+01  0.44399444914E+01  0.61739932205E+01  0.00000000000E+00 0. -1.
</event>
<event>
 7    1  0.9930326E-013  0.5052886E+02  0.7816164E-02  0.1300439E+00
        -11   -1    0    0    0    0  0.00000000000E+00  0.00000000000E+00  0.45593999997E+02  0.45594000000E+02  0.51100000000E-03 0. -1.
         11   -1    0    0    0    0 -0.00000000000E+00 -0.00000000000E+00 -0.45593999997E+02  0.45594000000E+02  0.51100000000E-03 0.  1.
    9900012    2    1    2    0    0 -0.40244076622E+02  0.47116779533E+01 -0.33733975897E+01  0.50528862975E+02  0.30000009499E+02 0.  0.
        -12    1    1    2    0    0  0.40244076622E+02 -0.47116779533E+01  0.33733975897E+01  0.40659137025E+02  0.00000000000E+00 0.  1.
         11    1    3    3    0    0 -0.12163430652E+01 -0.76330641296E+01 -0.17663084874E+01  0.79286193245E+01  0.51100000000E-03 0. -1.
        -11    1    3    3    0    0 -0.28416466754E+02  0.10948931682E+02 -0.59874705764E+01  0.31035858163E+02  0.51100000000E-03 0.  1.
         12    1    3    3    0    0 -0.10611266803E+02  0.13958104009E+01  0.43803814741E+01  0.11564385488E+02  0.00000000000E+00 0. -1.
</event>
<event>
 7    1  0.9930326E-013  0.5052887E+02  0.7816164E-02  0.1300439E+00
        -11   -1    0    0    0    0  0.00000000000E+00  0.00000000000E+00  0.45593999997E+02  0.45594000000E+02  0.51100000000E-03 0. -1.
         11   -1    0    0    0    0 -0.00000000000E+00 -0.00000000000E+00 -0.45593999997E+02  0.45594000000E+02  0.51100000000E-03 0.  1.
    9900012    2    1    2    0    0  0.55203719703E+01 -0.21116415171E+02  0.34304338464E+02  0.50528866539E+02  0.30000020332E+02 0.  0.
        -12    1    1    2    0    0 -0.55203719703E+01  0.21116415171E+02 -0.34304338464E+02  0.40659133461E+02  0.00000000000E+00 0.  1.
         11    1    3    3    0    0 -0.37165787659E+01 -0.11053130276E+02  0.28244501936E+02  0.30557102882E+02  0.51100000000E-03 0. -1.
        -11    1    3    3    0    0  0.88504193942E+01 -0.18388388961E+01  0.73337918041E+01  0.11640264362E+02  0.51100000000E-03 0.  1.
         12    1    3    3    0    0  0.38653134200E+00 -0.82244459983E+01 -0.12739552763E+01  0.83314992951E+01  0.00000000000E+00 0. -1.
</event>
<event>
 7    1  0.9930326E-013  0.5052886E+02  0.7816164E-02  0.1300439E+00
        -11   -1    0    0    0    0  0.00000000000E+00  0.00000000000E+00  0.45593999997E+02  0.45594000000E+02  0.51100000000E-03 0. -1.
         11   -1    0    0    0    0 -0.00000000000E+00 -0.00000000000E+00 -0.45593999997E+02  0.45594000000E+02  0.51100000000E-03 0.  1.
    9900012    2    1    2    0    0 -0.29536510313E+02 -0.24366522874E+02  0.13675983390E+02  0.50528863264E+02  0.30000010378E+02 0.  0.
        -12    1    1    2    0    0  0.29536510313E+02  0.24366522874E+02 -0.13675983390E+02  0.40659136736E+02  0.00000000000E+00 0.  1.
         11    1    3    3    0    0 -0.18677551250E+02 -0.89525514825E+01  0.12045017639E+02  0.23959998934E+02  0.51100000000E-03 0. -1.
        -11    1    3    3    0    0 -0.51326708672E+01 -0.87885168131E+01 -0.84408823332E+01  0.13222361091E+02  0.51100000000E-03 0.  1.
        -12    1    3    3    0    0 -0.57262881957E+01 -0.66254545783E+01  0.10071848085E+02  0.13346503239E+02  0.00000000000E+00 0.  1.
</event>
<event>
 7    1  0.9930326E-013  0.5052886E+02  0.7816164E-02  0.1300439E+00
        -11   -1    0    0    0    0  0.00000000000E+00  0.00000000000E+00  0.45593999997E+02  0.45594000000E+02  0.51100000000E-03 0. -1.
         11   -1    0    0    0    0 -0.00000000000E+00 -0.00000000000E+00 -0.45593999997E+02  0.45594000000E+02  0.51100000000E-03 0.  1.
    9900012    2    1    2    0    0  0.36273302321E+02 -0.38648893595E+01  0.17957603984E+02  0.50528863611E+02  0.30000011432E+02 0.  0.
        -12    1    1    2    0    0 -0.36273302321E+02  0.38648893595E+01 -0.17957603984E+02  0.40659136389E+02  0.00000000000E+00 0.  1.
         11    1    3    3    0    0  0.30785869648E+01 -0.79913230734E+01  0.99340264045E+01  0.13115785262E+02  0.51100000000E-03 0. -1.
        -11    1    3    3    0    0  0.90460885506E+01  0.79751460771E+01  0.19446090317E+01  0.12215407384E+02  0.51100000000E-03 0.  1.
         12    1    3    3    0    0  0.24148626806E+02 -0.38487123631E+01  0.60789685474E+01  0.25197670965E+02  0.00000000000E+00 0. -1.
</event>
<event>
 7    1  0.9930326E-013  0.5052886E+02  0.7816164E-02  0.1300439E+00
        -11   -1    0    0    0    0  0.00000000000E+00  0.00000000000E+00  0.45593999997E+02  0.45594000000E+02  0.51100000000E-03 0. -1.
         11   -1    0    0    0    0 -0.00000000000E+00 -0.00000000000E+00 -0.45593999997E+02  0.45594000000E+02  0.51100000000E-03 0.  1.
    9900012    2    1    2    0    0 -0.33904088694E+02 -0.62107911433E+01  0.21566283880E+02  0.50528858873E+02  0.29999997030E+02 0.  0.
        -12    1    1    2    0    0  0.33904088694E+02  0.62107911433E+01 -0.21566283880E+02  0.40659141127E+02  0.00000000000E+00 0.  1.
         11    1    3    3    0    0 -0.19730014626E+02  0.88549461746E+01  0.92896333353E+01  0.23536797502E+02  0.51100000000E-03 0. -1.
        -11    1    3    3    0    0 -0.11721344848E+02 -0.66168468715E+01  0.12241709670E+02  0.18194286012E+02  0.51100000000E-03 0.  1.
         12    1    3    3    0    0 -0.24527292201E+01 -0.84488904463E+01  0.34940874155E-01  0.87977753589E+01  0.00000000000E+00 0. -1.
</event>
<event>
 7    1  0.9930326E-013  0.5052888E+02  0.7816164E-02  0.1300439E+00
        -11   -1    0    0    0    0  0.00000000000E+00  0.00000000000E+00  0.45593999997E+02  0.45594000000E+02  0.51100000000E-03 0. -1.
         11   -1    0    0    0    0 -0.00000000000E+00 -0.00000000000E+00 -0.45593999997E+02  0.45594000000E+02  0.51100000000E-03 0.  1.
    9900012    2    1    2    0    0 -0.26405411156E+02  0.25084180438E+02  0.18074916164E+02  0.50528875059E+02  0.30000046230E+02 0.  0.
        -12    1    1    2    0    0  0.26405411156E+02 -0.25084180438E+02 -0.18074916164E+02  0.40659124941E+02  0.00000000000E+00 0.  1.
         11    1    3    3    0    0 -0.12337693349E+02  0.64273688119E+01  0.60847623913E+01  0.15184007397E+02  0.51100000000E-03 0. -1.
        -11    1    3    3    0    0  0.39748176899E+01  0.14012363774E+02  0.42727273303E+01  0.15178989205E+02  0.51100000000E-03 0.  1.
        -12    1    3    3    0    0 -0.18042535498E+02  0.46444478525E+01  0.77174264428E+01  0.20165878457E+02  0.00000000000E+00 0.  1.
</event>
<event>
 7    1  0.9930326E-013  0.5052883E+02  0.7816164E-02  0.1300439E+00
        -11   -1    0    0    0    0  0.00000000000E+00  0.00000000000E+00  0.45593999997E+02  0.45594000000E+02  0.51100000000E-03 0.  1.
         11   -1    0    0    0    0 -0.00000000000E+00 -0.00000000000E+00 -0.45593999997E+02  0.45594000000E+02  0.51100000000E-03 0. -1.
    9900012    2    1    2    0    0  0.42565356724E+01 -0.39594719667E+02 -0.82041323002E+01  0.50528834880E+02  0.29999924102E+02 0.  0.
        -12    1    1    2    0    0 -0.42565356724E+01  0.39594719667E+02  0.82041323002E+01  0.40659165120E+02  0.00000000000E+00 0.  1.
         11    1    3    3    0    0 -0.63789993863E+00 -0.34226345558E+02 -0.16194663495E+02  0.37869734256E+02  0.51100000000E-03 0. -1.
        -11    1    3    3    0    0  0.56594292464E+01 -0.18818467233E+01  0.34731463528E+01  0.69016832972E+01  0.51100000000E-03 0.  1.
         12    1    3    3    0    0 -0.76499363541E+00 -0.34865273854E+01  0.45173848423E+01  0.57574173276E+01  0.00000000000E+00 0. -1.
</event>
<event>
 7    1  0.9930326E-013  0.5052886E+02  0.7816164E-02  0.1300439E+00
        -11   -1    0    0    0    0  0.00000000000E+00  0.00000000000E+00  0.45593999997E+02  0.45594000000E+02  0.51100000000E-03 0.  1.
         11   -1    0    0    0    0 -0.00000000000E+00 -0.00000000000E+00 -0.45593999997E+02  0.45594000000E+02  0.51100000000E-03 0. -1.
    9900012    2    1    2    0    0  0.14428459195E+01  0.37007632921E+02 -0.16778521725E+02  0.50528862159E+02  0.30000007017E+02 0.  0.
        -12    1    1    2    0    0 -0.14428459195E+01 -0.37007632921E+02  0.16778521725E+02  0.40659137841E+02  0.00000000000E+00 0.  1.
         11    1    3    3    0    0  0.43337944672E+01  0.33887860290E+02 -0.66202076211E+01  0.34799367792E+02  0.51100000000E-03 0. -1.
        -11    1    3    3    0    0  0.16690601837E+01 -0.34910931017E+01 -0.43260035663E+01  0.58041192319E+01  0.51100000000E-03 0.  1.
         12    1    3    3    0    0 -0.45600087315E+01  0.66108657327E+01 -0.58323105373E+01  0.99253751350E+01  0.00000000000E+00 0. -1.
</event>
<event>
 7    1  0.9930326E-013  0.5052886E+02  0.7816164E-02  0.1300439E+00
        -11   -1    0    0    0    0  0.00000000000E+00  0.00000000000E+00  0.45593999997E+02  0.45594000000E+02  0.51100000000E-03 0.  1.
         11   -1    0    0    0    0 -0.00000000000E+00 -0.00000000000E+00 -0.45593999997E+02  0.45594000000E+02  0.51100000000E-03 0. -1.
    9900012    2    1    2    0    0  0.24968427784E+02 -0.22553119575E+01 -0.32010260623E+02  0.50528860767E+02  0.30000002789E+02 0.  0.
        -12    1    1    2    0    0 -0.24968427784E+02  0.22553119575E+01  0.32010260623E+02  0.40659139233E+02  0.00000000000E+00 0.  1.
         11    1    3    3    0    0  0.65044640821E+01  0.57695524767E+01 -0.20052891562E+02  0.21856675160E+02  0.51100000000E-03 0. -1.
        -11    1    3    3    0    0  0.61598341172E+01 -0.63684733431E+01  0.28887234449E+01  0.93191057766E+01  0.51100000000E-03 0.  1.
         12    1    3    3    0    0  0.12304129584E+02 -0.16563910910E+01 -0.14846092505E+02  0.19353079831E+02  0.00000000000E+00 0. -1.
</event>
<event>
 7    1  0.9930326E-013  0.5052883E+02  0.7816164E-02  0.1300439E+00
        -11   -1    0    0    0    0  0.00000000000E+00  0.00000000000E+00  0.45593999997E+02  0.45594000000E+02  0.51100000000E-03 0. -1.
         11   -1    0    0    0    0 -0.00000000000E+00 -0.00000000000E+00 -0.45593999997E+02  0.45594000000E+02  0.51100000000E-03 0.  1.
    9900012    2    1    2    0    0  0.21783661500E+02  0.30957343752E+02  0.14841922691E+02  0.50528834862E+02  0.29999924048E+02 0.  0.
        -12    1    1    2    0    0 -0.21783661500E+02 -0.30957343752E+02 -0.14841922691E+02  0.40659165138E+02  0.00000000000E+00 0.  1.
         11    1    3    3    0    0 -0.10780681128E+01  0.14878217451E+02 -0.70755770847E+00  0.14933995565E+02  0.51100000000E-03 0. -1.
        -11    1    3    3    0    0  0.19169410569E+02  0.63626296171E+01  0.50479877483E+01  0.20819018656E+02  0.51100000000E-03 0.  1.
         12    1    3    3    0    0  0.36923190431E+01  0.97164966842E+01  0.10501492651E+02  0.14775820641E+02  0.00000000000E+00 0. -1.
</event>
<event>
 7    1  0.9930326E-013  0.5052886E+02  0.7816164E-02  0.1300439E+00
        -11   -1    0    0    0    0  0.00000000000E+00  0.00000000000E+00  0.45593999997E+02  0.45594000000E+02  0.51100000000E-03 0. -1.
         11   -1    0    0    0    0 -0.00000000000E+00 -0.00000000000E+00 -0.45593999997E+02  0.45594000000E+02  0.51100000000E-03 0.  1.
    9900012    2    1    2    0    0 -0.29697585743E+02 -0.16601334024E+02  0.22262403971E+02  0.50528861779E+02  0.30000005863E+02 0.  0.
        -12    1    1    2    0    0  0.29697585743E+02  0.16601334024E+02 -0.22262403971E+02  0.40659138221E+02  0.00000000000E+00 0.  1.
         11    1    3    3    0    0 -0.17506371298E+02 -0.14871056299E+02  0.13098623111E+02  0.26442300943E+02  0.51100000000E-03 0. -1.
        -11    1    3    3    0    0  0.19985658179E+00  0.65028829709E+01  0.60562812154E+01  0.88885303627E+01  0.51100000000E-03 0.  1.
        -12    1    3    3    0    0 -0.12391071027E+02 -0.82331606960E+01  0.31074996445E+01  0.15198030473E+02  0.00000000000E+00 0.  1.
</event>
<event>
 7    1  0.9930326E-013  0.5052886E+02  0.7816164E-02  0.1300439E+00
        -11   -1    0    0    0    0  0.00000000000E+00  0.00000000000E+00  0.45593999997E+02  0.45594000000E+02  0.51100000000E-03 0.  1.
         11   -1    0    0    0    0 -0.00000000000E+00 -0.00000000000E+00 -0.45593999997E+02  0.45594000000E+02  0.51100000000E-03 0. -1.
    9900012    2    1    2    0    0 -0.65970221387E+01 -0.13859150659E+02 -0.37650621037E+02  0.50528855610E+02  0.29999987111E+02 0.  0.
        -12    1    1    2    0    0  0.65970221387E+01  0.13859150659E+02  0.37650621037E+02  0.40659144390E+02  0.00000000000E+00 0.  1.
         11    1    3    3    0    0 -0.92617545320E+01 -0.12458257331E+02 -0.32509861278E+02  0.36026092673E+02  0.51100000000E-03 0. -1.
        -11    1    3    3    0    0  0.61182484319E+01  0.26885533100E+01 -0.61194779759E+01  0.90614178655E+01  0.51100000000E-03 0.  1.
         12    1    3    3    0    0 -0.34535160386E+01 -0.40894466379E+01  0.97871821651E+00  0.54413450709E+01  0.00000000000E+00 0. -1.
</event>
<event>
 7    1  0.9930326E-013  0.5052886E+02  0.7816164E-02  0.1300439E+00
        -11   -1    0    0    0    0  0.00000000000E+00  0.00000000000E+00  0.45593999997E+02  0.45594000000E+02  0.51100000000E-03 0.  1.
         11   -1    0    0    0    0 -0.00000000000E+00 -0.00000000000E+00 -0.45593999997E+02  0.45594000000E+02  0.51100000000E-03 0. -1.
    9900012    2    1    2    0    0 -0.25745098758E+02 -0.23925179376E+02  0.20443615959E+02  0.50528858940E+02  0.29999997235E+02 0.  0.
        -12    1    1    2    0    0  0.25745098758E+02  0.23925179376E+02 -0.20443615959E+02  0.40659141060E+02  0.00000000000E+00 0.  1.
         11    1    3    3    0    0 -0.58021318091E+01 -0.13320136110E+02  0.10597423324E+02  0.17983218313E+02  0.51100000000E-03 0. -1.
        -11    1    3    3    0    0 -0.23677640320E+02 -0.86988661508E+01  0.42937309265E+01  0.25587830095E+02  0.51100000000E-03 0.  1.
        -12    1    3    3    0    0  0.37346733713E+01 -0.19061771159E+01  0.55524617085E+01  0.69578105329E+01  0.00000000000E+00 0.  1.
</event>
<event>
 7    1  0.9930326E-013  0.5052885E+02  0.7816164E-02  0.1300439E+00
        -11   -1    0    0    0    0  0.00000000000E+00  0.00000000000E+00  0.45593999997E+02  0.45594000000E+02  0.51100000000E-03 0. -1.
         11   -1    0    0    0    0 -0.00000000000E+00 -0.00000000000E+00 -0.45593999997E+02  0.45594000000E+02  0.51100000000E-03 0.  1.
    9900012    2    1    2    0    0 -0.30681937004E+02  0.10297458355E+02  0.24611946965E+02  0.50528845554E+02  0.29999956545E+02 0.  0.
        -12    1    1    2    0    0  0.30681937004E+02 -0.10297458355E+02 -0.24611946965E+02  0.40659154446E+02  0.00000000000E+00 0.  1.
         11    1    3    3    0    0 -0.15149573053E+02  0.12556080138E-01 -0.11734987547E+01  0.15194960379E+02  0.51100000000E-03 0. -1.
        -11    1    3    3    0    0 -0.10373577401E+02  0.10061913661E+02  0.26437144686E+02  0.30129318513E+02  0.51100000000E-03 0.  1.
        -12    1    3    3    0    0 -0.51587865499E+01  0.22298861408E+00 -0.65169896697E+00  0.52045666614E+01  0.00000000000E+00 0.  1.
</event>
<event>
 7    1  0.9930326E-013  0.5052886E+02  0.7816164E-02  0.1300439E+00
        -11   -1    0    0    0    0  0.00000000000E+00  0.00000000000E+00  0.45593999997E+02  0.45594000000E+02  0.51100000000E-03 0.  1.
         11   -1    0    0    0    0 -0.00000000000E+00 -0.00000000000E+00 -0.45593999997E+02  0.45594000000E+02  0.51100000000E-03 0. -1.
    9900012    2    1    2    0    0 -0.25182020685E+02 -0.91562242981E+01 -0.30580959847E+02  0.50528859400E+02  0.29999998633E+02 0.  0.
        -12    1    1    2    0    0  0.25182020685E+02  0.91562242981E+01  0.30580959847E+02  0.40659140600E+02  0.00000000000E+00 0.  1.
         11    1    3    3    0    0 -0.20455179114E+02 -0.15996757589E+02 -0.98963978403E+01  0.27789373804E+02  0.51100000000E-03 0. -1.
        -11    1    3    3    0    0 -0.54557681756E+01  0.60627236649E+01 -0.16293323391E+02  0.18220713817E+02  0.51100000000E-03 0.  1.
         12    1    3    3    0    0  0.72892660502E+00  0.77780962637E+00 -0.43912386157E+01  0.45187717790E+01  0.00000000000E+00 0. -1.
</event>
<event>
 7    1  0.9930326E-013  0.5052887E+02  0.7816164E-02  0.1300439E+00
        -11   -1    0    0    0    0  0.00000000000E+00  0.00000000000E+00  0.45593999997E+02  0.45594000000E+02  0.51100000000E-03 0.  1.
         11   -1    0    0    0    0 -0.00000000000E+00 -0.00000000000E+00 -0.45593999997E+02  0.45594000000E+02  0.51100000000E-03 0. -1.
    9900012    2    1    2    0    0 -0.16537801392E+01 -0.72724232869E+01 -0.39969264553E+02  0.50528865256E+02  0.30000016433E+02 0.  0.
        -12    1    1    2    0    0  0.16537801392E+01  0.72724232869E+01  0.39969264553E+02  0.40659134744E+02  0.00000000000E+00 0.  1.
         11    1    3    3    0    0 -0.13294338423E+01 -0.99603444425E+01 -0.15716489511E+02  0.18654326538E+02  0.51100000000E-03 0. -1.
        -11    1    3    3    0    0 -0.99496373196E+01  0.42388662767E+01 -0.11045037337E+02  0.15458205592E+02  0.51100000000E-03 0.  1.
         12    1    3    3    0    0  0.96252910227E+01 -0.15509451210E+01 -0.13207737705E+02  0.16416333126E+02  0.00000000000E+00 0. -1.
</event>
<event>
 7    1  0.9930326E-013  0.5052887E+02  0.7816164E-02  0.1300439E+00
        -11   -1    0    0    0    0  0.00000000000E+00  0.00000000000E+00  0.45593999997E+02  0.45594000000E+02  0.51100000000E-03 0.  1.
         11   -1    0    0    0    0 -0.00000000000E+00 -0.00000000000E+00 -0.45593999997E+02  0.45594000000E+02  0.51100000000E-03 0. -1.
    9900012    2    1    2    0    0 -0.26976589016E+02  0.79336488832E+01 -0.29368107921E+02  0.50528869384E+02  0.30000028980E+02 0.  0.
        -12    1    1    2    0    0  0.26976589016E+02 -0.79336488832E+01  0.29368107921E+02  0.40659130616E+02  0.00000000000E+00 0.  1.
         11    1    3    3    0    0 -0.13969680370E+02  0.92193842679E+01 -0.85229107179E+01  0.18782678810E+02  0.51100000000E-03 0. -1.
        -11    1    3    3    0    0 -0.57387104677E-01  0.52805496455E+00 -0.18443963314E+02  0.18451610182E+02  0.51100000000E-03 0.  1.
        -12    1    3    3    0    0 -0.12949521542E+02 -0.18137903493E+01 -0.24012338894E+01  0.13294580392E+02  0.00000000000E+00 0.  1.
</event>
<event>
 7    1  0.9930326E-013  0.5052886E+02  0.7816164E-02  0.1300439E+00
        -11   -1    0    0    0    0  0.00000000000E+00  0.00000000000E+00  0.45593999997E+02  0.45594000000E+02  0.51100000000E-03 0.  1.
         11   -1    0    0    0    0 -0.00000000000E+00 -0.00000000000E+00 -0.45593999997E+02  0.45594000000E+02  0.51100000000E-03 0. -1.
    9900012    2    1    2    0    0  0.26787133513E+02 -0.30162497474E+02 -0.50831852964E+01  0.50528861440E+02  0.30000004832E+02 0.  0.
        -12    1    1    2    0    0 -0.26787133513E+02  0.30162497474E+02  0.50831852964E+01  0.40659138560E+02  0.00000000000E+00 0.  1.
         11    1    3    3    0    0  0.15826823391E+01 -0.91111792416E+01  0.12745155943E+01  0.93350340557E+01  0.51100000000E-03 0. -1.
        -11    1    3    3    0    0  0.15533829158E+02 -0.96647299474E+01 -0.15242288768E+02  0.23812480350E+02  0.51100000000E-03 0.  1.
        -12    1    3    3    0    0  0.96706220155E+01 -0.11386588285E+02  0.88845878777E+01  0.17381347034E+02  0.00000000000E+00 0.  1.
</event>
<event>
 7    1  0.9930326E-013  0.5052886E+02  0.7816164E-02  0.1300439E+00
        -11   -1    0    0    0    0  0.00000000000E+00  0.00000000000E+00  0.45593999997E+02  0.45594000000E+02  0.51100000000E-03 0. -1.
         11   -1    0    0    0    0 -0.00000000000E+00 -0.00000000000E+00 -0.45593999997E+02  0.45594000000E+02  0.51100000000E-03 0.  1.
    9900012    2    1    2    0    0  0.25276238626E+02 -0.29716627216E+02  0.11454228271E+02  0.50528861821E+02  0.30000005990E+02 0.  0.
        -12    1    1    2    0    0 -0.25276238626E+02  0.29716627216E+02 -0.11454228271E+02  0.40659138179E+02  0.00000000000E+00 0.  1.
         11    1    3    3    0    0  0.21785925198E+02 -0.97882004938E+01  0.43542661269E+01  0.24277459493E+02  0.51100000000E-03 0. -1.
        -11    1    3    3    0    0 -0.24691920707E+01  0.13544043770E+01 -0.53835026470E+00  0.28672533838E+01  0.51100000000E-03 0.  1.
         12    1    3    3    0    0  0.59595054988E+01 -0.21282831100E+02  0.76383124083E+01  0.23384148944E+02  0.00000000000E+00 0. -1.
</event>
<event>
 7    1  0.9930326E-013  0.5052886E+02  0.7816164E-02  0.1300439E+00
        -11   -1    0    0    0    0  0.00000000000E+00  0.00000000000E+00  0.45593999997E+02  0.45594000000E+02  0.51100000000E-03 0.  1.
         11   -1    0    0    0    0 -0.00000000000E+00 -0.00000000000E+00 -0.45593999997E+02  0.45594000000E+02  0.51100000000E-03 0. -1.
    9900012    2    1    2    0    0  0.23969540026E+02  0.24009400022E+02 -0.22409270911E+02  0.50528861283E+02  0.30000004356E+02 0.  0.
        -12    1    1    2    0    0 -0.23969540026E+02 -0.24009400022E+02  0.22409270911E+02  0.40659138717E+02  0.00000000000E+00 0.  1.
         11    1    3    3    0    0  0.11313697924E+02  0.88139876652E+01 -0.23236397626E+02  0.27305975796E+02  0.51100000000E-03 0. -1.
        -11    1    3    3    0    0  0.56981419698E+01 -0.61009814425E+00  0.15565194075E+01  0.59383326432E+01  0.51100000000E-03 0.  1.
         12    1    3    3    0    0  0.69577001324E+01  0.15805510501E+02 -0.72939269195E+00  0.17284552844E+02  0.00000000000E+00 0. -1.
</event>
<event>
 7    1  0.9930326E-013  0.5052887E+02  0.7816164E-02  0.1300439E+00
        -11   -1    0    0    0    0  0.00000000000E+00  0.00000000000E+00  0.45593999997E+02  0.45594000000E+02  0.51100000000E-03 0. -1.
         11   -1    0    0    0    0 -0.00000000000E+00 -0.00000000000E+00 -0.45593999997E+02  0.45594000000E+02  0.51100000000E-03 0.  1.
    9900012    2    1    2    0    0  0.31636680372E+02 -0.22180129801E+02  0.12662033988E+02  0.50528870550E+02  0.30000032523E+02 0.  0.
        -12    1    1    2    0    0 -0.31636680372E+02  0.22180129801E+02 -0.12662033988E+02  0.40659129450E+02  0.00000000000E+00 0.  1.
         11    1    3    3    0    0  0.26938371549E+02 -0.26621698741E+02  0.15802293226E+02  0.41037826173E+02  0.51100000000E-03 0. -1.
        -11    1    3    3    0    0  0.33061164243E+01  0.55478699062E+01 -0.73519185190E+00  0.64999825867E+01  0.51100000000E-03 0.  1.
         12    1    3    3    0    0  0.13921923986E+01 -0.11063009660E+01 -0.24050673857E+01  0.29910617900E+01  0.00000000000E+00 0. -1.
</event>
<event>
 7    1  0.9930326E-013  0.5052886E+02  0.7816164E-02  0.1300439E+00
        -11   -1    0    0    0    0  0.00000000000E+00  0.00000000000E+00  0.45593999997E+02  0.45594000000E+02  0.51100000000E-03 0.  1.
         11   -1    0    0    0    0 -0.00000000000E+00 -0.00000000000E+00 -0.45593999997E+02  0.45594000000E+02  0.51100000000E-03 0. -1.
    9900012    2    1    2    0    0  0.40274802449E+02 -0.12230159440E+01 -0.54415552312E+01  0.50528855842E+02  0.29999987819E+02 0.  0.
        -12    1    1    2    0    0 -0.40274802449E+02  0.12230159440E+01  0.54415552312E+01  0.40659144158E+02  0.00000000000E+00 0.  1.
         11    1    3    3    0    0  0.37140163952E+02 -0.65813175050E+01 -0.18710425961E+01  0.37765146884E+02  0.51100000000E-03 0. -1.
        -11    1    3    3    0    0 -0.14844517825E+01  0.76039983637E+00  0.30482745157E+01  0.34747349237E+01  0.51100000000E-03 0.  1.
         12    1    3    3    0    0  0.46190902793E+01  0.45979017247E+01 -0.66187871508E+01  0.92889740352E+01  0.00000000000E+00 0. -1.
</event>
<event>
 7    1  0.9930326E-013  0.5052886E+02  0.7816164E-02  0.1300439E+00
        -11   -1    0    0    0    0  0.00000000000E+00  0.00000000000E+00  0.45593999997E+02  0.45594000000E+02  0.51100000000E-03 0.  1.
         11   -1    0    0    0    0 -0.00000000000E+00 -0.00000000000E+00 -0.45593999997E+02  0.45594000000E+02  0.51100000000E-03 0. -1.
    9900012    2    1    2    0    0  0.31219600720E+02  0.23691585597E+02 -0.10826384373E+02  0.50528864547E+02  0.30000014276E+02 0.  0.
        -12    1    1    2    0    0 -0.31219600720E+02 -0.23691585597E+02  0.10826384373E+02  0.40659135453E+02  0.00000000000E+00 0.  1.
         11    1    3    3    0    0  0.91797314974E+01  0.83099101750E+01 -0.13267598940E+01  0.12453207200E+02  0.51100000000E-03 0. -1.
        -11    1    3    3    0    0 -0.27845539540E+01 -0.41148342798E+01 -0.31358255704E+01  0.58752875795E+01  0.51100000000E-03 0.  1.
        -12    1    3    3    0    0  0.24824423176E+02  0.19496509702E+02 -0.63637989092E+01  0.32200369767E+02  0.00000000000E+00 0.  1.
</event>
<event>
 7    1  0.9930326E-013  0.5052886E+02  0.7816164E-02  0.1300439E+00
        -11   -1    0    0    0    0  0.00000000000E+00  0.00000000000E+00  0.45593999997E+02  0.45594000000E+02  0.51100000000E-03 0.  1.
         11   -1    0    0    0    0 -0.00000000000E+00 -0.00000000000E+00 -0.45593999997E+02  0.45594000000E+02  0.51100000000E-03 0. -1.
    9900012    2    1    2    0    0  0.90226721052E+00 -0.39528635755E+02 -0.94783329090E+01  0.50528856803E+02  0.29999990739E+02 0.  0.
        -12    1    1    2    0    0 -0.90226721052E+00  0.39528635755E+02  0.94783329090E+01  0.40659143197E+02  0.00000000000E+00 0.  1.
         11    1    3    3    0    0 -0.13299130586E+02 -0.13532012645E+02 -0.44155979010E+01  0.19480239877E+02  0.51100000000E-03 0. -1.
        -11    1    3    3    0    0  0.70627474556E+01 -0.11193187274E+02  0.15657641915E+01  0.13327470155E+02  0.51100000000E-03 0.  1.
         12    1    3    3    0    0  0.71386503412E+01 -0.14803435836E+02 -0.66284991995E+01  0.17721146771E+02  0.00000000000E+00 0. -1.
</event>
<event>
 7    1  0.9930326E-013  0.5052886E+02  0.7816164E-02  0.1300439E+00
        -11   -1    0    0    0    0  0.00000000000E+00  0.00000000000E+00  0.45593999997E+02  0.45594000000E+02  0.51100000000E-03 0.  1.
         11   -1    0    0    0    0 -0.00000000000E+00 -0.00000000000E+00 -0.45593999997E+02  0.45594000000E+02  0.51100000000E-03 0. -1.
    9900012    2    1    2    0    0 -0.21707110917E+02  0.29822683206E+01 -0.34250149001E+02  0.50528864553E+02  0.30000014296E+02 0.  0.
        -12    1    1    2    0    0  0.21707110917E+02 -0.29822683206E+01  0.34250149001E+02  0.40659135447E+02  0.00000000000E+00 0.  1.
         11    1    3    3    0    0 -0.58796602694E+01  0.39621934086E+00 -0.33197348322E+02  0.33716336256E+02  0.51100000000E-03 0. -1.
        -11    1    3    3    0    0 -0.33837364060E+01  0.27051037104E+01 -0.12984079183E+00  0.43340647251E+01  0.51100000000E-03 0.  1.
         12    1    3    3    0    0 -0.12443714242E+02 -0.11905473063E+00 -0.92295988645E+00  0.12478463572E+02  0.00000000000E+00 0. -1.
</event>
<event>
 7    1  0.9930326E-013  0.5052895E+02  0.7816164E-02  0.1300438E+00
        -11   -1    0    0    0    0  0.00000000000E+00  0.00000000000E+00  0.45593999997E+02  0.45594000000E+02  0.51100000000E-03 0.  1.
         11   -1    0    0    0    0 -0.00000000000E+00 -0.00000000000E+00 -0.45593999997E+02  0.45594000000E+02  0.51100000000E-03 0. -1.
    9900012    2    1    2    0    0 -0.25860144118E+02 -0.31175058960E+02 -0.35393436261E+01  0.50528950475E+02  0.30000275462E+02 0.  0.
        -12    1    1    2    0    0  0.25860144118E+02  0.31175058960E+02  0.35393436261E+01  0.40659049525E+02  0.00000000000E+00 0.  1.
         11    1    3    3    0    0  0.21222369352E+01 -0.17770987812E+02 -0.62715828300E+00  0.17908244615E+02  0.51100000000E-03 0. -1.
        -11    1    3    3    0    0 -0.22167670814E+02 -0.61872549296E+01 -0.40010918051E+00  0.23018423936E+02  0.51100000000E-03 0.  1.
         12    1    3    3    0    0 -0.58147102397E+01 -0.72168162186E+01 -0.25120761626E+01  0.96022819242E+01  0.00000000000E+00 0. -1.
</event>
<event>
 7    1  0.9930326E-013  0.5052885E+02  0.7816164E-02  0.1300439E+00
        -11   -1    0    0    0    0  0.00000000000E+00  0.00000000000E+00  0.45593999997E+02  0.45594000000E+02  0.51100000000E-03 0.  1.
         11   -1    0    0    0    0 -0.00000000000E+00 -0.00000000000E+00 -0.45593999997E+02  0.45594000000E+02  0.51100000000E-03 0. -1.
    9900012    2    1    2    0    0  0.32624945050E+02 -0.57940637100E+01 -0.23562860466E+02  0.50528848421E+02  0.29999965260E+02 0.  0.
        -12    1    1    2    0    0 -0.32624945050E+02  0.57940637100E+01  0.23562860466E+02  0.40659151579E+02  0.00000000000E+00 0.  1.
         11    1    3    3    0    0  0.16104891758E+02 -0.79409333836E+01 -0.17007549426E+02  0.24732219862E+02  0.51100000000E-03 0. -1.
        -11    1    3    3    0    0  0.15676365426E+02  0.43034706829E+01  0.25021915091E+01  0.16447773573E+02  0.51100000000E-03 0.  1.
        -12    1    3    3    0    0  0.84368786525E+00 -0.21566010093E+01 -0.90575025492E+01  0.93488549864E+01  0.00000000000E+00 0.  1.
</event>
<event>
 7    1  0.9930326E-013  0.5052886E+02  0.7816164E-02  0.1300439E+00
        -11   -1    0    0    0    0  0.00000000000E+00  0.00000000000E+00  0.45593999997E+02  0.45594000000E+02  0.51100000000E-03 0.  1.
         11   -1    0    0    0    0 -0.00000000000E+00 -0.00000000000E+00 -0.45593999997E+02  0.45594000000E+02  0.51100000000E-03 0. -1.
    9900012    2    1    2    0    0  0.35670338840E+02 -0.11380992954E+01 -0.19480683333E+02  0.50528863682E+02  0.30000011649E+02 0.  0.
        -12    1    1    2    0    0 -0.35670338840E+02  0.11380992954E+01  0.19480683333E+02  0.40659136318E+02  0.00000000000E+00 0.  1.
         11    1    3    3    0    0  0.28574905439E+01 -0.58903885467E+00  0.39108250625E+01  0.48792183709E+01  0.51100000000E-03 0.  1.
        -11    1    3    3    0    0  0.22915415996E+02 -0.84872959983E+01 -0.22009155041E+02  0.32886979027E+02  0.51100000000E-03 0. -1.
         12    1    3    3    0    0  0.98974322997E+01  0.79382355576E+01 -0.13823533550E+01  0.12762666285E+02  0.00000000000E+00 0. -1.
</event>
<event>
 7    1  0.9930326E-013  0.5052886E+02  0.7816164E-02  0.1300439E+00
        -11   -1    0    0    0    0  0.00000000000E+00  0.00000000000E+00  0.45593999997E+02  0.45594000000E+02  0.51100000000E-03 0.  1.
         11   -1    0    0    0    0 -0.00000000000E+00 -0.00000000000E+00 -0.45593999997E+02  0.45594000000E+02  0.51100000000E-03 0. -1.
    9900012    2    1    2    0    0  0.22611628289E+02  0.17651069623E+02 -0.28815263573E+02  0.50528863174E+02  0.30000010103E+02 0.  0.
        -12    1    1    2    0    0 -0.22611628289E+02 -0.17651069623E+02  0.28815263573E+02  0.40659136826E+02  0.00000000000E+00 0.  1.
         11    1    3    3    0    0  0.70073494322E+01 -0.47369996627E+01 -0.67384363501E+01  0.10814279291E+02  0.51100000000E-03 0. -1.
        -11    1    3    3    0    0 -0.90460651236E+00  0.14221615104E+02 -0.68214748878E+01  0.15798897715E+02  0.51100000000E-03 0.  1.
         12    1    3    3    0    0  0.16508885369E+02  0.81664541817E+01 -0.15255352335E+02  0.23915686168E+02  0.00000000000E+00 0. -1.
</event>
<event>
 7    1  0.9930326E-013  0.5052886E+02  0.7816164E-02  0.1300439E+00
        -11   -1    0    0    0    0  0.00000000000E+00  0.00000000000E+00  0.45593999997E+02  0.45594000000E+02  0.51100000000E-03 0. -1.
         11   -1    0    0    0    0 -0.00000000000E+00 -0.00000000000E+00 -0.45593999997E+02  0.45594000000E+02  0.51100000000E-03 0.  1.
    9900012    2    1    2    0    0  0.17527280073E+02 -0.23101735426E+02  0.28500355191E+02  0.50528856226E+02  0.29999988984E+02 0.  0.
        -12    1    1    2    0    0 -0.17527280073E+02  0.23101735426E+02 -0.28500355191E+02  0.40659143774E+02  0.00000000000E+00 0.  1.
         11    1    3    3    0    0  0.14857257005E+02 -0.10713407652E+02  0.28042549737E+02  0.33494772506E+02  0.51100000000E-03 0. -1.
        -11    1    3    3    0    0  0.38126351568E+01 -0.13671291345E+02 -0.16793819499E+01  0.14291980894E+02  0.51100000000E-03 0.  1.
        -12    1    3    3    0    0 -0.11426120888E+01  0.12829635708E+01  0.21371874035E+01  0.27421028258E+01  0.00000000000E+00 0.  1.
</event>
<event>
 7    1  0.9930326E-013  0.5052885E+02  0.7816164E-02  0.1300439E+00
        -11   -1    0    0    0    0  0.00000000000E+00  0.00000000000E+00  0.45593999997E+02  0.45594000000E+02  0.51100000000E-03 0. -1.
         11   -1    0    0    0    0 -0.00000000000E+00 -0.00000000000E+00 -0.45593999997E+02  0.45594000000E+02  0.51100000000E-03 0.  1.
    9900012    2    1    2    0    0 -0.15013669820E+02 -0.15497217359E+02  0.34461466747E+02  0.50528847062E+02  0.29999961129E+02 0.  0.
        -12    1    1    2    0    0  0.15013669820E+02  0.15497217359E+02 -0.34461466747E+02  0.40659152938E+02  0.00000000000E+00 0.  1.
         11    1    3    3    0    0  0.36322664798E+01  0.58939410433E+01  0.40017455185E+01  0.79966160505E+01  0.51100000000E-03 0.  1.
        -11    1    3    3    0    0 -0.12687087904E+02 -0.13084903479E+02  0.25013994625E+02  0.30949585230E+02  0.51100000000E-03 0. -1.
        -12    1    3    3    0    0 -0.59588483957E+01 -0.83062549240E+01  0.54457266030E+01  0.11582645782E+02  0.00000000000E+00 0.  1.
</event>
<event>
 7    1  0.9930326E-013  0.5052886E+02  0.7816164E-02  0.1300439E+00
        -11   -1    0    0    0    0  0.00000000000E+00  0.00000000000E+00  0.45593999997E+02  0.45594000000E+02  0.51100000000E-03 0. -1.
         11   -1    0    0    0    0 -0.00000000000E+00 -0.00000000000E+00 -0.45593999997E+02  0.45594000000E+02  0.51100000000E-03 0.  1.
    9900012    2    1    2    0    0 -0.36881613916E+02  0.14213609202E+02  0.95333915409E+01  0.50528859750E+02  0.29999999697E+02 0.  0.
        -12    1    1    2    0    0  0.36881613916E+02 -0.14213609202E+02 -0.95333915409E+01  0.40659140250E+02  0.00000000000E+00 0.  1.
         11    1    3    3    0    0 -0.35900253754E+02  0.10933032579E+02 -0.15307131003E+01  0.37559319799E+02  0.51100000000E-03 0. -1.
        -11    1    3    3    0    0 -0.29438146332E+01  0.30581946783E+01  0.96443549130E+01  0.10537180896E+02  0.51100000000E-03 0.  1.
        -12    1    3    3    0    0  0.19624544711E+01  0.22238194527E+00  0.14197497283E+01  0.24323590549E+01  0.00000000000E+00 0.  1.
</event>
<event>
 7    1  0.9930326E-013  0.5052887E+02  0.7816164E-02  0.1300439E+00
        -11   -1    0    0    0    0  0.00000000000E+00  0.00000000000E+00  0.45593999997E+02  0.45594000000E+02  0.51100000000E-03 0. -1.
         11   -1    0    0    0    0 -0.00000000000E+00 -0.00000000000E+00 -0.45593999997E+02  0.45594000000E+02  0.51100000000E-03 0.  1.
    9900012    2    1    2    0    0 -0.33667910210E+02  0.17672160839E+02  0.14399016829E+02  0.50528866557E+02  0.30000020388E+02 0.  0.
        -12    1    1    2    0    0  0.33667910210E+02 -0.17672160839E+02 -0.14399016829E+02  0.40659133443E+02  0.00000000000E+00 0.  1.
         11    1    3    3    0    0 -0.20562840968E+02 -0.39678119899E+01  0.10218379833E+02  0.23302129674E+02  0.51100000000E-03 0. -1.
        -11    1    3    3    0    0 -0.76658527421E+01  0.86229039860E+01 -0.21958522431E+01  0.11744851585E+02  0.51100000000E-03 0.  1.
         12    1    3    3    0    0 -0.54392165009E+01  0.13017068843E+02  0.63764892394E+01  0.15481885299E+02  0.00000000000E+00 0. -1.
</event>
<event>
 7    1  0.9930326E-013  0.5052886E+02  0.7816164E-02  0.1300439E+00
        -11   -1    0    0    0    0  0.00000000000E+00  0.00000000000E+00  0.45593999997E+02  0.45594000000E+02  0.51100000000E-03 0.  1.
         11   -1    0    0    0    0 -0.00000000000E+00 -0.00000000000E+00 -0.45593999997E+02  0.45594000000E+02  0.51100000000E-03 0. -1.
    9900012    2    1    2    0    0  0.38560187228E+02  0.60760550794E+01 -0.11373620856E+02  0.50528859137E+02  0.29999997832E+02 0.  0.
        -12    1    1    2    0    0 -0.38560187228E+02 -0.60760550794E+01  0.11373620856E+02  0.40659140863E+02  0.00000000000E+00 0.  1.
         11    1    3    3    0    0  0.28253884794E+02  0.37074598926E+00 -0.99222056425E+01  0.29947781614E+02  0.51100000000E-03 0. -1.
        -11    1    3    3    0    0  0.90089483371E+01  0.93226699550E+01 -0.62837865753E+01  0.14406918450E+02  0.51100000000E-03 0.  1.
         12    1    3    3    0    0  0.12973540972E+01 -0.36173608648E+01  0.48323713621E+01  0.61741590732E+01  0.00000000000E+00 0. -1.
</event>
<event>
 7    1  0.9930326E-013  0.5052886E+02  0.7816164E-02  0.1300439E+00
        -11   -1    0    0    0    0  0.00000000000E+00  0.00000000000E+00  0.45593999997E+02  0.45594000000E+02  0.51100000000E-03 0.  1.
         11   -1    0    0    0    0 -0.00000000000E+00 -0.00000000000E+00 -0.45593999997E+02  0.45594000000E+02  0.51100000000E-03 0. -1.
    9900012    2    1    2    0    0 -0.31978326702E+02 -0.64233025912E+01 -0.24275359271E+02  0.50528864955E+02  0.30000015517E+02 0.  0.
        -12    1    1    2    0    0  0.31978326702E+02  0.64233025912E+01  0.24275359271E+02  0.40659135045E+02  0.00000000000E+00 0.  1.
         11    1    3    3    0    0 -0.39071509100E+01  0.49518415423E+01 -0.78225815059E+01  0.10048847923E+02  0.51100000000E-03 0. -1.
        -11    1    3    3    0    0 -0.70950604298E+01 -0.13882768098E+02 -0.94154640494E+01  0.18213239583E+02  0.51100000000E-03 0.  1.
        -12    1    3    3    0    0 -0.20976115363E+02  0.25076239646E+01 -0.70373137161E+01  0.22266777450E+02  0.00000000000E+00 0.  1.
</event>
<event>
 7    1  0.9930326E-013  0.5052889E+02  0.7816164E-02  0.1300439E+00
        -11   -1    0    0    0    0  0.00000000000E+00  0.00000000000E+00  0.45593999997E+02  0.45594000000E+02  0.51100000000E-03 0.  1.
         11   -1    0    0    0    0 -0.00000000000E+00 -0.00000000000E+00 -0.45593999997E+02  0.45594000000E+02  0.51100000000E-03 0. -1.
    9900012    2    1    2    0    0 -0.10499860148E+02  0.42759633174E-01 -0.39279946718E+02  0.50528891479E+02  0.30000096140E+02 0.  0.
        -12    1    1    2    0    0  0.10499860148E+02 -0.42759633174E-01  0.39279946718E+02  0.40659108521E+02  0.00000000000E+00 0.  1.
         11    1    3    3    0    0 -0.31290090003E+00 -0.71562769240E+01 -0.30319820900E+02  0.31154481958E+02  0.51100000000E-03 0. -1.
        -11    1    3    3    0    0 -0.12615537825E+02  0.64540699487E+01 -0.57795982579E+01  0.15303939682E+02  0.51100000000E-03 0.  1.
        -12    1    3    3    0    0  0.24285785769E+01  0.74496660852E+00 -0.31805275603E+01  0.40704698394E+01  0.00000000000E+00 0.  1.
</event>
<event>
 7    1  0.9930326E-013  0.5052883E+02  0.7816164E-02  0.1300439E+00
        -11   -1    0    0    0    0  0.00000000000E+00  0.00000000000E+00  0.45593999997E+02  0.45594000000E+02  0.51100000000E-03 0.  1.
         11   -1    0    0    0    0 -0.00000000000E+00 -0.00000000000E+00 -0.45593999997E+02  0.45594000000E+02  0.51100000000E-03 0. -1.
    9900012    2    1    2    0    0 -0.26085727996E+01 -0.17595441808E+02 -0.36561784861E+02  0.50528827152E+02  0.29999900612E+02 0.  0.
        -12    1    1    2    0    0  0.26085727996E+01  0.17595441808E+02  0.36561784861E+02  0.40659172848E+02  0.00000000000E+00 0.  1.
         11    1    3    3    0    0 -0.28242590123E+01  0.10087585974E+01 -0.19548494896E+02  0.19777201162E+02  0.51100000000E-03 0. -1.
        -11    1    3    3    0    0  0.40810227119E+01 -0.86913424665E+01  0.11815475606E+01  0.96742046259E+01  0.51100000000E-03 0.  1.
        -12    1    3    3    0    0 -0.38653364992E+01 -0.99128579387E+01 -0.18194837526E+02  0.21077421364E+02  0.00000000000E+00 0.  1.
</event>
<event>
 7    1  0.9930326E-013  0.5052886E+02  0.7816164E-02  0.1300439E+00
        -11   -1    0    0    0    0  0.00000000000E+00  0.00000000000E+00  0.45593999997E+02  0.45594000000E+02  0.51100000000E-03 0.  1.
         11   -1    0    0    0    0 -0.00000000000E+00 -0.00000000000E+00 -0.45593999997E+02  0.45594000000E+02  0.51100000000E-03 0. -1.
    9900012    2    1    2    0    0 -0.12426543536E+02 -0.14043598230E+02 -0.36076638072E+02  0.50528862650E+02  0.30000008510E+02 0.  0.
        -12    1    1    2    0    0  0.12426543536E+02  0.14043598230E+02  0.36076638072E+02  0.40659137350E+02  0.00000000000E+00 0.  1.
         11    1    3    3    0    0  0.30897737703E+01 -0.42884313263E+01  0.12148545381E+01  0.54233953389E+01  0.51100000000E-03 0. -1.
        -11    1    3    3    0    0 -0.38123126073E+01 -0.12704759465E+02 -0.20783166071E+02  0.24655316519E+02  0.51100000000E-03 0.  1.
         12    1    3    3    0    0 -0.11704004699E+02  0.29495925614E+01 -0.16508326539E+02  0.20450150792E+02  0.00000000000E+00 0. -1.
</event>
<event>
 7    1  0.9930326E-013  0.5052886E+02  0.7816164E-02  0.1300439E+00
        -11   -1    0    0    0    0  0.00000000000E+00  0.00000000000E+00  0.45593999997E+02  0.45594000000E+02  0.51100000000E-03 0. -1.
         11   -1    0    0    0    0 -0.00000000000E+00 -0.00000000000E+00 -0.45593999997E+02  0.45594000000E+02  0.51100000000E-03 0.  1.
    9900012    2    1    2    0    0  0.35162393602E+02 -0.59745549892E+01  0.19521171799E+02  0.50528863517E+02  0.30000011145E+02 0.  0.
        -12    1    1    2    0    0 -0.35162393602E+02  0.59745549892E+01 -0.19521171799E+02  0.40659136483E+02  0.00000000000E+00 0.  1.
         11    1    3    3    0    0  0.19835858486E+01  0.39811038407E+00  0.12713113679E+01  0.23894220121E+01  0.51100000000E-03 0. -1.
        -11    1    3    3    0    0  0.37685075237E+02 -0.32596948068E+01  0.11684157400E+02  0.39589266730E+02  0.51100000000E-03 0.  1.
        -12    1    3    3    0    0 -0.45062674832E+01 -0.31129705664E+01  0.65657030310E+01  0.85501747742E+01  0.00000000000E+00 0.  1.
</event>
<event>
 7    1  0.9930326E-013  0.5052885E+02  0.7816164E-02  0.1300439E+00
        -11   -1    0    0    0    0  0.00000000000E+00  0.00000000000E+00  0.45593999997E+02  0.45594000000E+02  0.51100000000E-03 0.  1.
         11   -1    0    0    0    0 -0.00000000000E+00 -0.00000000000E+00 -0.45593999997E+02  0.45594000000E+02  0.51100000000E-03 0. -1.
    9900012    2    1    2    0    0 -0.65479483317E+01  0.37431759656E+02 -0.14462151389E+02  0.50528854890E+02  0.29999984923E+02 0.  0.
        -12    1    1    2    0    0  0.65479483317E+01 -0.37431759656E+02  0.14462151389E+02  0.40659145110E+02  0.00000000000E+00 0.  1.
         11    1    3    3    0    0 -0.33891020228E+01  0.38098498268E+02 -0.98454977513E+01  0.39495764444E+02  0.51100000000E-03 0. -1.
        -11    1    3    3    0    0 -0.59040249905E+01  0.66071699606E+00 -0.52390120672E+01  0.79209409629E+01  0.51100000000E-03 0.  1.
         12    1    3    3    0    0  0.27451786816E+01 -0.13274556084E+01  0.62235842984E+00  0.31121494825E+01  0.00000000000E+00 0. -1.
</event>
<event>
 7    1  0.9930326E-013  0.5052886E+02  0.7816164E-02  0.1300439E+00
        -11   -1    0    0    0    0  0.00000000000E+00  0.00000000000E+00  0.45593999997E+02  0.45594000000E+02  0.51100000000E-03 0.  1.
         11   -1    0    0    0    0 -0.00000000000E+00 -0.00000000000E+00 -0.45593999997E+02  0.45594000000E+02  0.51100000000E-03 0. -1.
    9900012    2    1    2    0    0  0.12355995681E+02 -0.21200816565E+02 -0.32419448738E+02  0.50528857009E+02  0.29999991365E+02 0.  0.
        -12    1    1    2    0    0 -0.12355995681E+02  0.21200816565E+02  0.32419448738E+02  0.40659142991E+02  0.00000000000E+00 0.  1.
         11    1    3    3    0    0 -0.61907611349E+01 -0.27587783557E+01  0.58248576527E+00  0.68026223894E+01  0.51100000000E-03 0. -1.
        -11    1    3    3    0    0  0.84702202565E+01 -0.27320753732E+01 -0.16796509200E+02  0.19008724013E+02  0.51100000000E-03 0.  1.
         12    1    3    3    0    0  0.10076536559E+02 -0.15709962836E+02 -0.16205425303E+02  0.24717510607E+02  0.00000000000E+00 0. -1.
</event>
<event>
 7    1  0.9930326E-013  0.5052886E+02  0.7816164E-02  0.1300439E+00
        -11   -1    0    0    0    0  0.00000000000E+00  0.00000000000E+00  0.45593999997E+02  0.45594000000E+02  0.51100000000E-03 0. -1.
         11   -1    0    0    0    0 -0.00000000000E+00 -0.00000000000E+00 -0.45593999997E+02  0.45594000000E+02  0.51100000000E-03 0.  1.
    9900012    2    1    2    0    0 -0.28964273755E+02  0.25245285900E+02  0.13300835378E+02  0.50528857903E+02  0.29999994081E+02 0.  0.
        -12    1    1    2    0    0  0.28964273755E+02 -0.25245285900E+02 -0.13300835378E+02  0.40659142097E+02  0.00000000000E+00 0.  1.
         11    1    3    3    0    0 -0.16281405488E+01  0.12083001769E+02  0.13742143461E+02  0.18371071840E+02  0.51100000000E-03 0. -1.
        -11    1    3    3    0    0 -0.22345964651E+02  0.56295315976E+01 -0.13036469273E+01  0.23081015094E+02  0.51100000000E-03 0.  1.
         12    1    3    3    0    0 -0.49901685550E+01  0.75327525330E+01  0.86233884480E+00  0.90767709685E+01  0.00000000000E+00 0. -1.
</event>
<event>
 7    1  0.9930326E-013  0.5052886E+02  0.7816164E-02  0.1300439E+00
        -11   -1    0    0    0    0  0.00000000000E+00  0.00000000000E+00  0.45593999997E+02  0.45594000000E+02  0.51100000000E-03 0. -1.
         11   -1    0    0    0    0 -0.00000000000E+00 -0.00000000000E+00 -0.45593999997E+02  0.45594000000E+02  0.51100000000E-03 0.  1.
    9900012    2    1    2    0    0  0.18401894944E+02 -0.31637155243E+02  0.17709502749E+02  0.50528858137E+02  0.29999994793E+02 0.  0.
        -12    1    1    2    0    0 -0.18401894944E+02  0.31637155243E+02 -0.17709502749E+02  0.40659141863E+02  0.00000000000E+00 0.  1.
         11    1    3    3    0    0  0.18392447838E+01 -0.21081609297E+02  0.19312485526E+02  0.28649418308E+02  0.51100000000E-03 0. -1.
        -11    1    3    3    0    0  0.32591791751E+00 -0.36192291698E+01 -0.21359397977E+01  0.42151253069E+01  0.51100000000E-03 0.  1.
         12    1    3    3    0    0  0.16236732243E+02 -0.69363167765E+01  0.53295702059E+00  0.17664314522E+02  0.00000000000E+00 0. -1.
</event>
<event>
 7    1  0.9930326E-013  0.5052886E+02  0.7816164E-02  0.1300439E+00
        -11   -1    0    0    0    0  0.00000000000E+00  0.00000000000E+00  0.45593999997E+02  0.45594000000E+02  0.51100000000E-03 0.  1.
         11   -1    0    0    0    0 -0.00000000000E+00 -0.00000000000E+00 -0.45593999997E+02  0.45594000000E+02  0.51100000000E-03 0. -1.
    9900012    2    1    2    0    0 -0.25501669769E+02 -0.31520142588E+02  0.30513916236E+01  0.50528861536E+02  0.30000005125E+02 0.  0.
        -12    1    1    2    0    0  0.25501669769E+02  0.31520142588E+02 -0.30513916236E+01  0.40659138464E+02  0.00000000000E+00 0.  1.
         11    1    3    3    0    0 -0.16159269356E+02  0.11960272063E+01 -0.72679946610E+00  0.16219762789E+02  0.51100000000E-03 0. -1.
        -11    1    3    3    0    0 -0.52698414549E+01 -0.17745118098E+02  0.92765804653E+00  0.18534319383E+02  0.51100000000E-03 0.  1.
         12    1    3    3    0    0 -0.40725589576E+01 -0.14971051696E+02  0.28505330432E+01  0.15774779364E+02  0.00000000000E+00 0. -1.
</event>
<event>
 7    1  0.9930326E-013  0.5052886E+02  0.7816164E-02  0.1300439E+00
        -11   -1    0    0    0    0  0.00000000000E+00  0.00000000000E+00  0.45593999997E+02  0.45594000000E+02  0.51100000000E-03 0.  1.
         11   -1    0    0    0    0 -0.00000000000E+00 -0.00000000000E+00 -0.45593999997E+02  0.45594000000E+02  0.51100000000E-03 0. -1.
    9900012    2    1    2    0    0 -0.24232806677E+02  0.31133390429E+01 -0.32499905905E+02  0.50528859782E+02  0.29999999792E+02 0.  0.
        -12    1    1    2    0    0  0.24232806677E+02 -0.31133390429E+01  0.32499905905E+02  0.40659140218E+02  0.00000000000E+00 0.  1.
         11    1    3    3    0    0 -0.17566450071E+02 -0.80563917319E+01 -0.13323399637E+02  0.23473359239E+02  0.51100000000E-03 0. -1.
        -11    1    3    3    0    0  0.16387971468E+01  0.10591014969E+02 -0.11690590285E+02  0.15859544623E+02  0.51100000000E-03 0.  1.
        -12    1    3    3    0    0 -0.83051537533E+01  0.57871580576E+00 -0.74859159831E+01  0.11195955920E+02  0.00000000000E+00 0.  1.
</event>
<event>
 7    1  0.9930326E-013  0.5052884E+02  0.7816164E-02  0.1300439E+00
        -11   -1    0    0    0    0  0.00000000000E+00  0.00000000000E+00  0.45593999997E+02  0.45594000000E+02  0.51100000000E-03 0.  1.
         11   -1    0    0    0    0 -0.00000000000E+00 -0.00000000000E+00 -0.45593999997E+02  0.45594000000E+02  0.51100000000E-03 0. -1.
    9900012    2    1    2    0    0  0.88550616884E+01 -0.12619021977E+01 -0.39663115038E+02  0.50528841017E+02  0.29999942757E+02 0.  0.
        -12    1    1    2    0    0 -0.88550616884E+01  0.12619021977E+01  0.39663115038E+02  0.40659158983E+02  0.00000000000E+00 0.  1.
         11    1    3    3    0    0 -0.15306046634E+01 -0.74414982454E+01 -0.33730608526E+02  0.34575606988E+02  0.51100000000E-03 0. -1.
        -11    1    3    3    0    0  0.12592633414E+00  0.40361724897E+01 -0.28714111318E+00  0.40483325071E+01  0.51100000000E-03 0.  1.
         12    1    3    3    0    0  0.10259740018E+02  0.21434235581E+01 -0.56453653986E+01  0.11904901523E+02  0.00000000000E+00 0. -1.
</event>
<event>
 7    1  0.9930326E-013  0.5052886E+02  0.7816164E-02  0.1300439E+00
        -11   -1    0    0    0    0  0.00000000000E+00  0.00000000000E+00  0.45593999997E+02  0.45594000000E+02  0.51100000000E-03 0.  1.
         11   -1    0    0    0    0 -0.00000000000E+00 -0.00000000000E+00 -0.45593999997E+02  0.45594000000E+02  0.51100000000E-03 0. -1.
    9900012    2    1    2    0    0 -0.20585397335E+02  0.33206155481E+02 -0.11258712384E+02  0.50528856504E+02  0.29999989830E+02 0.  0.
        -12    1    1    2    0    0  0.20585397335E+02 -0.33206155481E+02  0.11258712384E+02  0.40659143496E+02  0.00000000000E+00 0.  1.
         11    1    3    3    0    0 -0.19661351706E+02  0.29237947210E+02 -0.11908797823E+02  0.37192012231E+02  0.51100000000E-03 0. -1.
        -11    1    3    3    0    0 -0.75894003113E+00  0.64435022337E+01  0.50930083738E+01  0.82482389371E+01  0.51100000000E-03 0.  1.
         12    1    3    3    0    0 -0.16510559773E+00 -0.24752939625E+01 -0.44429229347E+01  0.50886053357E+01  0.00000000000E+00 0. -1.
</event>
<event>
 7    1  0.9930326E-013  0.5052886E+02  0.7816164E-02  0.1300439E+00
        -11   -1    0    0    0    0  0.00000000000E+00  0.00000000000E+00  0.45593999997E+02  0.45594000000E+02  0.51100000000E-03 0.  1.
         11   -1    0    0    0    0 -0.00000000000E+00 -0.00000000000E+00 -0.45593999997E+02  0.45594000000E+02  0.51100000000E-03 0. -1.
    9900012    2    1    2    0    0 -0.20998006035E+02  0.86505193218E+01 -0.33725632678E+02  0.50528855376E+02  0.29999986402E+02 0.  0.
        -12    1    1    2    0    0  0.20998006035E+02 -0.86505193218E+01  0.33725632678E+02  0.40659144624E+02  0.00000000000E+00 0.  1.
         11    1    3    3    0    0 -0.13318805410E+02 -0.68562473927E+01 -0.18527276300E+02  0.23825588623E+02  0.51100000000E-03 0. -1.
        -11    1    3    3    0    0 -0.10980900756E+02  0.11295681402E+02 -0.78169813329E+01  0.17586295721E+02  0.51100000000E-03 0.  1.
        -12    1    3    3    0    0  0.33017001305E+01  0.42110853121E+01 -0.73813750450E+01  0.91169710328E+01  0.00000000000E+00 0.  1.
</event>
<event>
 7    1  0.9930326E-013  0.5052887E+02  0.7816164E-02  0.1300439E+00
        -11   -1    0    0    0    0  0.00000000000E+00  0.00000000000E+00  0.45593999997E+02  0.45594000000E+02  0.51100000000E-03 0.  1.
         11   -1    0    0    0    0 -0.00000000000E+00 -0.00000000000E+00 -0.45593999997E+02  0.45594000000E+02  0.51100000000E-03 0. -1.
    9900012    2    1    2    0    0 -0.28690905580E+02 -0.16811913588E+02 -0.23395642740E+02  0.50528873095E+02  0.30000040259E+02 0.  0.
        -12    1    1    2    0    0  0.28690905580E+02  0.16811913588E+02  0.23395642740E+02  0.40659126905E+02  0.00000000000E+00 0.  1.
         11    1    3    3    0    0 -0.16144881490E+02  0.13092596811E+01 -0.55572924874E+01  0.17124685670E+02  0.51100000000E-03 0. -1.
        -11    1    3    3    0    0 -0.12598479551E+02 -0.19975120550E+02 -0.10518058447E+02  0.25852595262E+02  0.51100000000E-03 0.  1.
        -12    1    3    3    0    0  0.52455461105E-01  0.18539472812E+01 -0.73202918050E+01  0.75515921637E+01  0.00000000000E+00 0.  1.
</event>
<event>
 7    1  0.9930326E-013  0.5052886E+02  0.7816164E-02  0.1300439E+00
        -11   -1    0    0    0    0  0.00000000000E+00  0.00000000000E+00  0.45593999997E+02  0.45594000000E+02  0.51100000000E-03 0.  1.
         11   -1    0    0    0    0 -0.00000000000E+00 -0.00000000000E+00 -0.45593999997E+02  0.45594000000E+02  0.51100000000E-03 0. -1.
    9900012    2    1    2    0    0  0.38023090435E+02  0.11961075626E+02 -0.80213894665E+01  0.50528862954E+02  0.30000009435E+02 0.  0.
        -12    1    1    2    0    0 -0.38023090435E+02 -0.11961075626E+02  0.80213894665E+01  0.40659137046E+02  0.00000000000E+00 0.  1.
         11    1    3    3    0    0  0.16426942521E+02  0.10801887356E+02  0.71093586551E+01  0.20906175925E+02  0.51100000000E-03 0. -1.
        -11    1    3    3    0    0  0.14801542500E+02 -0.34446368824E+01 -0.38589017450E+01  0.15679359252E+02  0.51100000000E-03 0.  1.
         12    1    3    3    0    0  0.67946054142E+01  0.46038251520E+01 -0.11271846377E+02  0.13943327777E+02  0.00000000000E+00 0. -1.
</event>
<event>
 7    1  0.9930326E-013  0.5052886E+02  0.7816164E-02  0.1300439E+00
        -11   -1    0    0    0    0  0.00000000000E+00  0.00000000000E+00  0.45593999997E+02  0.45594000000E+02  0.51100000000E-03 0. -1.
         11   -1    0    0    0    0 -0.00000000000E+00 -0.00000000000E+00 -0.45593999997E+02  0.45594000000E+02  0.51100000000E-03 0.  1.
    9900012    2    1    2    0    0  0.46247669240E+01  0.39195823229E+02  0.97706035311E+01  0.50528859317E+02  0.29999998381E+02 0.  0.
        -12    1    1    2    0    0 -0.46247669240E+01 -0.39195823229E+02 -0.97706035311E+01  0.40659140683E+02  0.00000000000E+00 0.  1.
         11    1    3    3    0    0 -0.94521904755E+01  0.23870230374E+02  0.97409579388E+01  0.27459389373E+02  0.51100000000E-03 0. -1.
        -11    1    3    3    0    0  0.14025692036E+02  0.16218122332E+02 -0.12843850209E+01  0.21480157685E+02  0.51100000000E-03 0.  1.
        -12    1    3    3    0    0  0.51265363896E-01 -0.89252947714E+00  0.13140306132E+01  0.15893122593E+01  0.00000000000E+00 0.  1.
</event>
<event>
 7    1  0.9930326E-013  0.5052885E+02  0.7816164E-02  0.1300439E+00
        -11   -1    0    0    0    0  0.00000000000E+00  0.00000000000E+00  0.45593999997E+02  0.45594000000E+02  0.51100000000E-03 0. -1.
         11   -1    0    0    0    0 -0.00000000000E+00 -0.00000000000E+00 -0.45593999997E+02  0.45594000000E+02  0.51100000000E-03 0.  1.
    9900012    2    1    2    0    0  0.19608752135E+02  0.18242439698E+02  0.30592097399E+02  0.50528853554E+02  0.29999980863E+02 0.  0.
        -12    1    1    2    0    0 -0.19608752135E+02 -0.18242439698E+02 -0.30592097399E+02  0.40659146446E+02  0.00000000000E+00 0.  1.
         11    1    3    3    0    0  0.53831869098E+01  0.12869040749E+02  0.19134783032E+02  0.23679755764E+02  0.51100000000E-03 0. -1.
        -11    1    3    3    0    0  0.10120864421E+02 -0.44539753082E+01 -0.19985300641E+00  0.11059373136E+02  0.51100000000E-03 0.  1.
        -12    1    3    3    0    0  0.41047008047E+01  0.98273742569E+01  0.11657167373E+02  0.15789724654E+02  0.00000000000E+00 0.  1.
</event>
<event>
 7    1  0.9930326E-013  0.5052887E+02  0.7816164E-02  0.1300439E+00
        -11   -1    0    0    0    0  0.00000000000E+00  0.00000000000E+00  0.45593999997E+02  0.45594000000E+02  0.51100000000E-03 0.  1.
         11   -1    0    0    0    0 -0.00000000000E+00 -0.00000000000E+00 -0.45593999997E+02  0.45594000000E+02  0.51100000000E-03 0. -1.
    9900012    2    1    2    0    0  0.74458386666E+01  0.18897062443E+02 -0.35222516278E+02  0.50528866519E+02  0.30000020272E+02 0.  0.
        -12    1    1    2    0    0 -0.74458386666E+01 -0.18897062443E+02  0.35222516278E+02  0.40659133481E+02  0.00000000000E+00 0.  1.
         11    1    3    3    0    0  0.79738766803E+01  0.20051644569E+01 -0.50404795945E+01  0.96441603375E+01  0.51100000000E-03 0. -1.
        -11    1    3    3    0    0 -0.41455064745E+01  0.21143170587E+02 -0.20680145236E+02  0.29864482142E+02  0.51100000000E-03 0.  1.
        -12    1    3    3    0    0  0.36174684609E+01 -0.42512726006E+01 -0.95018914483E+01  0.11020224040E+02  0.00000000000E+00 0.  1.
</event>
<event>
 7    1  0.9930326E-013  0.5052886E+02  0.7816164E-02  0.1300439E+00
        -11   -1    0    0    0    0  0.00000000000E+00  0.00000000000E+00  0.45593999997E+02  0.45594000000E+02  0.51100000000E-03 0.  1.
         11   -1    0    0    0    0 -0.00000000000E+00 -0.00000000000E+00 -0.45593999997E+02  0.45594000000E+02  0.51100000000E-03 0. -1.
    9900012    2    1    2    0    0  0.38069861628E+02 -0.22875822200E+01 -0.14093188847E+02  0.50528863651E+02  0.30000011552E+02 0.  0.
        -12    1    1    2    0    0 -0.38069861628E+02  0.22875822200E+01  0.14093188847E+02  0.40659136349E+02  0.00000000000E+00 0.  1.
         11    1    3    3    0    0  0.14973202722E+02 -0.31766726395E+01 -0.11643581395E+02  0.19231771546E+02  0.51100000000E-03 0. -1.
        -11    1    3    3    0    0  0.13610905490E+02  0.10874782086E+02 -0.16826289522E+01  0.17502824747E+02  0.51100000000E-03 0.  1.
        -12    1    3    3    0    0  0.94857534161E+01 -0.99856916662E+01 -0.76697849944E+00  0.13794267358E+02  0.00000000000E+00 0.  1.
</event>
<event>
 7    1  0.9930326E-013  0.5052887E+02  0.7816164E-02  0.1300439E+00
        -11   -1    0    0    0    0  0.00000000000E+00  0.00000000000E+00  0.45593999997E+02  0.45594000000E+02  0.51100000000E-03 0.  1.
         11   -1    0    0    0    0 -0.00000000000E+00 -0.00000000000E+00 -0.45593999997E+02  0.45594000000E+02  0.51100000000E-03 0. -1.
    9900012    2    1    2    0    0  0.35643328247E+02 -0.19500336120E+02 -0.15667888361E+01  0.50528870833E+02  0.30000033385E+02 0.  0.
        -12    1    1    2    0    0 -0.35643328247E+02  0.19500336120E+02  0.15667888361E+01  0.40659129167E+02  0.00000000000E+00 0.  1.
         11    1    3    3    0    0  0.17995495608E+02 -0.12417120157E+01 -0.98543755158E+01  0.20554523297E+02  0.51100000000E-03 0. -1.
        -11    1    3    3    0    0 -0.42397223878E+00 -0.47042962392E+01  0.54417646324E+01  0.72057586791E+01  0.51100000000E-03 0.  1.
         12    1    3    3    0    0  0.18071804878E+02 -0.13554327865E+02  0.28458220472E+01  0.22768588857E+02  0.00000000000E+00 0. -1.
</event>
<event>
 7    1  0.9930326E-013  0.5052885E+02  0.7816164E-02  0.1300439E+00
        -11   -1    0    0    0    0  0.00000000000E+00  0.00000000000E+00  0.45593999997E+02  0.45594000000E+02  0.51100000000E-03 0. -1.
         11   -1    0    0    0    0 -0.00000000000E+00 -0.00000000000E+00 -0.45593999997E+02  0.45594000000E+02  0.51100000000E-03 0.  1.
    9900012    2    1    2    0    0  0.24760805050E+02  0.93129670895E+01  0.30876160963E+02  0.50528854183E+02  0.29999982776E+02 0.  0.
        -12    1    1    2    0    0 -0.24760805050E+02 -0.93129670895E+01 -0.30876160963E+02  0.40659145817E+02  0.00000000000E+00 0.  1.
         11    1    3    3    0    0  0.11978530666E+02 -0.19456926273E+01  0.27967739862E+01  0.12453628456E+02  0.51100000000E-03 0. -1.
        -11    1    3    3    0    0  0.10182898982E+02  0.55681794423E+01  0.29464335913E+02  0.31667698764E+02  0.51100000000E-03 0.  1.
        -12    1    3    3    0    0  0.25993754015E+01  0.56904802745E+01 -0.13849489359E+01  0.64075269634E+01  0.00000000000E+00 0.  1.
</event>
<event>
 7    1  0.9930326E-013  0.5052873E+02  0.7816164E-02  0.1300439E+00
        -11   -1    0    0    0    0  0.00000000000E+00  0.00000000000E+00  0.45593999997E+02  0.45594000000E+02  0.51100000000E-03 0.  1.
         11   -1    0    0    0    0 -0.00000000000E+00 -0.00000000000E+00 -0.45593999997E+02  0.45594000000E+02  0.51100000000E-03 0. -1.
    9900012    2    1    2    0    0 -0.31709627349E+02  0.75544529487E+01 -0.24302391666E+02  0.50528727175E+02  0.29999596719E+02 0.  0.
        -12    1    1    2    0    0  0.31709627349E+02 -0.75544529487E+01  0.24302391666E+02  0.40659272825E+02  0.00000000000E+00 0.  1.
         11    1    3    3    0    0 -0.70850653606E+01  0.54860485125E+01  0.15554782343E+01  0.90947453095E+01  0.51100000000E-03 0. -1.
        -11    1    3    3    0    0 -0.56391425534E+01 -0.18135463325E+00 -0.20949151200E+02  0.21695616020E+02  0.51100000000E-03 0.  1.
        -12    1    3    3    0    0 -0.18985419435E+02  0.22497590695E+01 -0.49087187006E+01  0.19738365846E+02  0.00000000000E+00 0.  1.
</event>
<event>
 7    1  0.9930326E-013  0.5052886E+02  0.7816164E-02  0.1300439E+00
        -11   -1    0    0    0    0  0.00000000000E+00  0.00000000000E+00  0.45593999997E+02  0.45594000000E+02  0.51100000000E-03 0.  1.
         11   -1    0    0    0    0 -0.00000000000E+00 -0.00000000000E+00 -0.45593999997E+02  0.45594000000E+02  0.51100000000E-03 0. -1.
    9900012    2    1    2    0    0  0.68387254029E+01  0.83209138615E+01 -0.39206629475E+02  0.50528861206E+02  0.30000004123E+02 0.  0.
        -12    1    1    2    0    0 -0.68387254029E+01 -0.83209138615E+01  0.39206629475E+02  0.40659138794E+02  0.00000000000E+00 0.  1.
         11    1    3    3    0    0 -0.22667514450E+01  0.52041985500E+01 -0.21731958789E+02  0.22461074723E+02  0.51100000000E-03 0. -1.
        -11    1    3    3    0    0  0.12262616740E+02 -0.46478618811E+01 -0.13395351865E+02  0.18745928657E+02  0.51100000000E-03 0.  1.
        -12    1    3    3    0    0 -0.31571398923E+01  0.77645771927E+01 -0.40793188216E+01  0.93218578260E+01  0.00000000000E+00 0.  1.
</event>
<event>
 7    1  0.9930326E-013  0.5052886E+02  0.7816164E-02  0.1300439E+00
        -11   -1    0    0    0    0  0.00000000000E+00  0.00000000000E+00  0.45593999997E+02  0.45594000000E+02  0.51100000000E-03 0. -1.
         11   -1    0    0    0    0 -0.00000000000E+00 -0.00000000000E+00 -0.45593999997E+02  0.45594000000E+02  0.51100000000E-03 0.  1.
    9900012    2    1    2    0    0  0.23343189120E+02 -0.68539153555E+01  0.32577365294E+02  0.50528863714E+02  0.30000011746E+02 0.  0.
        -12    1    1    2    0    0 -0.23343189120E+02  0.68539153555E+01 -0.32577365294E+02  0.40659136286E+02  0.00000000000E+00 0.  1.
         11    1    3    3    0    0 -0.71784209163E+00  0.78761901766E+01  0.98704453841E+01  0.12648136673E+02  0.51100000000E-03 0. -1.
        -11    1    3    3    0    0  0.24400680542E+02 -0.11329227108E+02  0.20209263594E+02  0.33647569497E+02  0.51100000000E-03 0.  1.
        -12    1    3    3    0    0 -0.33964932976E+00 -0.34008784237E+01  0.24976563160E+01  0.42331575440E+01  0.00000000000E+00 0.  1.
</event>
<event>
 7    1  0.9930326E-013  0.5052886E+02  0.7816164E-02  0.1300439E+00
        -11   -1    0    0    0    0  0.00000000000E+00  0.00000000000E+00  0.45593999997E+02  0.45594000000E+02  0.51100000000E-03 0.  1.
         11   -1    0    0    0    0 -0.00000000000E+00 -0.00000000000E+00 -0.45593999997E+02  0.45594000000E+02  0.51100000000E-03 0. -1.
    9900012    2    1    2    0    0  0.26116793027E+02  0.16514242962E+02 -0.26426471943E+02  0.50528861815E+02  0.30000005973E+02 0.  0.
        -12    1    1    2    0    0 -0.26116793027E+02 -0.16514242962E+02  0.26426471943E+02  0.40659138185E+02  0.00000000000E+00 0.  1.
         11    1    3    3    0    0  0.21342927824E+02 -0.32968463488E+01 -0.94233048132E+01  0.23562437009E+02  0.51100000000E-03 0.  1.
        -11    1    3    3    0    0  0.25854616724E+01  0.16107009246E+02 -0.11398529824E+02  0.19900925640E+02  0.51100000000E-03 0. -1.
         12    1    3    3    0    0  0.21884035307E+01  0.37040800639E+01 -0.56046373058E+01  0.70654991658E+01  0.00000000000E+00 0. -1.
</event>
<event>
 7    1  0.9930326E-013  0.5052886E+02  0.7816164E-02  0.1300439E+00
        -11   -1    0    0    0    0  0.00000000000E+00  0.00000000000E+00  0.45593999997E+02  0.45594000000E+02  0.51100000000E-03 0.  1.
         11   -1    0    0    0    0 -0.00000000000E+00 -0.00000000000E+00 -0.45593999997E+02  0.45594000000E+02  0.51100000000E-03 0. -1.
    9900012    2    1    2    0    0  0.30982006253E+01  0.70442048373E+01 -0.39924257713E+02  0.50528855606E+02  0.29999987101E+02 0.  0.
        -12    1    1    2    0    0 -0.30982006253E+01 -0.70442048373E+01  0.39924257713E+02  0.40659144394E+02  0.00000000000E+00 0.  1.
         11    1    3    3    0    0 -0.70219303044E+01 -0.36255115739E+01 -0.31009099904E+02  0.32000251819E+02  0.51100000000E-03 0. -1.
        -11    1    3    3    0    0  0.22457891380E+01  0.67622926177E+01 -0.21704321266E+01  0.74486875473E+01  0.51100000000E-03 0.  1.
         12    1    3    3    0    0  0.78743417917E+01  0.39074237935E+01 -0.67447256826E+01  0.11079916240E+02  0.00000000000E+00 0. -1.
</event>
<event>
 7    1  0.9930326E-013  0.5052886E+02  0.7816164E-02  0.1300439E+00
        -11   -1    0    0    0    0  0.00000000000E+00  0.00000000000E+00  0.45593999997E+02  0.45594000000E+02  0.51100000000E-03 0.  1.
         11   -1    0    0    0    0 -0.00000000000E+00 -0.00000000000E+00 -0.45593999997E+02  0.45594000000E+02  0.51100000000E-03 0. -1.
    9900012    2    1    2    0    0 -0.13011397752E+02  0.24343127086E+02 -0.29854339930E+02  0.50528856865E+02  0.29999990927E+02 0.  0.
        -12    1    1    2    0    0  0.13011397752E+02 -0.24343127086E+02  0.29854339930E+02  0.40659143135E+02  0.00000000000E+00 0.  1.
         11    1    3    3    0    0 -0.13969660324E+02  0.14004207013E+01 -0.55276728609E+01  0.15088663136E+02  0.51100000000E-03 0. -1.
        -11    1    3    3    0    0 -0.32122336844E+01  0.15625343617E+02 -0.10018602455E+02  0.18837255740E+02  0.51100000000E-03 0.  1.
         12    1    3    3    0    0  0.41704962557E+01  0.73173627679E+01 -0.14308064614E+02  0.16602937990E+02  0.00000000000E+00 0. -1.
</event>
<event>
 7    1  0.1315001E-012  0.5052886E+02  0.7816164E-02  0.1300439E+00
        -11   -1    0    0    0    0  0.00000000000E+00  0.00000000000E+00  0.45593999997E+02  0.45594000000E+02  0.51100000000E-03 0.  1.
         11   -1    0    0    0    0 -0.00000000000E+00 -0.00000000000E+00 -0.45593999997E+02  0.45594000000E+02  0.51100000000E-03 0. -1.
    9900012    2    1    2    0    0  0.38059220150E+02  0.11239088291E+02  0.88512307094E+01  0.50528860448E+02  0.30000001817E+02 0.  0.
        -12    1    1    2    0    0 -0.38059220150E+02 -0.11239088291E+02 -0.88512307094E+01  0.40659139552E+02  0.00000000000E+00 0.  1.
         11    1    3    3    0    0  0.23762646581E+02 -0.11343327407E+01  0.30162392171E+01  0.23980153931E+02  0.51100000000E-03 0. -1.
        -11    1    3    3    0    0  0.10118640884E+02  0.14818752212E+02 -0.12281397449E+01  0.17985845489E+02  0.51100000000E-03 0.  1.
        -12    1    3    3    0    0  0.41779326854E+01 -0.24453311801E+01  0.70631312372E+01  0.85628610276E+01  0.00000000000E+00 0.  1.
</event>
<event>
 7    1  0.9930326E-013  0.5052888E+02  0.7816164E-02  0.1300439E+00
        -11   -1    0    0    0    0  0.00000000000E+00  0.00000000000E+00  0.45593999997E+02  0.45594000000E+02  0.51100000000E-03 0.  1.
         11   -1    0    0    0    0 -0.00000000000E+00 -0.00000000000E+00 -0.45593999997E+02  0.45594000000E+02  0.51100000000E-03 0. -1.
    9900012    2    1    2    0    0 -0.26320648212E+02  0.51476652113E+01 -0.30559600807E+02  0.50528878257E+02  0.30000055949E+02 0.  0.
        -12    1    1    2    0    0  0.26320648212E+02 -0.51476652113E+01  0.30559600807E+02  0.40659121743E+02  0.00000000000E+00 0.  1.
         11    1    3    3    0    0 -0.18770056876E+02 -0.73452676865E-01 -0.44335302418E+01  0.19286695442E+02  0.51100000000E-03 0. -1.
        -11    1    3    3    0    0  0.28063731389E+01  0.53998868229E+01 -0.14179090385E+02  0.15429877262E+02  0.51100000000E-03 0.  1.
         12    1    3    3    0    0 -0.10356964475E+02 -0.17876893474E+00 -0.11946980180E+02  0.15812305553E+02  0.00000000000E+00 0. -1.
</event>
<event>
 7    1  0.9930326E-013  0.5052886E+02  0.7816164E-02  0.1300439E+00
        -11   -1    0    0    0    0  0.00000000000E+00  0.00000000000E+00  0.45593999997E+02  0.45594000000E+02  0.51100000000E-03 0. -1.
         11   -1    0    0    0    0 -0.00000000000E+00 -0.00000000000E+00 -0.45593999997E+02  0.45594000000E+02  0.51100000000E-03 0.  1.
    9900012    2    1    2    0    0 -0.11520374052E+02  0.35252578537E+02 -0.16664407606E+02  0.50528858437E+02  0.29999995704E+02 0.  0.
        -12    1    1    2    0    0  0.11520374052E+02 -0.35252578537E+02  0.16664407606E+02  0.40659141563E+02  0.00000000000E+00 0.  1.
         11    1    3    3    0    0 -0.93454854881E+01  0.26956150233E+02 -0.20560824252E+01  0.28604188672E+02  0.51100000000E-03 0. -1.
        -11    1    3    3    0    0  0.10685838741E+01 -0.36113016232E+01 -0.51270946336E+01  0.63616405551E+01  0.51100000000E-03 0.  1.
        -12    1    3    3    0    0 -0.32434724379E+01  0.11907729928E+02 -0.94812305475E+01  0.15563029210E+02  0.00000000000E+00 0.  1.
</event>
<event>
 7    1  0.9930326E-013  0.5052890E+02  0.7816164E-02  0.1300439E+00
        -11   -1    0    0    0    0  0.00000000000E+00  0.00000000000E+00  0.45593999997E+02  0.45594000000E+02  0.51100000000E-03 0.  1.
         11   -1    0    0    0    0 -0.00000000000E+00 -0.00000000000E+00 -0.45593999997E+02  0.45594000000E+02  0.51100000000E-03 0. -1.
    9900012    2    1    2    0    0 -0.65322825189E+01  0.55025542545E+01 -0.39751903620E+02  0.50528896965E+02  0.30000112813E+02 0.  0.
        -12    1    1    2    0    0  0.65322825189E+01 -0.55025542545E+01  0.39751903620E+02  0.40659103035E+02  0.00000000000E+00 0.  1.
         11    1    3    3    0    0 -0.13390773151E+02  0.80792457358E+01 -0.10020761639E+02  0.18574247800E+02  0.51100000000E-03 0. -1.
        -11    1    3    3    0    0  0.34581563500E+01 -0.45379518598E+01 -0.77381675500E+01  0.96141088883E+01  0.51100000000E-03 0.  1.
         12    1    3    3    0    0  0.34003342823E+01  0.19612603785E+01 -0.21992974431E+02  0.22340540276E+02  0.00000000000E+00 0. -1.
</event>
<event>
 7    1  0.9930326E-013  0.5052886E+02  0.7816164E-02  0.1300439E+00
        -11   -1    0    0    0    0  0.00000000000E+00  0.00000000000E+00  0.45593999997E+02  0.45594000000E+02  0.51100000000E-03 0.  1.
         11   -1    0    0    0    0 -0.00000000000E+00 -0.00000000000E+00 -0.45593999997E+02  0.45594000000E+02  0.51100000000E-03 0. -1.
    9900012    2    1    2    0    0  0.35710471669E+02  0.18612362499E+02  0.56132190001E+01  0.50528855246E+02  0.29999986004E+02 0.  0.
        -12    1    1    2    0    0 -0.35710471669E+02 -0.18612362499E+02 -0.56132190001E+01  0.40659144754E+02  0.00000000000E+00 0.  1.
         11    1    3    3    0    0  0.20008616414E+02  0.57856888514E+01  0.87242297893E+01  0.22581654323E+02  0.51100000000E-03 0.  1.
        -11    1    3    3    0    0  0.14406667395E+02  0.10636838705E+02 -0.10064866906E+02  0.20542539988E+02  0.51100000000E-03 0. -1.
         12    1    3    3    0    0  0.12951878600E+01  0.21898349430E+01  0.69538561165E+01  0.74046609348E+01  0.00000000000E+00 0. -1.
</event>
<event>
 7    1  0.9930326E-013  0.5052888E+02  0.7816164E-02  0.1300439E+00
        -11   -1    0    0    0    0  0.00000000000E+00  0.00000000000E+00  0.45593999997E+02  0.45594000000E+02  0.51100000000E-03 0. -1.
         11   -1    0    0    0    0 -0.00000000000E+00 -0.00000000000E+00 -0.45593999997E+02  0.45594000000E+02  0.51100000000E-03 0.  1.
    9900012    2    1    2    0    0  0.30403429933E+01 -0.38038932263E+02  0.14034248125E+02  0.50528878346E+02  0.30000056221E+02 0.  0.
        -12    1    1    2    0    0 -0.30403429933E+01  0.38038932263E+02 -0.14034248125E+02  0.40659121654E+02  0.00000000000E+00 0.  1.
         11    1    3    3    0    0 -0.11806572795E+02 -0.24303738477E+02  0.81251296519E+01  0.28214971155E+02  0.51100000000E-03 0. -1.
        -11    1    3    3    0    0  0.37775782124E+01 -0.10565804746E+00 -0.27425689024E-01  0.37791550912E+01  0.51100000000E-03 0.  1.
         12    1    3    3    0    0  0.11069337576E+02 -0.13629535738E+02  0.59365441626E+01  0.18534752100E+02  0.00000000000E+00 0. -1.
</event>
<event>
 7    1  0.9930326E-013  0.5052887E+02  0.7816164E-02  0.1300439E+00
        -11   -1    0    0    0    0  0.00000000000E+00  0.00000000000E+00  0.45593999997E+02  0.45594000000E+02  0.51100000000E-03 0. -1.
         11   -1    0    0    0    0 -0.00000000000E+00 -0.00000000000E+00 -0.45593999997E+02  0.45594000000E+02  0.51100000000E-03 0.  1.
    9900012    2    1    2    0    0 -0.30894569139E+02  0.17791144336E+02  0.19549057626E+02  0.50528869745E+02  0.30000030075E+02 0.  0.
        -12    1    1    2    0    0  0.30894569139E+02 -0.17791144336E+02 -0.19549057626E+02  0.40659130255E+02  0.00000000000E+00 0.  1.
         11    1    3    3    0    0 -0.51228713045E+00  0.67435777958E+01  0.50475295896E+01  0.84389474942E+01  0.51100000000E-03 0. -1.
        -11    1    3    3    0    0 -0.30805632466E+02  0.12296440399E+02  0.18430433941E+02  0.37945623379E+02  0.51100000000E-03 0.  1.
        -12    1    3    3    0    0  0.42335045787E+00 -0.12488738587E+01 -0.39289059044E+01  0.41442988709E+01  0.00000000000E+00 0.  1.
</event>
<event>
 7    1  0.9930326E-013  0.5052892E+02  0.7816164E-02  0.1300439E+00
        -11   -1    0    0    0    0  0.00000000000E+00  0.00000000000E+00  0.45593999997E+02  0.45594000000E+02  0.51100000000E-03 0.  1.
         11   -1    0    0    0    0 -0.00000000000E+00 -0.00000000000E+00 -0.45593999997E+02  0.45594000000E+02  0.51100000000E-03 0. -1.
    9900012    2    1    2    0    0 -0.18273349478E+02  0.33091544807E+02 -0.14973158509E+02  0.50528915965E+02  0.30000170567E+02 0.  0.
        -12    1    1    2    0    0  0.18273349478E+02 -0.33091544807E+02  0.14973158509E+02  0.40659084035E+02  0.00000000000E+00 0.  1.
         11    1    3    3    0    0 -0.10817227500E+01  0.10672115755E+02 -0.69979301641E+01  0.12807622950E+02  0.51100000000E-03 0. -1.
        -11    1    3    3    0    0  0.11972489125E+01 -0.90151635185E+00  0.50676931352E+01  0.52846618307E+01  0.51100000000E-03 0.  1.
        -12    1    3    3    0    0 -0.18388875640E+02  0.23320945404E+02 -0.13042921480E+02  0.32436631184E+02  0.00000000000E+00 0.  1.
</event>
<event>
 7    1  0.9930326E-013  0.5052886E+02  0.7816164E-02  0.1300439E+00
        -11   -1    0    0    0    0  0.00000000000E+00  0.00000000000E+00  0.45593999997E+02  0.45594000000E+02  0.51100000000E-03 0.  1.
         11   -1    0    0    0    0 -0.00000000000E+00 -0.00000000000E+00 -0.45593999997E+02  0.45594000000E+02  0.51100000000E-03 0. -1.
    9900012    2    1    2    0    0 -0.27641154610E+02 -0.39182052433E+01 -0.29559775188E+02  0.50528855030E+02  0.29999985350E+02 0.  0.
        -12    1    1    2    0    0  0.27641154610E+02  0.39182052433E+01  0.29559775188E+02  0.40659144970E+02  0.00000000000E+00 0.  1.
         11    1    3    3    0    0 -0.18763699964E+02  0.30220603283E+01 -0.82805781401E+01  0.20731069909E+02  0.51100000000E-03 0. -1.
        -11    1    3    3    0    0  0.46947387244E+01  0.25172383387E+00 -0.19031235588E+01  0.50720623143E+01  0.51100000000E-03 0.  1.
        -12    1    3    3    0    0 -0.13572193371E+02 -0.71919894054E+01 -0.19376073489E+02  0.24725722807E+02  0.00000000000E+00 0.  1.
</event>
<event>
 7    1  0.9930326E-013  0.5052887E+02  0.7816164E-02  0.1300439E+00
        -11   -1    0    0    0    0  0.00000000000E+00  0.00000000000E+00  0.45593999997E+02  0.45594000000E+02  0.51100000000E-03 0. -1.
         11   -1    0    0    0    0 -0.00000000000E+00 -0.00000000000E+00 -0.45593999997E+02  0.45594000000E+02  0.51100000000E-03 0.  1.
    9900012    2    1    2    0    0 -0.15316122004E+02  0.23327205496E+01  0.37591747738E+02  0.50528872164E+02  0.30000037430E+02 0.  0.
        -12    1    1    2    0    0  0.15316122004E+02 -0.23327205496E+01 -0.37591747738E+02  0.40659127836E+02  0.00000000000E+00 0.  1.
         11    1    3    3    0    0 -0.20332271792E+01  0.93653902037E+01  0.23828976023E+02  0.25683937490E+02  0.51100000000E-03 0. -1.
        -11    1    3    3    0    0 -0.11360893511E+02 -0.96785725678E+01  0.54102213629E+01  0.15874985473E+02  0.51100000000E-03 0.  1.
        -12    1    3    3    0    0 -0.19220013130E+01  0.26459029136E+01  0.83525503523E+01  0.89699492007E+01  0.00000000000E+00 0.  1.
</event>
<event>
 7    1  0.9930326E-013  0.5052886E+02  0.7816164E-02  0.1300439E+00
        -11   -1    0    0    0    0  0.00000000000E+00  0.00000000000E+00  0.45593999997E+02  0.45594000000E+02  0.51100000000E-03 0.  1.
         11   -1    0    0    0    0 -0.00000000000E+00 -0.00000000000E+00 -0.45593999997E+02  0.45594000000E+02  0.51100000000E-03 0. -1.
    9900012    2    1    2    0    0  0.37880248555E+02 -0.78162039793E+01 -0.12536317059E+02  0.50528861782E+02  0.30000005872E+02 0.  0.
        -12    1    1    2    0    0 -0.37880248555E+02  0.78162039793E+01  0.12536317059E+02  0.40659138218E+02  0.00000000000E+00 0.  1.
         11    1    3    3    0    0  0.17762160004E+02 -0.11874354490E+02 -0.32574683007E+00  0.21368217844E+02  0.51100000000E-03 0. -1.
        -11    1    3    3    0    0  0.73087123608E+01  0.71772006551E+01  0.12497882840E+01  0.10319469784E+02  0.51100000000E-03 0.  1.
        -12    1    3    3    0    0  0.12809376190E+02 -0.31190501444E+01 -0.13460358513E+02  0.18841174153E+02  0.00000000000E+00 0.  1.
</event>
<event>
 7    1  0.9930326E-013  0.5052885E+02  0.7816164E-02  0.1300439E+00
        -11   -1    0    0    0    0  0.00000000000E+00  0.00000000000E+00  0.45593999997E+02  0.45594000000E+02  0.51100000000E-03 0. -1.
         11   -1    0    0    0    0 -0.00000000000E+00 -0.00000000000E+00 -0.45593999997E+02  0.45594000000E+02  0.51100000000E-03 0.  1.
    9900012    2    1    2    0    0 -0.16601021749E+02  0.36914109300E+02 -0.38627353589E+01  0.50528854498E+02  0.29999983732E+02 0.  0.
        -12    1    1    2    0    0  0.16601021749E+02 -0.36914109300E+02  0.38627353589E+01  0.40659145502E+02  0.00000000000E+00 0.  1.
         11    1    3    3    0    0 -0.10333098635E+01  0.26877790093E+02  0.54922592362E+01  0.27452654541E+02  0.51100000000E-03 0. -1.
        -11    1    3    3    0    0 -0.63931369891E+01  0.46385156514E+01 -0.95961897593E+01  0.12428792627E+02  0.51100000000E-03 0.  1.
        -12    1    3    3    0    0 -0.91745748961E+01  0.53978035554E+01  0.24119516423E+00  0.10647407330E+02  0.00000000000E+00 0.  1.
</event>
<event>
 7    1  0.9930326E-013  0.5052884E+02  0.7816164E-02  0.1300439E+00
        -11   -1    0    0    0    0  0.00000000000E+00  0.00000000000E+00  0.45593999997E+02  0.45594000000E+02  0.51100000000E-03 0. -1.
         11   -1    0    0    0    0 -0.00000000000E+00 -0.00000000000E+00 -0.45593999997E+02  0.45594000000E+02  0.51100000000E-03 0.  1.
    9900012    2    1    2    0    0  0.50382959586E+01  0.39956322607E+02 -0.55924234115E+01  0.50528839383E+02  0.29999937790E+02 0.  0.
        -12    1    1    2    0    0 -0.50382959586E+01 -0.39956322607E+02  0.55924234115E+01  0.40659160617E+02  0.00000000000E+00 0.  1.
         11    1    3    3    0    0  0.64915124618E+01  0.34532784662E+02 -0.15359651850E+02  0.38348035879E+02  0.51100000000E-03 0. -1.
        -11    1    3    3    0    0 -0.92996174770E+00 -0.24411336256E+00  0.38589101415E+01  0.39768841984E+01  0.51100000000E-03 0.  1.
        -12    1    3    3    0    0 -0.52325475558E+00  0.56676513071E+01  0.59083182969E+01  0.82039193057E+01  0.00000000000E+00 0.  1.
</event>
<event>
 7    1  0.9930326E-013  0.5052885E+02  0.7816164E-02  0.1300439E+00
        -11   -1    0    0    0    0  0.00000000000E+00  0.00000000000E+00  0.45593999997E+02  0.45594000000E+02  0.51100000000E-03 0. -1.
         11   -1    0    0    0    0 -0.00000000000E+00 -0.00000000000E+00 -0.45593999997E+02  0.45594000000E+02  0.51100000000E-03 0.  1.
    9900012    2    1    2    0    0  0.18995007283E+02 -0.30931250550E+02  0.18319760672E+02  0.50528853509E+02  0.29999980727E+02 0.  0.
        -12    1    1    2    0    0 -0.18995007283E+02  0.30931250550E+02 -0.18319760672E+02  0.40659146491E+02  0.00000000000E+00 0.  1.
         11    1    3    3    0    0  0.45687176892E+01 -0.20408250912E+01  0.15523904611E+02  0.16310418849E+02  0.51100000000E-03 0.  1.
        -11    1    3    3    0    0  0.12177379309E+02 -0.13013355395E+02 -0.57834774515E+00  0.17831726553E+02  0.51100000000E-03 0. -1.
         12    1    3    3    0    0  0.22489102845E+01 -0.15877070064E+02  0.33742038057E+01  0.16386708108E+02  0.00000000000E+00 0. -1.
</event>
<event>
 7    1  0.9930326E-013  0.5052885E+02  0.7816164E-02  0.1300439E+00
        -11   -1    0    0    0    0  0.00000000000E+00  0.00000000000E+00  0.45593999997E+02  0.45594000000E+02  0.51100000000E-03 0.  1.
         11   -1    0    0    0    0 -0.00000000000E+00 -0.00000000000E+00 -0.45593999997E+02  0.45594000000E+02  0.51100000000E-03 0. -1.
    9900012    2    1    2    0    0  0.34935043077E+02 -0.20237138477E+02 -0.48132516058E+01  0.50528850973E+02  0.29999973019E+02 0.  0.
        -12    1    1    2    0    0 -0.34935043077E+02  0.20237138477E+02  0.48132516058E+01  0.40659149027E+02  0.00000000000E+00 0.  1.
         11    1    3    3    0    0  0.62594236653E+01 -0.14534204293E+02  0.52137714603E+00  0.15833360776E+02  0.51100000000E-03 0. -1.
        -11    1    3    3    0    0  0.25728190733E+02 -0.12221727020E+00 -0.91658447225E+01  0.27312404603E+02  0.51100000000E-03 0.  1.
        -12    1    3    3    0    0  0.29474286786E+01 -0.55807169137E+01  0.38312159706E+01  0.73830855948E+01  0.00000000000E+00 0.  1.
</event>
<event>
 7    1  0.9930326E-013  0.5052886E+02  0.7816164E-02  0.1300439E+00
        -11   -1    0    0    0    0  0.00000000000E+00  0.00000000000E+00  0.45593999997E+02  0.45594000000E+02  0.51100000000E-03 0.  1.
         11   -1    0    0    0    0 -0.00000000000E+00 -0.00000000000E+00 -0.45593999997E+02  0.45594000000E+02  0.51100000000E-03 0. -1.
    9900012    2    1    2    0    0 -0.17537401961E+02 -0.26307476562E+02 -0.25564081327E+02  0.50528855338E+02  0.29999986285E+02 0.  0.
        -12    1    1    2    0    0  0.17537401961E+02  0.26307476562E+02  0.25564081327E+02  0.40659144662E+02  0.00000000000E+00 0.  1.
         11    1    3    3    0    0 -0.51170532738E+00 -0.12563407815E+01 -0.11352302933E+02  0.11433066808E+02  0.51100000000E-03 0. -1.
        -11    1    3    3    0    0 -0.16773745062E+02 -0.20015789733E+02 -0.23661771850E+01  0.26221921302E+02  0.51100000000E-03 0.  1.
        -12    1    3    3    0    0 -0.25195157214E+00 -0.50353460471E+01 -0.11845601209E+02  0.12873867228E+02  0.00000000000E+00 0.  1.
</event>
<event>
 7    1  0.9930326E-013  0.5052886E+02  0.7816164E-02  0.1300439E+00
        -11   -1    0    0    0    0  0.00000000000E+00  0.00000000000E+00  0.45593999997E+02  0.45594000000E+02  0.51100000000E-03 0.  1.
         11   -1    0    0    0    0 -0.00000000000E+00 -0.00000000000E+00 -0.45593999997E+02  0.45594000000E+02  0.51100000000E-03 0. -1.
    9900012    2    1    2    0    0 -0.25445438109E+02 -0.21836019423E+02 -0.22997466771E+02  0.50528861510E+02  0.30000005047E+02 0.  0.
        -12    1    1    2    0    0  0.25445438109E+02  0.21836019423E+02  0.22997466771E+02  0.40659138490E+02  0.00000000000E+00 0.  1.
         11    1    3    3    0    0 -0.57408161070E+01  0.13154274034E+01 -0.10154746436E+02  0.11739088307E+02  0.51100000000E-03 0. -1.
        -11    1    3    3    0    0 -0.22639924508E+01 -0.11018515970E+02  0.37231862178E+01  0.11848859518E+02  0.51100000000E-03 0.  1.
        -12    1    3    3    0    0 -0.17440629551E+02 -0.12132930857E+02 -0.16565906553E+02  0.26940913686E+02  0.00000000000E+00 0.  1.
</event>
<event>
 7    1  0.9930326E-013  0.5052887E+02  0.7816164E-02  0.1300439E+00
        -11   -1    0    0    0    0  0.00000000000E+00  0.00000000000E+00  0.45593999997E+02  0.45594000000E+02  0.51100000000E-03 0.  1.
         11   -1    0    0    0    0 -0.00000000000E+00 -0.00000000000E+00 -0.45593999997E+02  0.45594000000E+02  0.51100000000E-03 0. -1.
    9900012    2    1    2    0    0  0.20924244100E+02  0.77800810804E+01 -0.33982518834E+02  0.50528865244E+02  0.30000016396E+02 0.  0.
        -12    1    1    2    0    0 -0.20924244100E+02 -0.77800810804E+01  0.33982518834E+02  0.40659134756E+02  0.00000000000E+00 0.  1.
         11    1    3    3    0    0  0.78400997267E+01  0.29352180614E+00 -0.17356845908E+02  0.19047661770E+02  0.51100000000E-03 0. -1.
        -11    1    3    3    0    0  0.12290448418E+01  0.82710361375E+00  0.53982910348E+01  0.55978744152E+01  0.51100000000E-03 0.  1.
        -12    1    3    3    0    0  0.11855099532E+02  0.66594556605E+01 -0.22023963961E+02  0.25883329059E+02  0.00000000000E+00 0.  1.
</event>
<event>
 7    1  0.9930326E-013  0.5052885E+02  0.7816164E-02  0.1300439E+00
        -11   -1    0    0    0    0  0.00000000000E+00  0.00000000000E+00  0.45593999997E+02  0.45594000000E+02  0.51100000000E-03 0.  1.
         11   -1    0    0    0    0 -0.00000000000E+00 -0.00000000000E+00 -0.45593999997E+02  0.45594000000E+02  0.51100000000E-03 0. -1.
    9900012    2    1    2    0    0  0.36793427975E+02  0.17188445553E+02 -0.19917682907E+01  0.50528854121E+02  0.29999982588E+02 0.  0.
        -12    1    1    2    0    0 -0.36793427975E+02 -0.17188445553E+02  0.19917682907E+01  0.40659145879E+02  0.00000000000E+00 0.  1.
         11    1    3    3    0    0  0.66165108932E+01 -0.14024649032E+01  0.40365282418E+00  0.67755486913E+01  0.51100000000E-03 0. -1.
        -11    1    3    3    0    0  0.25741724192E+02  0.22877844558E+02 -0.80701155698E+01  0.35371724605E+02  0.51100000000E-03 0.  1.
        -12    1    3    3    0    0  0.44351928898E+01 -0.42869341022E+01  0.56746944549E+01  0.83815808248E+01  0.00000000000E+00 0.  1.
</event>
<event>
 7    1  0.9930326E-013  0.5052887E+02  0.7816164E-02  0.1300439E+00
        -11   -1    0    0    0    0  0.00000000000E+00  0.00000000000E+00  0.45593999997E+02  0.45594000000E+02  0.51100000000E-03 0. -1.
         11   -1    0    0    0    0 -0.00000000000E+00 -0.00000000000E+00 -0.45593999997E+02  0.45594000000E+02  0.51100000000E-03 0.  1.
    9900012    2    1    2    0    0 -0.28171343956E+01 -0.17590303847E+02 -0.36548737313E+02  0.50528865297E+02  0.30000016556E+02 0.  0.
        -12    1    1    2    0    0  0.28171343956E+01  0.17590303847E+02  0.36548737313E+02  0.40659134703E+02  0.00000000000E+00 0.  1.
         11    1    3    3    0    0 -0.62679317684E+01 -0.20942309710E+02 -0.24740494709E+02  0.33014532911E+02  0.51100000000E-03 0. -1.
        -11    1    3    3    0    0 -0.54373179785E+00  0.65775120933E+01 -0.10172270876E+02  0.12125774393E+02  0.51100000000E-03 0.  1.
         12    1    3    3    0    0  0.39945291706E+01 -0.32255062311E+01 -0.16359717278E+01  0.53885579922E+01  0.00000000000E+00 0. -1.
</event>
<event>
 7    1  0.9930326E-013  0.5052886E+02  0.7816164E-02  0.1300439E+00
        -11   -1    0    0    0    0  0.00000000000E+00  0.00000000000E+00  0.45593999997E+02  0.45594000000E+02  0.51100000000E-03 0.  1.
         11   -1    0    0    0    0 -0.00000000000E+00 -0.00000000000E+00 -0.45593999997E+02  0.45594000000E+02  0.51100000000E-03 0. -1.
    9900012    2    1    2    0    0 -0.25411499881E+02 -0.89415760834E+01 -0.30454384208E+02  0.50528860479E+02  0.30000001913E+02 0.  0.
        -12    1    1    2    0    0  0.25411499881E+02  0.89415760834E+01  0.30454384208E+02  0.40659139521E+02  0.00000000000E+00 0.  1.
         11    1    3    3    0    0 -0.13475396598E+02 -0.10128992839E+02 -0.15113927331E+02  0.22640971910E+02  0.51100000000E-03 0. -1.
        -11    1    3    3    0    0 -0.16077254896E+02  0.57979481410E+01 -0.11399767662E+02  0.20543831936E+02  0.51100000000E-03 0.  1.
        -12    1    3    3    0    0  0.41411516124E+01 -0.46105313858E+01 -0.39406892154E+01  0.73440566330E+01  0.00000000000E+00 0.  1.
</event>
<event>
 7    1  0.9930326E-013  0.5052885E+02  0.7816164E-02  0.1300439E+00
        -11   -1    0    0    0    0  0.00000000000E+00  0.00000000000E+00  0.45593999997E+02  0.45594000000E+02  0.51100000000E-03 0.  1.
         11   -1    0    0    0    0 -0.00000000000E+00 -0.00000000000E+00 -0.45593999997E+02  0.45594000000E+02  0.51100000000E-03 0. -1.
    9900012    2    1    2    0    0  0.93910923897E+01  0.31619426281E+02 -0.23773636904E+02  0.50528849170E+02  0.29999967536E+02 0.  0.
        -12    1    1    2    0    0 -0.93910923897E+01 -0.31619426281E+02  0.23773636904E+02  0.40659150830E+02  0.00000000000E+00 0.  1.
         11    1    3    3    0    0  0.58449634187E+01  0.34849658963E+02 -0.25463301053E+02  0.43555045953E+02  0.51100000000E-03 0. -1.
        -11    1    3    3    0    0 -0.11565980190E+01 -0.11202143692E+01  0.34062633364E+00  0.16457903179E+01  0.51100000000E-03 0.  1.
         12    1    3    3    0    0  0.47027269900E+01 -0.21100183127E+01  0.13490378152E+01  0.53280128987E+01  0.00000000000E+00 0. -1.
</event>
<event>
 7    1  0.9930326E-013  0.5052886E+02  0.7816164E-02  0.1300439E+00
        -11   -1    0    0    0    0  0.00000000000E+00  0.00000000000E+00  0.45593999997E+02  0.45594000000E+02  0.51100000000E-03 0.  1.
         11   -1    0    0    0    0 -0.00000000000E+00 -0.00000000000E+00 -0.45593999997E+02  0.45594000000E+02  0.51100000000E-03 0. -1.
    9900012    2    1    2    0    0  0.20898204702E+02  0.43604339485E+01 -0.34603723186E+02  0.50528855859E+02  0.29999987868E+02 0.  0.
        -12    1    1    2    0    0 -0.20898204702E+02 -0.43604339485E+01  0.34603723186E+02  0.40659144141E+02  0.00000000000E+00 0.  1.
         11    1    3    3    0    0  0.11861832533E+02  0.56549275123E+01 -0.33047471621E+02  0.35564260952E+02  0.51100000000E-03 0. -1.
        -11    1    3    3    0    0  0.14376638469E+01  0.33230423740E+01  0.32427224701E+01  0.48605284934E+01  0.51100000000E-03 0.  1.
         12    1    3    3    0    0  0.75987083225E+01 -0.46175359378E+01 -0.47989740344E+01  0.10104066414E+02  0.00000000000E+00 0. -1.
</event>
<event>
 7    1  0.9930326E-013  0.5052886E+02  0.7816164E-02  0.1300439E+00
        -11   -1    0    0    0    0  0.00000000000E+00  0.00000000000E+00  0.45593999997E+02  0.45594000000E+02  0.51100000000E-03 0.  1.
         11   -1    0    0    0    0 -0.00000000000E+00 -0.00000000000E+00 -0.45593999997E+02  0.45594000000E+02  0.51100000000E-03 0. -1.
    9900012    2    1    2    0    0 -0.25096870254E+02  0.19354077379E+02 -0.25470226724E+02  0.50528860103E+02  0.30000000770E+02 0.  0.
        -12    1    1    2    0    0  0.25096870254E+02 -0.19354077379E+02  0.25470226724E+02  0.40659139897E+02  0.00000000000E+00 0.  1.
         11    1    3    3    0    0 -0.15193948514E+02 -0.33207336007E+01 -0.60748837170E+01  0.16696932519E+02  0.51100000000E-03 0.  1.
        -11    1    3    3    0    0 -0.10370876716E+02  0.19219923567E+02 -0.20717945236E+02  0.30103053016E+02  0.51100000000E-03 0. -1.
        -12    1    3    3    0    0  0.46795497591E+00  0.34548874124E+01  0.13226022294E+01  0.37288745687E+01  0.00000000000E+00 0.  1.
</event>
<event>
 7    1  0.9930326E-013  0.5052886E+02  0.7816164E-02  0.1300439E+00
        -11   -1    0    0    0    0  0.00000000000E+00  0.00000000000E+00  0.45593999997E+02  0.45594000000E+02  0.51100000000E-03 0.  1.
         11   -1    0    0    0    0 -0.00000000000E+00 -0.00000000000E+00 -0.45593999997E+02  0.45594000000E+02  0.51100000000E-03 0. -1.
    9900012    2    1    2    0    0 -0.17106111095E+02 -0.35947680906E+02 -0.82650427294E+01  0.50528859200E+02  0.29999998024E+02 0.  0.
        -12    1    1    2    0    0  0.17106111095E+02  0.35947680906E+02  0.82650427294E+01  0.40659140800E+02  0.00000000000E+00 0.  1.
         11    1    3    3    0    0 -0.11092432305E+02 -0.11243073589E+02 -0.99111565476E+00  0.15825014018E+02  0.51100000000E-03 0. -1.
        -11    1    3    3    0    0  0.65310468604E+01 -0.10082564075E+02  0.36515048431E+01  0.12555722174E+02  0.51100000000E-03 0.  1.
        -12    1    3    3    0    0 -0.12544725650E+02 -0.14622043241E+02 -0.10925431918E+02  0.22148123008E+02  0.00000000000E+00 0.  1.
</event>
<event>
 7    1  0.9930326E-013  0.5052886E+02  0.7816164E-02  0.1300439E+00
        -11   -1    0    0    0    0  0.00000000000E+00  0.00000000000E+00  0.45593999997E+02  0.45594000000E+02  0.51100000000E-03 0. -1.
         11   -1    0    0    0    0 -0.00000000000E+00 -0.00000000000E+00 -0.45593999997E+02  0.45594000000E+02  0.51100000000E-03 0.  1.
    9900012    2    1    2    0    0  0.19846911110E+02  0.31610702037E+02  0.16125416874E+02  0.50528862856E+02  0.30000009138E+02 0.  0.
        -12    1    1    2    0    0 -0.19846911110E+02 -0.31610702037E+02 -0.16125416874E+02  0.40659137144E+02  0.00000000000E+00 0.  1.
         11    1    3    3    0    0  0.67415390652E+01  0.20265387116E+02  0.21142685724E+02  0.30052411281E+02  0.51100000000E-03 0. -1.
        -11    1    3    3    0    0  0.44966374753E+01  0.69445595477E+01 -0.67209248552E+01  0.10659150391E+02  0.51100000000E-03 0.  1.
         12    1    3    3    0    0  0.86087345698E+01  0.44007553739E+01  0.17036560052E+01  0.98173011840E+01  0.00000000000E+00 0. -1.
</event>
<event>
 7    1  0.9930326E-013  0.5052887E+02  0.7816164E-02  0.1300439E+00
        -11   -1    0    0    0    0  0.00000000000E+00  0.00000000000E+00  0.45593999997E+02  0.45594000000E+02  0.51100000000E-03 0.  1.
         11   -1    0    0    0    0 -0.00000000000E+00 -0.00000000000E+00 -0.45593999997E+02  0.45594000000E+02  0.51100000000E-03 0. -1.
    9900012    2    1    2    0    0  0.12651303433E+02  0.38615667844E+02  0.13927903978E+01  0.50528866380E+02  0.30000019850E+02 0.  0.
        -12    1    1    2    0    0 -0.12651303433E+02 -0.38615667844E+02 -0.13927903978E+01  0.40659133620E+02  0.00000000000E+00 0.  1.
         11    1    3    3    0    0  0.83696291748E+01  0.28679882158E+02  0.56554671918E+00  0.29881535711E+02  0.51100000000E-03 0. -1.
        -11    1    3    3    0    0  0.14295256856E+01 -0.17106249786E+01  0.68682324326E+01  0.72209693610E+01  0.51100000000E-03 0.  1.
         12    1    3    3    0    0  0.28521485731E+01  0.11646410665E+02 -0.60409887540E+01  0.13426361308E+02  0.00000000000E+00 0. -1.
</event>
<event>
 7    1  0.9930326E-013  0.5052885E+02  0.7816164E-02  0.1300439E+00
        -11   -1    0    0    0    0  0.00000000000E+00  0.00000000000E+00  0.45593999997E+02  0.45594000000E+02  0.51100000000E-03 0. -1.
         11   -1    0    0    0    0 -0.00000000000E+00 -0.00000000000E+00 -0.45593999997E+02  0.45594000000E+02  0.51100000000E-03 0.  1.
    9900012    2    1    2    0    0  0.11862341498E+02 -0.37980178719E+02 -0.83640490719E+01  0.50528850498E+02  0.29999971572E+02 0.  0.
        -12    1    1    2    0    0 -0.11862341498E+02  0.37980178719E+02  0.83640490719E+01  0.40659149502E+02  0.00000000000E+00 0.  1.
         11    1    3    3    0    0 -0.15996367145E+01 -0.18360411741E+02  0.43435791678E+01  0.18934894696E+02  0.51100000000E-03 0. -1.
        -11    1    3    3    0    0  0.95571946827E+01 -0.63945335822E+01 -0.13558417190E+02  0.17778096268E+02  0.51100000000E-03 0.  1.
        -12    1    3    3    0    0  0.39047835302E+01 -0.13225233397E+02  0.85078895071E+00  0.13815859534E+02  0.00000000000E+00 0.  1.
</event>
<event>
 7    1  0.9930326E-013  0.5052886E+02  0.7816164E-02  0.1300439E+00
        -11   -1    0    0    0    0  0.00000000000E+00  0.00000000000E+00  0.45593999997E+02  0.45594000000E+02  0.51100000000E-03 0.  1.
         11   -1    0    0    0    0 -0.00000000000E+00 -0.00000000000E+00 -0.45593999997E+02  0.45594000000E+02  0.51100000000E-03 0. -1.
    9900012    2    1    2    0    0  0.32061126777E+02  0.18444306866E+02 -0.16883651179E+02  0.50528856095E+02  0.29999988586E+02 0.  0.
        -12    1    1    2    0    0 -0.32061126777E+02 -0.18444306866E+02  0.16883651179E+02  0.40659143905E+02  0.00000000000E+00 0.  1.
         11    1    3    3    0    0 -0.65550799742E+00  0.10487014334E+02 -0.93206750620E+01  0.14045716224E+02  0.51100000000E-03 0.  1.
        -11    1    3    3    0    0  0.21411336603E+02  0.45857103361E+01  0.97781171054E+00  0.21918717809E+02  0.51100000000E-03 0. -1.
         12    1    3    3    0    0  0.11305298172E+02  0.33715821951E+01 -0.85407878279E+01  0.14564422061E+02  0.00000000000E+00 0. -1.
</event>
<event>
 7    1  0.9930326E-013  0.5052892E+02  0.7816164E-02  0.1300439E+00
        -11   -1    0    0    0    0  0.00000000000E+00  0.00000000000E+00  0.45593999997E+02  0.45594000000E+02  0.51100000000E-03 0.  1.
         11   -1    0    0    0    0 -0.00000000000E+00 -0.00000000000E+00 -0.45593999997E+02  0.45594000000E+02  0.51100000000E-03 0. -1.
    9900012    2    1    2    0    0  0.21333678810E+02  0.33791120273E+02 -0.74963370580E+01  0.50528920692E+02  0.30000184936E+02 0.  0.
        -12    1    1    2    0    0 -0.21333678810E+02 -0.33791120273E+02  0.74963370580E+01  0.40659079308E+02  0.00000000000E+00 0.  1.
         11    1    3    3    0    0  0.21766328707E+01  0.25033589755E+02 -0.79817983844E+01  0.26365269815E+02  0.51100000000E-03 0. -1.
        -11    1    3    3    0    0  0.12150961404E+02  0.52635091707E+01  0.60499721468E+01  0.14558590422E+02  0.51100000000E-03 0.  1.
        -12    1    3    3    0    0  0.70060845358E+01  0.34940213467E+01 -0.55645108205E+01  0.96050604561E+01  0.00000000000E+00 0.  1.
</event>
<event>
 7    1  0.9930326E-013  0.5052886E+02  0.7816164E-02  0.1300439E+00
        -11   -1    0    0    0    0  0.00000000000E+00  0.00000000000E+00  0.45593999997E+02  0.45594000000E+02  0.51100000000E-03 0.  1.
         11   -1    0    0    0    0 -0.00000000000E+00 -0.00000000000E+00 -0.45593999997E+02  0.45594000000E+02  0.51100000000E-03 0. -1.
    9900012    2    1    2    0    0 -0.27667118289E+01  0.95244569392E-01 -0.40564787662E+02  0.50528858790E+02  0.29999996778E+02 0.  0.
        -12    1    1    2    0    0  0.27667118289E+01 -0.95244569392E-01  0.40564787662E+02  0.40659141210E+02  0.00000000000E+00 0.  1.
         11    1    3    3    0    0  0.11235635101E+02 -0.77606078871E+00 -0.14405782471E+02  0.18285741312E+02  0.51100000000E-03 0. -1.
        -11    1    3    3    0    0 -0.15856479802E+02 -0.13759102812E+01 -0.22637657985E+02  0.27672814098E+02  0.51100000000E-03 0.  1.
         12    1    3    3    0    0  0.18541328715E+01  0.22472156393E+01 -0.35213472064E+01  0.45703033797E+01  0.00000000000E+00 0. -1.
</event>
<event>
 7    1  0.9930326E-013  0.5052886E+02  0.7816164E-02  0.1300439E+00
        -11   -1    0    0    0    0  0.00000000000E+00  0.00000000000E+00  0.45593999997E+02  0.45594000000E+02  0.51100000000E-03 0.  1.
         11   -1    0    0    0    0 -0.00000000000E+00 -0.00000000000E+00 -0.45593999997E+02  0.45594000000E+02  0.51100000000E-03 0. -1.
    9900012    2    1    2    0    0 -0.30290951185E+01 -0.25213918262E+02 -0.31752924690E+02  0.50528864277E+02  0.30000013457E+02 0.  0.
        -12    1    1    2    0    0  0.30290951185E+01  0.25213918262E+02  0.31752924690E+02  0.40659135723E+02  0.00000000000E+00 0.  1.
         11    1    3    3    0    0  0.16681047046E+00 -0.10179058594E+02 -0.32965858929E+02  0.34502013199E+02  0.51100000000E-03 0. -1.
        -11    1    3    3    0    0 -0.30626076057E+01 -0.58778803252E+01  0.17440251651E+01  0.68535149012E+01  0.51100000000E-03 0.  1.
         12    1    3    3    0    0 -0.13329798325E+00 -0.91569793431E+01 -0.53109092537E+00  0.91733361769E+01  0.00000000000E+00 0. -1.
</event>
<event>
 7    1  0.9930326E-013  0.5052885E+02  0.7816164E-02  0.1300439E+00
        -11   -1    0    0    0    0  0.00000000000E+00  0.00000000000E+00  0.45593999997E+02  0.45594000000E+02  0.51100000000E-03 0. -1.
         11   -1    0    0    0    0 -0.00000000000E+00 -0.00000000000E+00 -0.45593999997E+02  0.45594000000E+02  0.51100000000E-03 0.  1.
    9900012    2    1    2    0    0  0.17868170321E+02 -0.62358821546E+00  0.36517199566E+02  0.50528852972E+02  0.29999979095E+02 0.  0.
        -12    1    1    2    0    0 -0.17868170321E+02  0.62358821546E+00 -0.36517199566E+02  0.40659147028E+02  0.00000000000E+00 0.  1.
         11    1    3    3    0    0  0.11326068200E+02  0.69621349588E+01  0.15475248754E+02  0.20401825122E+02  0.51100000000E-03 0. -1.
        -11    1    3    3    0    0 -0.55688119759E+01 -0.60947482218E+01  0.13369270973E+02  0.15712893728E+02  0.51100000000E-03 0.  1.
        -12    1    3    3    0    0  0.12110914097E+02 -0.14909749524E+01  0.76726798388E+01  0.14414134122E+02  0.00000000000E+00 0.  1.
</event>
<event>
 7    1  0.9930326E-013  0.5052885E+02  0.7816164E-02  0.1300439E+00
        -11   -1    0    0    0    0  0.00000000000E+00  0.00000000000E+00  0.45593999997E+02  0.45594000000E+02  0.51100000000E-03 0.  1.
         11   -1    0    0    0    0 -0.00000000000E+00 -0.00000000000E+00 -0.45593999997E+02  0.45594000000E+02  0.51100000000E-03 0. -1.
    9900012    2    1    2    0    0 -0.37559575206E+02 -0.14267644872E+02 -0.62353031500E+01  0.50528851150E+02  0.29999973555E+02 0.  0.
        -12    1    1    2    0    0  0.37559575206E+02  0.14267644872E+02  0.62353031500E+01  0.40659148850E+02  0.00000000000E+00 0.  1.
         11    1    3    3    0    0  0.22568190299E+01 -0.11788337481E+01 -0.60363790160E+01  0.65513932126E+01  0.51100000000E-03 0. -1.
        -11    1    3    3    0    0 -0.30147810702E+02 -0.15425391174E+02  0.14443803974E+01  0.33895713859E+02  0.51100000000E-03 0.  1.
         12    1    3    3    0    0 -0.96685835339E+01  0.23365800497E+01 -0.16433045314E+01  0.10081744078E+02  0.00000000000E+00 0. -1.
</event>
<event>
 7    1  0.9930326E-013  0.5052887E+02  0.7816164E-02  0.1300439E+00
        -11   -1    0    0    0    0  0.00000000000E+00  0.00000000000E+00  0.45593999997E+02  0.45594000000E+02  0.51100000000E-03 0.  1.
         11   -1    0    0    0    0 -0.00000000000E+00 -0.00000000000E+00 -0.45593999997E+02  0.45594000000E+02  0.51100000000E-03 0. -1.
    9900012    2    1    2    0    0 -0.14850793385E+02 -0.20476312083E+02 -0.31832998780E+02  0.50528865331E+02  0.30000016660E+02 0.  0.
        -12    1    1    2    0    0  0.14850793385E+02  0.20476312083E+02  0.31832998780E+02  0.40659134669E+02  0.00000000000E+00 0.  1.
         11    1    3    3    0    0  0.88976402339E+00 -0.10463305992E+01 -0.73628772787E+01  0.74898898405E+01  0.51100000000E-03 0. -1.
        -11    1    3    3    0    0 -0.26738039091E+01 -0.61277144955E+01  0.48725656536E+01  0.82728476713E+01  0.51100000000E-03 0.  1.
        -12    1    3    3    0    0 -0.13066753500E+02 -0.13302266988E+02 -0.29342687155E+02  0.34766127819E+02  0.00000000000E+00 0.  1.
</event>
<event>
 7    1  0.9930326E-013  0.5052877E+02  0.7816164E-02  0.1300439E+00
        -11   -1    0    0    0    0  0.00000000000E+00  0.00000000000E+00  0.45593999997E+02  0.45594000000E+02  0.51100000000E-03 0. -1.
         11   -1    0    0    0    0 -0.00000000000E+00 -0.00000000000E+00 -0.45593999997E+02  0.45594000000E+02  0.51100000000E-03 0.  1.
    9900012    2    1    2    0    0  0.16568607710E+01 -0.38430930516E+02  0.13171613050E+02  0.50528769827E+02  0.29999726365E+02 0.  0.
        -12    1    1    2    0    0 -0.16568607710E+01  0.38430930516E+02 -0.13171613050E+02  0.40659230173E+02  0.00000000000E+00 0.  1.
         11    1    3    3    0    0 -0.35965714040E+01 -0.20444283750E+02  0.60361343309E+00  0.20767002994E+02  0.51100000000E-03 0. -1.
        -11    1    3    3    0    0  0.92910789175E+01 -0.21472888689E+01  0.69962560673E+00  0.95616145702E+01  0.51100000000E-03 0.  1.
        -12    1    3    3    0    0 -0.40376467426E+01 -0.15839357897E+02  0.11868374010E+02  0.20200152263E+02  0.00000000000E+00 0.  1.
</event>
<event>
 7    1  0.1086805E-012  0.5052888E+02  0.7816164E-02  0.1300439E+00
        -11   -1    0    0    0    0  0.00000000000E+00  0.00000000000E+00  0.45593999997E+02  0.45594000000E+02  0.51100000000E-03 0.  1.
         11   -1    0    0    0    0 -0.00000000000E+00 -0.00000000000E+00 -0.45593999997E+02  0.45594000000E+02  0.51100000000E-03 0. -1.
    9900012    2    1    2    0    0  0.35027589040E+02  0.22148869303E+01 -0.20526238961E+02  0.50528877974E+02  0.30000055090E+02 0.  0.
        -12    1    1    2    0    0 -0.35027589040E+02 -0.22148869303E+01  0.20526238961E+02  0.40659122026E+02  0.00000000000E+00 0.  1.
         11    1    3    3    0    0  0.21943167682E+02  0.23686272975E+01 -0.15406244163E+01  0.22124342409E+02  0.51100000000E-03 0.  1.
        -11    1    3    3    0    0 -0.37806733862E+01 -0.17386156364E+01 -0.31907796178E+01  0.52437916067E+01  0.51100000000E-03 0. -1.
         12    1    3    3    0    0  0.16865094744E+02  0.15848752691E+01 -0.15794834926E+02  0.23160743958E+02  0.00000000000E+00 0. -1.
</event>
<event>
 7    1  0.9930326E-013  0.5052890E+02  0.7816164E-02  0.1300439E+00
        -11   -1    0    0    0    0  0.00000000000E+00  0.00000000000E+00  0.45593999997E+02  0.45594000000E+02  0.51100000000E-03 0.  1.
         11   -1    0    0    0    0 -0.00000000000E+00 -0.00000000000E+00 -0.45593999997E+02  0.45594000000E+02  0.51100000000E-03 0. -1.
    9900012    2    1    2    0    0 -0.11521750310E+02  0.23767916389E+02 -0.30911132137E+02  0.50528896841E+02  0.30000112438E+02 0.  0.
        -12    1    1    2    0    0  0.11521750310E+02 -0.23767916389E+02  0.30911132137E+02  0.40659103159E+02  0.00000000000E+00 0.  1.
         11    1    3    3    0    0  0.15022514624E+01  0.22811400810E+01  0.30268337580E+00  0.27480860635E+01  0.51100000000E-03 0. -1.
        -11    1    3    3    0    0 -0.21441586913E+01  0.17608580011E+02 -0.31584083883E+02  0.36224492563E+02  0.51100000000E-03 0.  1.
        -12    1    3    3    0    0 -0.10879843082E+02  0.38781962974E+01  0.37026836994E+00  0.11556318214E+02  0.00000000000E+00 0.  1.
</event>
<event>
 7    1  0.9930326E-013  0.5052886E+02  0.7816164E-02  0.1300439E+00
        -11   -1    0    0    0    0  0.00000000000E+00  0.00000000000E+00  0.45593999997E+02  0.45594000000E+02  0.51100000000E-03 0.  1.
         11   -1    0    0    0    0 -0.00000000000E+00 -0.00000000000E+00 -0.45593999997E+02  0.45594000000E+02  0.51100000000E-03 0. -1.
    9900012    2    1    2    0    0  0.21235530189E+02  0.14899685540E+01 -0.34640985330E+02  0.50528860642E+02  0.30000002408E+02 0.  0.
        -12    1    1    2    0    0 -0.21235530189E+02 -0.14899685540E+01  0.34640985330E+02  0.40659139358E+02  0.00000000000E+00 0.  1.
         11    1    3    3    0    0  0.11535143693E+02  0.12112351483E+02 -0.24879567834E+02  0.29979351133E+02  0.51100000000E-03 0. -1.
        -11    1    3    3    0    0  0.22371898514E+01 -0.10163009233E+02 -0.41609755365E+01  0.11207385635E+02  0.51100000000E-03 0.  1.
         12    1    3    3    0    0  0.74631966443E+01 -0.45937369660E+00 -0.56004419595E+01  0.93421238745E+01  0.00000000000E+00 0. -1.
</event>
<event>
 7    1  0.9930326E-013  0.5052886E+02  0.7816164E-02  0.1300439E+00
        -11   -1    0    0    0    0  0.00000000000E+00  0.00000000000E+00  0.45593999997E+02  0.45594000000E+02  0.51100000000E-03 0. -1.
         11   -1    0    0    0    0 -0.00000000000E+00 -0.00000000000E+00 -0.45593999997E+02  0.45594000000E+02  0.51100000000E-03 0.  1.
    9900012    2    1    2    0    0 -0.34614863395E+02  0.21322997229E+02  0.55366014092E+00  0.50528861811E+02  0.30000005962E+02 0.  0.
        -12    1    1    2    0    0  0.34614863395E+02 -0.21322997229E+02 -0.55366014092E+00  0.40659138189E+02  0.00000000000E+00 0.  1.
         11    1    3    3    0    0 -0.18664009131E+01 -0.51868502467E+01  0.47431813836E+01  0.72721824612E+01  0.51100000000E-03 0.  1.
        -11    1    3    3    0    0 -0.23915087444E+02  0.17062667267E+02  0.81329082663E+00  0.29389240615E+02  0.51100000000E-03 0. -1.
        -12    1    3    3    0    0 -0.88333750383E+01  0.94471802085E+01 -0.50028120693E+01  0.13867438735E+02  0.00000000000E+00 0.  1.
</event>
<event>
 7    1  0.9930326E-013  0.5052886E+02  0.7816164E-02  0.1300439E+00
        -11   -1    0    0    0    0  0.00000000000E+00  0.00000000000E+00  0.45593999997E+02  0.45594000000E+02  0.51100000000E-03 0.  1.
         11   -1    0    0    0    0 -0.00000000000E+00 -0.00000000000E+00 -0.45593999997E+02  0.45594000000E+02  0.51100000000E-03 0. -1.
    9900012    2    1    2    0    0 -0.25673276490E+02 -0.27765640109E+02 -0.14937133912E+02  0.50528857536E+02  0.29999992967E+02 0.  0.
        -12    1    1    2    0    0  0.25673276490E+02  0.27765640109E+02  0.14937133912E+02  0.40659142464E+02  0.00000000000E+00 0.  1.
         11    1    3    3    0    0 -0.45153972295E+00 -0.41132719087E+01 -0.63420950785E+01  0.75726523862E+01  0.51100000000E-03 0. -1.
        -11    1    3    3    0    0  0.42059508462E+01  0.48952569459E-01 -0.17499038510E+01  0.45557197701E+01  0.51100000000E-03 0.  1.
        -12    1    3    3    0    0 -0.29427687613E+02 -0.23701320770E+02 -0.68451349820E+01  0.38400485380E+02  0.00000000000E+00 0.  1.
</event>
<event>
 7    1  0.9930326E-013  0.5052886E+02  0.7816164E-02  0.1300439E+00
        -11   -1    0    0    0    0  0.00000000000E+00  0.00000000000E+00  0.45593999997E+02  0.45594000000E+02  0.51100000000E-03 0. -1.
         11   -1    0    0    0    0 -0.00000000000E+00 -0.00000000000E+00 -0.45593999997E+02  0.45594000000E+02  0.51100000000E-03 0.  1.
    9900012    2    1    2    0    0  0.13676643726E+02 -0.94955161068E+01  0.37093804290E+02  0.50528859251E+02  0.29999998179E+02 0.  0.
        -12    1    1    2    0    0 -0.13676643726E+02  0.94955161068E+01 -0.37093804290E+02  0.40659140749E+02  0.00000000000E+00 0.  1.
         11    1    3    3    0    0  0.12348560508E+02 -0.89735897249E+01  0.23702582524E+02  0.28192635168E+02  0.51100000000E-03 0. -1.
        -11    1    3    3    0    0 -0.40667568809E+01  0.25363367297E+01 -0.24078221637E+01  0.53636856142E+01  0.51100000000E-03 0.  1.
        -12    1    3    3    0    0  0.53948400995E+01 -0.30582631116E+01  0.15799043930E+02  0.16972538469E+02  0.00000000000E+00 0.  1.
</event>
<event>
 7    1  0.9930326E-013  0.5052886E+02  0.7816164E-02  0.1300439E+00
        -11   -1    0    0    0    0  0.00000000000E+00  0.00000000000E+00  0.45593999997E+02  0.45594000000E+02  0.51100000000E-03 0.  1.
         11   -1    0    0    0    0 -0.00000000000E+00 -0.00000000000E+00 -0.45593999997E+02  0.45594000000E+02  0.51100000000E-03 0. -1.
    9900012    2    1    2    0    0  0.11434061535E+01  0.34146806799E+02 -0.22042100933E+02  0.50528855817E+02  0.29999987740E+02 0.  0.
        -12    1    1    2    0    0 -0.11434061535E+01 -0.34146806799E+02  0.22042100933E+02  0.40659144183E+02  0.00000000000E+00 0.  1.
         11    1    3    3    0    0 -0.58519239010E+01  0.16367202102E+02 -0.33858591305E+00  0.17385193662E+02  0.51100000000E-03 0. -1.
        -11    1    3    3    0    0  0.59309229648E+01 -0.88405752046E+00 -0.30208815592E+01  0.67143972603E+01  0.51100000000E-03 0.  1.
         12    1    3    3    0    0  0.10644070898E+01  0.18663662218E+02 -0.18682633460E+02  0.26429264894E+02  0.00000000000E+00 0. -1.
</event>
<event>
 7    1  0.9930326E-013  0.5052887E+02  0.7816164E-02  0.1300439E+00
        -11   -1    0    0    0    0  0.00000000000E+00  0.00000000000E+00  0.45593999997E+02  0.45594000000E+02  0.51100000000E-03 0.  1.
         11   -1    0    0    0    0 -0.00000000000E+00 -0.00000000000E+00 -0.45593999997E+02  0.45594000000E+02  0.51100000000E-03 0. -1.
    9900012    2    1    2    0    0  0.15223760599E+02 -0.37319065639E+02 -0.53562557976E+01  0.50528867900E+02  0.30000024469E+02 0.  0.
        -12    1    1    2    0    0 -0.15223760599E+02  0.37319065639E+02  0.53562557976E+01  0.40659132100E+02  0.00000000000E+00 0.  1.
         11    1    3    3    0    0  0.19246320823E+02 -0.13747741393E+02  0.89024112218E-01  0.23652255372E+02  0.51100000000E-03 0. -1.
        -11    1    3    3    0    0 -0.78234519282E+01 -0.15275553822E+02 -0.41813057899E+01  0.17664434976E+02  0.51100000000E-03 0.  1.
         12    1    3    3    0    0  0.38008917040E+01 -0.82957704241E+01 -0.12639741199E+01  0.92121775521E+01  0.00000000000E+00 0. -1.
</event>
<event>
 7    1  0.9930326E-013  0.5052886E+02  0.7816164E-02  0.1300439E+00
        -11   -1    0    0    0    0  0.00000000000E+00  0.00000000000E+00  0.45593999997E+02  0.45594000000E+02  0.51100000000E-03 0.  1.
         11   -1    0    0    0    0 -0.00000000000E+00 -0.00000000000E+00 -0.45593999997E+02  0.45594000000E+02  0.51100000000E-03 0. -1.
    9900012    2    1    2    0    0 -0.66252150401E+00 -0.30942664461E+02 -0.26368131504E+02  0.50528858621E+02  0.29999996264E+02 0.  0.
        -12    1    1    2    0    0  0.66252150401E+00  0.30942664461E+02  0.26368131504E+02  0.40659141379E+02  0.00000000000E+00 0.  1.
         11    1    3    3    0    0 -0.46015668533E+01 -0.13660625604E+02 -0.89407655159E+01  0.16962440793E+02  0.51100000000E-03 0. -1.
        -11    1    3    3    0    0 -0.16480022034E+01  0.16592044738E+00 -0.14993607525E+02  0.15084817126E+02  0.51100000000E-03 0.  1.
        -12    1    3    3    0    0  0.55870475527E+01 -0.17447959305E+02 -0.24337584631E+01  0.18481600702E+02  0.00000000000E+00 0.  1.
</event>
<event>
 7    1  0.9930326E-013  0.5052885E+02  0.7816164E-02  0.1300439E+00
        -11   -1    0    0    0    0  0.00000000000E+00  0.00000000000E+00  0.45593999997E+02  0.45594000000E+02  0.51100000000E-03 0.  1.
         11   -1    0    0    0    0 -0.00000000000E+00 -0.00000000000E+00 -0.45593999997E+02  0.45594000000E+02  0.51100000000E-03 0. -1.
    9900012    2    1    2    0    0  0.22808059066E+02 -0.32259882039E+02  0.96051396596E+01  0.50528852746E+02  0.29999978406E+02 0.  0.
        -12    1    1    2    0    0 -0.22808059066E+02  0.32259882039E+02 -0.96051396596E+01  0.40659147254E+02  0.00000000000E+00 0.  1.
         11    1    3    3    0    0  0.10900339630E+02 -0.12214667567E+02 -0.10170515946E+02  0.19273165352E+02  0.51100000000E-03 0. -1.
        -11    1    3    3    0    0  0.92779709541E+01 -0.94387548882E+01  0.99200344745E+01  0.16540191145E+02  0.51100000000E-03 0.  1.
         12    1    3    3    0    0  0.26297484822E+01 -0.10606459584E+02  0.98556211310E+01  0.14715496249E+02  0.00000000000E+00 0. -1.
</event>
<event>
 7    1  0.9930326E-013  0.5052882E+02  0.7816164E-02  0.1300439E+00
        -11   -1    0    0    0    0  0.00000000000E+00  0.00000000000E+00  0.45593999997E+02  0.45594000000E+02  0.51100000000E-03 0.  1.
         11   -1    0    0    0    0 -0.00000000000E+00 -0.00000000000E+00 -0.45593999997E+02  0.45594000000E+02  0.51100000000E-03 0. -1.
    9900012    2    1    2    0    0  0.10281246133E+02 -0.27428790678E+02 -0.28197979669E+02  0.50528823452E+02  0.29999889366E+02 0.  0.
        -12    1    1    2    0    0 -0.10281246133E+02  0.27428790678E+02  0.28197979669E+02  0.40659176548E+02  0.00000000000E+00 0.  1.
         11    1    3    3    0    0  0.14852308615E+02 -0.13477191366E+02 -0.11797891394E+02  0.23268347597E+02  0.51100000000E-03 0. -1.
        -11    1    3    3    0    0 -0.38863083968E+01 -0.34187050463E+01 -0.15869218620E+02  0.16692005183E+02  0.51100000000E-03 0.  1.
         12    1    3    3    0    0 -0.68475408522E+00 -0.10532894266E+02 -0.53086965572E+00  0.10568470673E+02  0.00000000000E+00 0. -1.
</event>
<event>
 7    1  0.9930326E-013  0.5052888E+02  0.7816164E-02  0.1300439E+00
        -11   -1    0    0    0    0  0.00000000000E+00  0.00000000000E+00  0.45593999997E+02  0.45594000000E+02  0.51100000000E-03 0.  1.
         11   -1    0    0    0    0 -0.00000000000E+00 -0.00000000000E+00 -0.45593999997E+02  0.45594000000E+02  0.51100000000E-03 0. -1.
    9900012    2    1    2    0    0  0.57565480924E+01  0.21608380669E+02 -0.33957388250E+02  0.50528878295E+02  0.30000056065E+02 0.  0.
        -12    1    1    2    0    0 -0.57565480924E+01 -0.21608380669E+02  0.33957388250E+02  0.40659121705E+02  0.00000000000E+00 0.  1.
         11    1    3    3    0    0 -0.82530088549E+01  0.88655223660E+01 -0.19845213735E+02  0.23249562371E+02  0.51100000000E-03 0. -1.
        -11    1    3    3    0    0  0.77475136224E+01  0.94454401678E+01 -0.84872099539E+00  0.12245841534E+02  0.51100000000E-03 0.  1.
         12    1    3    3    0    0  0.62620433249E+01  0.32974181351E+01 -0.13263453520E+02  0.15033474390E+02  0.00000000000E+00 0. -1.
</event>
<event>
 7    1  0.9930326E-013  0.5052887E+02  0.7816164E-02  0.1300439E+00
        -11   -1    0    0    0    0  0.00000000000E+00  0.00000000000E+00  0.45593999997E+02  0.45594000000E+02  0.51100000000E-03 0.  1.
         11   -1    0    0    0    0 -0.00000000000E+00 -0.00000000000E+00 -0.45593999997E+02  0.45594000000E+02  0.51100000000E-03 0. -1.
    9900012    2    1    2    0    0  0.37523425511E+02  0.44412468328E+01 -0.15014410354E+02  0.50528872442E+02  0.30000038273E+02 0.  0.
        -12    1    1    2    0    0 -0.37523425511E+02 -0.44412468328E+01  0.15014410354E+02  0.40659127558E+02  0.00000000000E+00 0.  1.
         11    1    3    3    0    0  0.37770828408E+02 -0.15463490677E-02 -0.14095043572E+02  0.40315080734E+02  0.51100000000E-03 0. -1.
        -11    1    3    3    0    0  0.17794474024E+01  0.31951767825E+01  0.35837224529E+01  0.51204154724E+01  0.51100000000E-03 0.  1.
         12    1    3    3    0    0 -0.20268502990E+01  0.12476163994E+01 -0.45030892356E+01  0.50933762357E+01  0.00000000000E+00 0. -1.
</event>
<event>
 7    1  0.9930326E-013  0.5052891E+02  0.7816164E-02  0.1300439E+00
        -11   -1    0    0    0    0  0.00000000000E+00  0.00000000000E+00  0.45593999997E+02  0.45594000000E+02  0.51100000000E-03 0.  1.
         11   -1    0    0    0    0 -0.00000000000E+00 -0.00000000000E+00 -0.45593999997E+02  0.45594000000E+02  0.51100000000E-03 0. -1.
    9900012    2    1    2    0    0  0.53230493540E+01 -0.80705674379E+01 -0.39492944800E+02  0.50528909969E+02  0.30000152341E+02 0.  0.
        -12    1    1    2    0    0 -0.53230493540E+01  0.80705674379E+01  0.39492944800E+02  0.40659090031E+02  0.00000000000E+00 0.  1.
         11    1    3    3    0    0 -0.72921798678E+01 -0.34398866415E+01 -0.20556761438E+02  0.22081420887E+02  0.51100000000E-03 0. -1.
        -11    1    3    3    0    0  0.16234848873E+02 -0.19174740542E+01 -0.16812750554E+02  0.23450279447E+02  0.51100000000E-03 0.  1.
        -12    1    3    3    0    0 -0.36196196511E+01 -0.27132067422E+01 -0.21234328076E+01  0.49972096347E+01  0.00000000000E+00 0.  1.
</event>
<event>
 7    1  0.9930326E-013  0.5052885E+02  0.7816164E-02  0.1300439E+00
        -11   -1    0    0    0    0  0.00000000000E+00  0.00000000000E+00  0.45593999997E+02  0.45594000000E+02  0.51100000000E-03 0.  1.
         11   -1    0    0    0    0 -0.00000000000E+00 -0.00000000000E+00 -0.45593999997E+02  0.45594000000E+02  0.51100000000E-03 0. -1.
    9900012    2    1    2    0    0  0.11484454664E+02 -0.15831903020E+02 -0.35645817965E+02  0.50528853543E+02  0.29999980830E+02 0.  0.
        -12    1    1    2    0    0 -0.11484454664E+02  0.15831903020E+02  0.35645817965E+02  0.40659146457E+02  0.00000000000E+00 0.  1.
         11    1    3    3    0    0 -0.44405647014E+01  0.43665773981E+01 -0.12012840074E+02  0.13531220933E+02  0.51100000000E-03 0. -1.
        -11    1    3    3    0    0  0.11073747758E+02 -0.96159597321E+01 -0.20002603032E+02  0.24803199376E+02  0.51100000000E-03 0.  1.
        -12    1    3    3    0    0  0.48512716075E+01 -0.10582520686E+02 -0.36303748592E+01  0.12194433234E+02  0.00000000000E+00 0.  1.
</event>
<event>
 7    1  0.9930326E-013  0.5052885E+02  0.7816164E-02  0.1300439E+00
        -11   -1    0    0    0    0  0.00000000000E+00  0.00000000000E+00  0.45593999997E+02  0.45594000000E+02  0.51100000000E-03 0.  1.
         11   -1    0    0    0    0 -0.00000000000E+00 -0.00000000000E+00 -0.45593999997E+02  0.45594000000E+02  0.51100000000E-03 0. -1.
    9900012    2    1    2    0    0 -0.36780210835E+02 -0.17062265324E+02 -0.30433588259E+01  0.50528845557E+02  0.29999956556E+02 0.  0.
        -12    1    1    2    0    0  0.36780210835E+02  0.17062265324E+02  0.30433588259E+01  0.40659154443E+02  0.00000000000E+00 0.  1.
         11    1    3    3    0    0 -0.25572596359E+02  0.16087505895E+01  0.16840182845E+01  0.25678428317E+02  0.51100000000E-03 0.  1.
        -11    1    3    3    0    0  0.58771884104E+00 -0.87796824429E+01 -0.32720495292E+01  0.93880000861E+01  0.51100000000E-03 0. -1.
         12    1    3    3    0    0 -0.11795333317E+02 -0.98913334703E+01 -0.14553275813E+01  0.15462417154E+02  0.00000000000E+00 0. -1.
</event>
<event>
 7    1  0.9930326E-013  0.5052885E+02  0.7816164E-02  0.1300439E+00
        -11   -1    0    0    0    0  0.00000000000E+00  0.00000000000E+00  0.45593999997E+02  0.45594000000E+02  0.51100000000E-03 0.  1.
         11   -1    0    0    0    0 -0.00000000000E+00 -0.00000000000E+00 -0.45593999997E+02  0.45594000000E+02  0.51100000000E-03 0. -1.
    9900012    2    1    2    0    0  0.98918396649E+01  0.39252362777E+02  0.38170149150E+01  0.50528854923E+02  0.29999985023E+02 0.  0.
        -12    1    1    2    0    0 -0.98918396649E+01 -0.39252362777E+02 -0.38170149150E+01  0.40659145077E+02  0.00000000000E+00 0.  1.
         11    1    3    3    0    0  0.64708918262E+01  0.32644941515E+02  0.93185370624E+01  0.34560089421E+02  0.51100000000E-03 0.  1.
        -11    1    3    3    0    0  0.42452161304E+01  0.89898394143E+01 -0.77383781061E+01  0.12598474855E+02  0.51100000000E-03 0. -1.
        -12    1    3    3    0    0 -0.82426829166E+00 -0.23824181517E+01  0.22368559587E+01  0.33702906472E+01  0.00000000000E+00 0.  1.
</event>
<event>
 7    1  0.9930326E-013  0.5052886E+02  0.7816164E-02  0.1300439E+00
        -11   -1    0    0    0    0  0.00000000000E+00  0.00000000000E+00  0.45593999997E+02  0.45594000000E+02  0.51100000000E-03 0.  1.
         11   -1    0    0    0    0 -0.00000000000E+00 -0.00000000000E+00 -0.45593999997E+02  0.45594000000E+02  0.51100000000E-03 0. -1.
    9900012    2    1    2    0    0  0.17167307829E+02  0.18186725252E+02 -0.32057638435E+02  0.50528860615E+02  0.30000002326E+02 0.  0.
        -12    1    1    2    0    0 -0.17167307829E+02 -0.18186725252E+02  0.32057638435E+02  0.40659139385E+02  0.00000000000E+00 0.  1.
         11    1    3    3    0    0  0.81537047970E+01 -0.50241769965E+01 -0.15026304998E+02  0.17818953352E+02  0.51100000000E-03 0. -1.
        -11    1    3    3    0    0  0.11834609098E+02  0.14205720400E+02 -0.11289688860E+02  0.21663737891E+02  0.51100000000E-03 0.  1.
         12    1    3    3    0    0 -0.28210060662E+01  0.90051818483E+01 -0.57416445760E+01  0.11046169372E+02  0.00000000000E+00 0. -1.
</event>
<event>
 7    1  0.9930326E-013  0.5052881E+02  0.7816164E-02  0.1300439E+00
        -11   -1    0    0    0    0  0.00000000000E+00  0.00000000000E+00  0.45593999997E+02  0.45594000000E+02  0.51100000000E-03 0. -1.
         11   -1    0    0    0    0 -0.00000000000E+00 -0.00000000000E+00 -0.45593999997E+02  0.45594000000E+02  0.51100000000E-03 0.  1.
    9900012    2    1    2    0    0 -0.21705485008E+02 -0.13186902829E+02  0.31751339121E+02  0.50528806431E+02  0.29999837628E+02 0.  0.
        -12    1    1    2    0    0  0.21705485008E+02  0.13186902829E+02 -0.31751339121E+02  0.40659193569E+02  0.00000000000E+00 0.  1.
         11    1    3    3    0    0 -0.19980182979E+02 -0.51796999910E+01  0.17100761457E+02  0.26804347530E+02  0.51100000000E-03 0. -1.
        -11    1    3    3    0    0  0.46459202904E+01 -0.10546072894E+02  0.11104271834E+02  0.16003408451E+02  0.51100000000E-03 0.  1.
        -12    1    3    3    0    0 -0.63712223199E+01  0.25388700560E+01  0.35463058306E+01  0.77210504502E+01  0.00000000000E+00 0.  1.
</event>
<event>
 7    1  0.9930326E-013  0.5052886E+02  0.7816164E-02  0.1300439E+00
        -11   -1    0    0    0    0  0.00000000000E+00  0.00000000000E+00  0.45593999997E+02  0.45594000000E+02  0.51100000000E-03 0.  1.
         11   -1    0    0    0    0 -0.00000000000E+00 -0.00000000000E+00 -0.45593999997E+02  0.45594000000E+02  0.51100000000E-03 0. -1.
    9900012    2    1    2    0    0 -0.13423264852E+02  0.32265367249E+02  0.20782867940E+02  0.50528861263E+02  0.30000004295E+02 0.  0.
        -12    1    1    2    0    0  0.13423264852E+02 -0.32265367249E+02 -0.20782867940E+02  0.40659138737E+02  0.00000000000E+00 0.  1.
         11    1    3    3    0    0 -0.21081604072E+02  0.17144842319E+02  0.55972708358E+01  0.27743631512E+02  0.51100000000E-03 0. -1.
        -11    1    3    3    0    0  0.23729222020E+01  0.39797850128E+01  0.36315287854E+01  0.58870578479E+01  0.51100000000E-03 0.  1.
         12    1    3    3    0    0  0.52854170177E+01  0.11140739918E+02  0.11554068319E+02  0.16898171903E+02  0.00000000000E+00 0. -1.
</event>
<event>
 7    1  0.9930326E-013  0.5052886E+02  0.7816164E-02  0.1300439E+00
        -11   -1    0    0    0    0  0.00000000000E+00  0.00000000000E+00  0.45593999997E+02  0.45594000000E+02  0.51100000000E-03 0.  1.
         11   -1    0    0    0    0 -0.00000000000E+00 -0.00000000000E+00 -0.45593999997E+02  0.45594000000E+02  0.51100000000E-03 0. -1.
    9900012    2    1    2    0    0 -0.13845290086E+02  0.16368250765E+02 -0.34547849134E+02  0.50528861169E+02  0.30000004010E+02 0.  0.
        -12    1    1    2    0    0  0.13845290086E+02 -0.16368250765E+02  0.34547849134E+02  0.40659138831E+02  0.00000000000E+00 0.  1.
         11    1    3    3    0    0  0.39746300937E+01  0.12781872951E+02 -0.12052698687E+02  0.18012259892E+02  0.51100000000E-03 0.  1.
        -11    1    3    3    0    0 -0.13719176729E+02  0.11751648381E+01 -0.23877052229E+02  0.27562845389E+02  0.51100000000E-03 0. -1.
        -12    1    3    3    0    0 -0.41007434505E+01  0.24112129753E+01  0.13819017822E+01  0.49537558876E+01  0.00000000000E+00 0.  1.
</event>
<event>
 7    1  0.9930326E-013  0.5052886E+02  0.7816164E-02  0.1300439E+00
        -11   -1    0    0    0    0  0.00000000000E+00  0.00000000000E+00  0.45593999997E+02  0.45594000000E+02  0.51100000000E-03 0.  1.
         11   -1    0    0    0    0 -0.00000000000E+00 -0.00000000000E+00 -0.45593999997E+02  0.45594000000E+02  0.51100000000E-03 0. -1.
    9900012    2    1    2    0    0 -0.21792226474E+02  0.24103955435E+02 -0.24438990259E+02  0.50528855307E+02  0.29999986192E+02 0.  0.
        -12    1    1    2    0    0  0.21792226474E+02 -0.24103955435E+02  0.24438990259E+02  0.40659144693E+02  0.00000000000E+00 0.  1.
         11    1    3    3    0    0 -0.70479545965E+01  0.77211133911E+00 -0.20784533515E+02  0.21960570430E+02  0.51100000000E-03 0. -1.
        -11    1    3    3    0    0 -0.85822877526E+01  0.15182244502E+02  0.71842119452E+00  0.17454865811E+02  0.51100000000E-03 0.  1.
         12    1    3    3    0    0 -0.61619841245E+01  0.81495995933E+01 -0.43728779386E+01  0.11113419066E+02  0.00000000000E+00 0. -1.
</event>
<event>
 7    1  0.9930326E-013  0.5052886E+02  0.7816164E-02  0.1300439E+00
        -11   -1    0    0    0    0  0.00000000000E+00  0.00000000000E+00  0.45593999997E+02  0.45594000000E+02  0.51100000000E-03 0. -1.
         11   -1    0    0    0    0 -0.00000000000E+00 -0.00000000000E+00 -0.45593999997E+02  0.45594000000E+02  0.51100000000E-03 0.  1.
    9900012    2    1    2    0    0  0.27320773918E+02  0.28426863652E+02  0.99324912746E+01  0.50528860222E+02  0.30000001132E+02 0.  0.
        -12    1    1    2    0    0 -0.27320773918E+02 -0.28426863652E+02 -0.99324912746E+01  0.40659139778E+02  0.00000000000E+00 0.  1.
         11    1    3    3    0    0  0.25870160284E+02  0.90145384446E+01  0.86642766616E+01  0.28733200080E+02  0.51100000000E-03 0. -1.
        -11    1    3    3    0    0  0.14290506548E+01  0.62496134497E+01 -0.40677139974E+01  0.75925062706E+01  0.51100000000E-03 0.  1.
         12    1    3    3    0    0  0.21562978641E-01  0.13162711757E+02  0.53359286103E+01  0.14203153872E+02  0.00000000000E+00 0. -1.
</event>
<event>
 7    1  0.9930326E-013  0.5052886E+02  0.7816164E-02  0.1300439E+00
        -11   -1    0    0    0    0  0.00000000000E+00  0.00000000000E+00  0.45593999997E+02  0.45594000000E+02  0.51100000000E-03 0. -1.
         11   -1    0    0    0    0 -0.00000000000E+00 -0.00000000000E+00 -0.45593999997E+02  0.45594000000E+02  0.51100000000E-03 0.  1.
    9900012    2    1    2    0    0 -0.30262036104E+02  0.27043846607E+02  0.24505599307E+01  0.50528859423E+02  0.29999998703E+02 0.  0.
        -12    1    1    2    0    0  0.30262036104E+02 -0.27043846607E+02 -0.24505599307E+01  0.40659140577E+02  0.00000000000E+00 0.  1.
         11    1    3    3    0    0 -0.76760831582E+01 -0.40744798462E+00  0.24479894555E+01  0.80672745799E+01  0.51100000000E-03 0. -1.
        -11    1    3    3    0    0 -0.11038420017E+02  0.28150254998E+02 -0.33365765783E+01  0.30420656082E+02  0.51100000000E-03 0.  1.
        -12    1    3    3    0    0 -0.11547532929E+02 -0.69896040686E+00  0.33391470535E+01  0.12040928761E+02  0.00000000000E+00 0.  1.
</event>
<event>
 7    1  0.9930326E-013  0.5052887E+02  0.7816164E-02  0.1300439E+00
        -11   -1    0    0    0    0  0.00000000000E+00  0.00000000000E+00  0.45593999997E+02  0.45594000000E+02  0.51100000000E-03 0. -1.
         11   -1    0    0    0    0 -0.00000000000E+00 -0.00000000000E+00 -0.45593999997E+02  0.45594000000E+02  0.51100000000E-03 0.  1.
    9900012    2    1    2    0    0  0.30580728074E+02 -0.13593176413E+02  0.23091328122E+02  0.50528870534E+02  0.30000032474E+02 0.  0.
        -12    1    1    2    0    0 -0.30580728074E+02  0.13593176413E+02 -0.23091328122E+02  0.40659129466E+02  0.00000000000E+00 0.  1.
         11    1    3    3    0    0  0.69008492382E+01  0.52124600989E+01 -0.19477158624E+01  0.88648213650E+01  0.51100000000E-03 0. -1.
        -11    1    3    3    0    0  0.12223633848E+02 -0.15625303347E+02  0.92233519515E+01  0.21877786694E+02  0.51100000000E-03 0.  1.
         12    1    3    3    0    0  0.11456244988E+02 -0.31803331653E+01  0.15815692033E+02  0.19786262475E+02  0.00000000000E+00 0. -1.
</event>
<event>
 7    1  0.9930326E-013  0.5052885E+02  0.7816164E-02  0.1300439E+00
        -11   -1    0    0    0    0  0.00000000000E+00  0.00000000000E+00  0.45593999997E+02  0.45594000000E+02  0.51100000000E-03 0.  1.
         11   -1    0    0    0    0 -0.00000000000E+00 -0.00000000000E+00 -0.45593999997E+02  0.45594000000E+02  0.51100000000E-03 0. -1.
    9900012    2    1    2    0    0 -0.17549136496E+02 -0.10922295703E+02 -0.35012820325E+02  0.50528851924E+02  0.29999975908E+02 0.  0.
        -12    1    1    2    0    0  0.17549136496E+02  0.10922295703E+02  0.35012820325E+02  0.40659148076E+02  0.00000000000E+00 0.  1.
         11    1    3    3    0    0 -0.11656297641E+02 -0.86653696547E+01 -0.24731482277E+02  0.28681076023E+02  0.51100000000E-03 0. -1.
        -11    1    3    3    0    0 -0.93085274368E+01  0.48158963107E+01 -0.24642859739E+01  0.10766347846E+02  0.51100000000E-03 0.  1.
         12    1    3    3    0    0  0.34156885820E+01 -0.70728223592E+01 -0.78170520733E+01  0.11081428055E+02  0.00000000000E+00 0. -1.
</event>
<event>
 7    1  0.9930326E-013  0.5052884E+02  0.7816164E-02  0.1300439E+00
        -11   -1    0    0    0    0  0.00000000000E+00  0.00000000000E+00  0.45593999997E+02  0.45594000000E+02  0.51100000000E-03 0.  1.
         11   -1    0    0    0    0 -0.00000000000E+00 -0.00000000000E+00 -0.45593999997E+02  0.45594000000E+02  0.51100000000E-03 0. -1.
    9900012    2    1    2    0    0 -0.21985220724E+02 -0.33324498142E+02  0.77003476589E+01  0.50528837924E+02  0.29999933352E+02 0.  0.
        -12    1    1    2    0    0  0.21985220724E+02  0.33324498142E+02 -0.77003476589E+01  0.40659162076E+02  0.00000000000E+00 0.  1.
         11    1    3    3    0    0 -0.29853269931E+01 -0.93866478960E+01  0.39444359733E+00  0.98578355632E+01  0.51100000000E-03 0. -1.
        -11    1    3    3    0    0  0.10527083647E+01  0.45880789171E+01 -0.10320952888E+01  0.48191165162E+01  0.51100000000E-03 0.  1.
        -12    1    3    3    0    0 -0.20052602096E+02 -0.28525929163E+02  0.83379993504E+01  0.35851885844E+02  0.00000000000E+00 0.  1.
</event>
<event>
 7    1  0.9930326E-013  0.5052886E+02  0.7816164E-02  0.1300439E+00
        -11   -1    0    0    0    0  0.00000000000E+00  0.00000000000E+00  0.45593999997E+02  0.45594000000E+02  0.51100000000E-03 0.  1.
         11   -1    0    0    0    0 -0.00000000000E+00 -0.00000000000E+00 -0.45593999997E+02  0.45594000000E+02  0.51100000000E-03 0. -1.
    9900012    2    1    2    0    0 -0.18557378754E+02  0.81578702602E+01 -0.35245400042E+02  0.50528863542E+02  0.30000011223E+02 0.  0.
        -12    1    1    2    0    0  0.18557378754E+02 -0.81578702602E+01  0.35245400042E+02  0.40659136458E+02  0.00000000000E+00 0.  1.
         11    1    3    3    0    0 -0.49788167184E+01 -0.85825045796E+01 -0.11074039238E+02  0.14868838088E+02  0.51100000000E-03 0. -1.
        -11    1    3    3    0    0 -0.21102344169E+01  0.14002181561E+02 -0.10639145572E+02  0.17711736124E+02  0.51100000000E-03 0.  1.
        -12    1    3    3    0    0 -0.11468327619E+02  0.27381932786E+01 -0.13532215232E+02  0.17948289330E+02  0.00000000000E+00 0.  1.
</event>
<event>
 7    1  0.9930326E-013  0.5052888E+02  0.7816164E-02  0.1300439E+00
        -11   -1    0    0    0    0  0.00000000000E+00  0.00000000000E+00  0.45593999997E+02  0.45594000000E+02  0.51100000000E-03 0. -1.
         11   -1    0    0    0    0 -0.00000000000E+00 -0.00000000000E+00 -0.45593999997E+02  0.45594000000E+02  0.51100000000E-03 0.  1.
    9900012    2    1    2    0    0 -0.28313615541E+02  0.20539764994E+02  0.20727312301E+02  0.50528877454E+02  0.30000053508E+02 0.  0.
        -12    1    1    2    0    0  0.28313615541E+02 -0.20539764994E+02 -0.20727312301E+02  0.40659122546E+02  0.00000000000E+00 0.  1.
         11    1    3    3    0    0 -0.28899900434E+02  0.18397855034E+02  0.12366430268E+02  0.36422711497E+02  0.51100000000E-03 0. -1.
        -11    1    3    3    0    0 -0.93555437564E+00 -0.11261246072E+01 -0.23701052363E+01  0.27858244225E+01  0.51100000000E-03 0.  1.
         12    1    3    3    0    0  0.15218392686E+01  0.32680345671E+01  0.10730987269E+02  0.11320341534E+02  0.00000000000E+00 0. -1.
</event>
<event>
 7    1  0.9930326E-013  0.5052886E+02  0.7816164E-02  0.1300439E+00
        -11   -1    0    0    0    0  0.00000000000E+00  0.00000000000E+00  0.45593999997E+02  0.45594000000E+02  0.51100000000E-03 0.  1.
         11   -1    0    0    0    0 -0.00000000000E+00 -0.00000000000E+00 -0.45593999997E+02  0.45594000000E+02  0.51100000000E-03 0. -1.
    9900012    2    1    2    0    0 -0.11055029804E+02  0.37816698067E+01 -0.38944206094E+02  0.50528857132E+02  0.29999991738E+02 0.  0.
        -12    1    1    2    0    0  0.11055029804E+02 -0.37816698067E+01  0.38944206094E+02  0.40659142868E+02  0.00000000000E+00 0.  1.
         11    1    3    3    0    0  0.10878631292E+01  0.15933526135E+01 -0.13484580273E+02  0.13621898698E+02  0.51100000000E-03 0. -1.
        -11    1    3    3    0    0 -0.13946387389E+02  0.89468342976E+01 -0.86314567998E+01  0.18682869477E+02  0.51100000000E-03 0.  1.
        -12    1    3    3    0    0  0.18034944556E+01 -0.67585171043E+01 -0.16828169021E+02  0.18224088957E+02  0.00000000000E+00 0.  1.
</event>
<event>
 7    1  0.9930326E-013  0.5052886E+02  0.7816164E-02  0.1300439E+00
        -11   -1    0    0    0    0  0.00000000000E+00  0.00000000000E+00  0.45593999997E+02  0.45594000000E+02  0.51100000000E-03 0.  1.
         11   -1    0    0    0    0 -0.00000000000E+00 -0.00000000000E+00 -0.45593999997E+02  0.45594000000E+02  0.51100000000E-03 0. -1.
    9900012    2    1    2    0    0 -0.26878660901E+02 -0.10292577362E+02 -0.28718737225E+02  0.50528862916E+02  0.30000009320E+02 0.  0.
        -12    1    1    2    0    0  0.26878660901E+02  0.10292577362E+02  0.28718737225E+02  0.40659137084E+02  0.00000000000E+00 0.  1.
         11    1    3    3    0    0 -0.10936281580E+02 -0.10197771081E+01 -0.50678764879E+01  0.12096510757E+02  0.51100000000E-03 0. -1.
        -11    1    3    3    0    0  0.37488761460E+01  0.39230458921E+01 -0.91699481704E+01  0.10655154205E+02  0.51100000000E-03 0.  1.
        -12    1    3    3    0    0 -0.19691255468E+02 -0.13195846146E+02 -0.14480912567E+02  0.27777197954E+02  0.00000000000E+00 0.  1.
</event>
<event>
 7    1  0.9930326E-013  0.5052886E+02  0.7816164E-02  0.1300439E+00
        -11   -1    0    0    0    0  0.00000000000E+00  0.00000000000E+00  0.45593999997E+02  0.45594000000E+02  0.51100000000E-03 0.  1.
         11   -1    0    0    0    0 -0.00000000000E+00 -0.00000000000E+00 -0.45593999997E+02  0.45594000000E+02  0.51100000000E-03 0. -1.
    9900012    2    1    2    0    0  0.73504717928E+01  0.23247662717E+02 -0.32537399097E+02  0.50528860838E+02  0.30000003004E+02 0.  0.
        -12    1    1    2    0    0 -0.73504717928E+01 -0.23247662717E+02  0.32537399097E+02  0.40659139162E+02  0.00000000000E+00 0.  1.
         11    1    3    3    0    0  0.22522127673E+01 -0.43707570667E+01 -0.12751081131E+02  0.13666237593E+02  0.51100000000E-03 0. -1.
        -11    1    3    3    0    0  0.93430351100E+01  0.22088084928E+02 -0.16781603983E+02  0.29271112608E+02  0.51100000000E-03 0.  1.
         12    1    3    3    0    0 -0.42447760845E+01  0.55303348559E+01 -0.30047139831E+01  0.75915106366E+01  0.00000000000E+00 0. -1.
</event>
<event>
 7    1  0.9930326E-013  0.5052887E+02  0.7816164E-02  0.1300439E+00
        -11   -1    0    0    0    0  0.00000000000E+00  0.00000000000E+00  0.45593999997E+02  0.45594000000E+02  0.51100000000E-03 0.  1.
         11   -1    0    0    0    0 -0.00000000000E+00 -0.00000000000E+00 -0.45593999997E+02  0.45594000000E+02  0.51100000000E-03 0. -1.
    9900012    2    1    2    0    0  0.31334027156E+02  0.18952395300E+02  0.17667766328E+02  0.50528874181E+02  0.30000043559E+02 0.  0.
        -12    1    1    2    0    0 -0.31334027156E+02 -0.18952395300E+02 -0.17667766328E+02  0.40659125819E+02  0.00000000000E+00 0.  1.
         11    1    3    3    0    0  0.18595079462E+02 -0.33487231262E+01  0.11846981145E+02  0.22301163407E+02  0.51100000000E-03 0. -1.
        -11    1    3    3    0    0  0.65665849467E+01  0.79695658557E+01  0.71604935992E+01  0.12566092735E+02  0.51100000000E-03 0.  1.
         12    1    3    3    0    0  0.61723627467E+01  0.14331552570E+02 -0.13397084162E+01  0.15661618039E+02  0.00000000000E+00 0. -1.
</event>
<event>
 7    1  0.9930326E-013  0.5052886E+02  0.7816164E-02  0.1300439E+00
        -11   -1    0    0    0    0  0.00000000000E+00  0.00000000000E+00  0.45593999997E+02  0.45594000000E+02  0.51100000000E-03 0.  1.
         11   -1    0    0    0    0 -0.00000000000E+00 -0.00000000000E+00 -0.45593999997E+02  0.45594000000E+02  0.51100000000E-03 0. -1.
    9900012    2    1    2    0    0 -0.17976841323E+02 -0.12920906184E+02 -0.34103508553E+02  0.50528856671E+02  0.29999990338E+02 0.  0.
        -12    1    1    2    0    0  0.17976841323E+02  0.12920906184E+02  0.34103508553E+02  0.40659143329E+02  0.00000000000E+00 0.  1.
         11    1    3    3    0    0 -0.12609640448E+00 -0.11908472963E+02 -0.31907154626E+01  0.12329164369E+02  0.51100000000E-03 0. -1.
        -11    1    3    3    0    0 -0.11028011271E+02  0.36966626726E+01 -0.88030146433E+01  0.14586823320E+02  0.51100000000E-03 0.  1.
         12    1    3    3    0    0 -0.68227336479E+01 -0.47090958934E+01 -0.22109778447E+02  0.23612868982E+02  0.00000000000E+00 0. -1.
</event>
<event>
 7    1  0.9930326E-013  0.5052885E+02  0.7816164E-02  0.1300439E+00
        -11   -1    0    0    0    0  0.00000000000E+00  0.00000000000E+00  0.45593999997E+02  0.45594000000E+02  0.51100000000E-03 0. -1.
         11   -1    0    0    0    0 -0.00000000000E+00 -0.00000000000E+00 -0.45593999997E+02  0.45594000000E+02  0.51100000000E-03 0.  1.
    9900012    2    1    2    0    0  0.14697078102E+01  0.25847473007E+01  0.40550284713E+02  0.50528849124E+02  0.29999967397E+02 0.  0.
        -12    1    1    2    0    0 -0.14697078102E+01 -0.25847473007E+01 -0.40550284713E+02  0.40659150876E+02  0.00000000000E+00 0.  1.
         11    1    3    3    0    0  0.13124456007E+02  0.22812927188E+01  0.27287606215E+02  0.30365590644E+02  0.51100000000E-03 0. -1.
        -11    1    3    3    0    0 -0.98545595998E+01  0.40142251164E+01  0.72650505216E+01  0.12884382311E+02  0.51100000000E-03 0.  1.
         12    1    3    3    0    0 -0.18001885968E+01 -0.37107705345E+01  0.59976279765E+01  0.72788761693E+01  0.00000000000E+00 0. -1.
</event>
<event>
 7    1  0.9930326E-013  0.5052886E+02  0.7816164E-02  0.1300439E+00
        -11   -1    0    0    0    0  0.00000000000E+00  0.00000000000E+00  0.45593999997E+02  0.45594000000E+02  0.51100000000E-03 0. -1.
         11   -1    0    0    0    0 -0.00000000000E+00 -0.00000000000E+00 -0.45593999997E+02  0.45594000000E+02  0.51100000000E-03 0.  1.
    9900012    2    1    2    0    0 -0.20480149807E+02 -0.33513463507E+02  0.10515546376E+02  0.50528862184E+02  0.30000007094E+02 0.  0.
        -12    1    1    2    0    0  0.20480149807E+02  0.33513463507E+02 -0.10515546376E+02  0.40659137816E+02  0.00000000000E+00 0.  1.
         11    1    3    3    0    0 -0.20647263913E+02 -0.36651398172E+02  0.13776241854E+02  0.44265328813E+02  0.51100000000E-03 0. -1.
        -11    1    3    3    0    0  0.20444849237E+01  0.27540624805E+01 -0.20165623039E+01  0.39788569384E+01  0.51100000000E-03 0.  1.
        -12    1    3    3    0    0 -0.18773708185E+01  0.38387218493E+00 -0.12441331744E+01  0.22846764322E+01  0.00000000000E+00 0.  1.
</event>
<event>
 7    1  0.9930326E-013  0.5052886E+02  0.7816164E-02  0.1300439E+00
        -11   -1    0    0    0    0  0.00000000000E+00  0.00000000000E+00  0.45593999997E+02  0.45594000000E+02  0.51100000000E-03 0.  1.
         11   -1    0    0    0    0 -0.00000000000E+00 -0.00000000000E+00 -0.45593999997E+02  0.45594000000E+02  0.51100000000E-03 0. -1.
    9900012    2    1    2    0    0  0.84873686805E+01  0.19789413271E+02 -0.34489267878E+02  0.50528857074E+02  0.29999991561E+02 0.  0.
        -12    1    1    2    0    0 -0.84873686805E+01 -0.19789413271E+02  0.34489267878E+02  0.40659142926E+02  0.00000000000E+00 0.  1.
         11    1    3    3    0    0  0.21475593424E+01  0.16245573673E+01 -0.10992763282E+02  0.11317775515E+02  0.51100000000E-03 0. -1.
        -11    1    3    3    0    0 -0.78492699228E+01  0.39634946944E+00 -0.24635512857E+01  0.82363351329E+01  0.51100000000E-03 0.  1.
        -12    1    3    3    0    0  0.14189079261E+02  0.17768506434E+02 -0.21032953311E+02  0.30974746426E+02  0.00000000000E+00 0.  1.
</event>
<event>
 7    1  0.9930326E-013  0.5052886E+02  0.7816164E-02  0.1300439E+00
        -11   -1    0    0    0    0  0.00000000000E+00  0.00000000000E+00  0.45593999997E+02  0.45594000000E+02  0.51100000000E-03 0.  1.
         11   -1    0    0    0    0 -0.00000000000E+00 -0.00000000000E+00 -0.45593999997E+02  0.45594000000E+02  0.51100000000E-03 0. -1.
    9900012    2    1    2    0    0 -0.36745654528E+02  0.11524801350E+02 -0.13042286400E+02  0.50528863175E+02  0.30000010107E+02 0.  0.
        -12    1    1    2    0    0  0.36745654528E+02 -0.11524801350E+02  0.13042286400E+02  0.40659136825E+02  0.00000000000E+00 0.  1.
         11    1    3    3    0    0 -0.12671738809E+02  0.11928897309E+02 -0.85669572053E+01  0.19397533644E+02  0.51100000000E-03 0. -1.
        -11    1    3    3    0    0 -0.10188719213E+02 -0.96287386183E+01 -0.34087251635E+01  0.14427127714E+02  0.51100000000E-03 0.  1.
        -12    1    3    3    0    0 -0.13885196506E+02  0.92246426586E+01 -0.10666040309E+01  0.16704201817E+02  0.00000000000E+00 0.  1.
</event>
<event>
 7    1  0.9930326E-013  0.5052885E+02  0.7816164E-02  0.1300439E+00
        -11   -1    0    0    0    0  0.00000000000E+00  0.00000000000E+00  0.45593999997E+02  0.45594000000E+02  0.51100000000E-03 0.  1.
         11   -1    0    0    0    0 -0.00000000000E+00 -0.00000000000E+00 -0.45593999997E+02  0.45594000000E+02  0.51100000000E-03 0. -1.
    9900012    2    1    2    0    0  0.10606884739E+02  0.38402653890E+02 -0.81176809686E+01  0.50528848829E+02  0.29999966500E+02 0.  0.
        -12    1    1    2    0    0 -0.10606884739E+02 -0.38402653890E+02  0.81176809686E+01  0.40659151171E+02  0.00000000000E+00 0.  1.
         11    1    3    3    0    0  0.15242675627E+02  0.29598313977E+02 -0.53765806585E+01  0.33723982125E+02  0.51100000000E-03 0. -1.
        -11    1    3    3    0    0 -0.52059507587E+01  0.42667919246E+01  0.46021610502E+01  0.81539759150E+01  0.51100000000E-03 0.  1.
         12    1    3    3    0    0  0.57015987094E+00  0.45375479882E+01 -0.73432613603E+01  0.86508907882E+01  0.00000000000E+00 0. -1.
</event>
<event>
 7    1  0.9930326E-013  0.5052888E+02  0.7816164E-02  0.1300439E+00
        -11   -1    0    0    0    0  0.00000000000E+00  0.00000000000E+00  0.45593999997E+02  0.45594000000E+02  0.51100000000E-03 0.  1.
         11   -1    0    0    0    0 -0.00000000000E+00 -0.00000000000E+00 -0.45593999997E+02  0.45594000000E+02  0.51100000000E-03 0. -1.
    9900012    2    1    2    0    0 -0.27390220468E+02  0.21901310385E+02 -0.20573591703E+02  0.50528877414E+02  0.30000053388E+02 0.  0.
        -12    1    1    2    0    0  0.27390220468E+02 -0.21901310385E+02  0.20573591703E+02  0.40659122586E+02  0.00000000000E+00 0.  1.
         11    1    3    3    0    0 -0.87368830361E+01  0.51488387729E+01  0.44219688193E+01  0.11063339206E+02  0.51100000000E-03 0. -1.
        -11    1    3    3    0    0 -0.19743847683E+02  0.14557776100E+02 -0.26867675357E+02  0.36381593501E+02  0.51100000000E-03 0.  1.
        -12    1    3    3    0    0  0.10905102512E+01  0.21946955123E+01  0.18721148350E+01  0.30839447069E+01  0.00000000000E+00 0.  1.
</event>
<event>
 7    1  0.9930326E-013  0.5052886E+02  0.7816164E-02  0.1300439E+00
        -11   -1    0    0    0    0  0.00000000000E+00  0.00000000000E+00  0.45593999997E+02  0.45594000000E+02  0.51100000000E-03 0.  1.
         11   -1    0    0    0    0 -0.00000000000E+00 -0.00000000000E+00 -0.45593999997E+02  0.45594000000E+02  0.51100000000E-03 0. -1.
    9900012    2    1    2    0    0  0.14652633488E+02  0.24424647334E+02 -0.29015563266E+02  0.50528856168E+02  0.29999988807E+02 0.  0.
        -12    1    1    2    0    0 -0.14652633488E+02 -0.24424647334E+02  0.29015563266E+02  0.40659143832E+02  0.00000000000E+00 0.  1.
         11    1    3    3    0    0  0.58181539181E+01  0.65288372168E+01 -0.20196906752E+02  0.22008899860E+02  0.51100000000E-03 0. -1.
        -11    1    3    3    0    0 -0.32353007947E+01  0.12641356512E+02 -0.72926295765E+00  0.13069157984E+02  0.51100000000E-03 0.  1.
         12    1    3    3    0    0  0.12069780364E+02  0.52544536058E+01 -0.80893935566E+01  0.15450798324E+02  0.00000000000E+00 0. -1.
</event>
<event>
 7    1  0.9930326E-013  0.5052887E+02  0.7816164E-02  0.1300439E+00
        -11   -1    0    0    0    0  0.00000000000E+00  0.00000000000E+00  0.45593999997E+02  0.45594000000E+02  0.51100000000E-03 0. -1.
         11   -1    0    0    0    0 -0.00000000000E+00 -0.00000000000E+00 -0.45593999997E+02  0.45594000000E+02  0.51100000000E-03 0.  1.
    9900012    2    1    2    0    0 -0.27952773519E+02 -0.29499891203E+02 -0.12504933397E+01  0.50528869882E+02  0.30000030493E+02 0.  0.
        -12    1    1    2    0    0  0.27952773519E+02  0.29499891203E+02  0.12504933397E+01  0.40659130118E+02  0.00000000000E+00 0.  1.
         11    1    3    3    0    0 -0.14531310276E+02 -0.71035707540E+01 -0.58647256970E+01  0.17205077842E+02  0.51100000000E-03 0. -1.
        -11    1    3    3    0    0 -0.48676051060E+01 -0.12345606378E+02  0.12263547280E+02  0.18069371004E+02  0.51100000000E-03 0.  1.
        -12    1    3    3    0    0 -0.85538581365E+01 -0.10050714071E+02 -0.76493149229E+01  0.15254421036E+02  0.00000000000E+00 0.  1.
</event>
<event>
 7    1  0.9930326E-013  0.5052886E+02  0.7816164E-02  0.1300439E+00
        -11   -1    0    0    0    0  0.00000000000E+00  0.00000000000E+00  0.45593999997E+02  0.45594000000E+02  0.51100000000E-03 0.  1.
         11   -1    0    0    0    0 -0.00000000000E+00 -0.00000000000E+00 -0.45593999997E+02  0.45594000000E+02  0.51100000000E-03 0. -1.
    9900012    2    1    2    0    0  0.28501330022E+02 -0.28937736675E+02  0.18566592838E+01  0.50528860799E+02  0.30000002884E+02 0.  0.
        -12    1    1    2    0    0 -0.28501330022E+02  0.28937736675E+02 -0.18566592838E+01  0.40659139201E+02  0.00000000000E+00 0.  1.
         11    1    3    3    0    0  0.31272782743E+01 -0.46806660366E+01 -0.64789336604E+01  0.85828366866E+01  0.51100000000E-03 0. -1.
        -11    1    3    3    0    0  0.24975345374E+02 -0.27890270155E+02  0.72579194898E+01  0.38135448621E+02  0.51100000000E-03 0.  1.
        -12    1    3    3    0    0  0.39870637303E+00  0.36331995168E+01  0.10776734545E+01  0.38105754914E+01  0.00000000000E+00 0.  1.
</event>
<event>
 7    1  0.9930326E-013  0.5052886E+02  0.7816164E-02  0.1300439E+00
        -11   -1    0    0    0    0  0.00000000000E+00  0.00000000000E+00  0.45593999997E+02  0.45594000000E+02  0.51100000000E-03 0. -1.
         11   -1    0    0    0    0 -0.00000000000E+00 -0.00000000000E+00 -0.45593999997E+02  0.45594000000E+02  0.51100000000E-03 0.  1.
    9900012    2    1    2    0    0  0.35022220009E+01  0.28519103481E+02 -0.28767352903E+02  0.50528863077E+02  0.30000009808E+02 0.  0.
        -12    1    1    2    0    0 -0.35022220009E+01 -0.28519103481E+02  0.28767352903E+02  0.40659136923E+02  0.00000000000E+00 0.  1.
         11    1    3    3    0    0  0.58056698189E+01  0.20327731879E+02 -0.52702699504E+01  0.21787570562E+02  0.51100000000E-03 0. -1.
        -11    1    3    3    0    0  0.23014712742E+01  0.91249905371E+01 -0.21801854664E+02  0.23746222634E+02  0.51100000000E-03 0.  1.
        -12    1    3    3    0    0 -0.46049190922E+01 -0.93361893483E+00 -0.16952282881E+01  0.49950698803E+01  0.00000000000E+00 0.  1.
</event>
<event>
 7    1  0.9930326E-013  0.5052886E+02  0.7816164E-02  0.1300439E+00
        -11   -1    0    0    0    0  0.00000000000E+00  0.00000000000E+00  0.45593999997E+02  0.45594000000E+02  0.51100000000E-03 0.  1.
         11   -1    0    0    0    0 -0.00000000000E+00 -0.00000000000E+00 -0.45593999997E+02  0.45594000000E+02  0.51100000000E-03 0. -1.
    9900012    2    1    2    0    0  0.68171636761E+00 -0.35998598388E+01 -0.40493726372E+02  0.50528860763E+02  0.30000002774E+02 0.  0.
        -12    1    1    2    0    0 -0.68171636761E+00  0.35998598388E+01  0.40493726372E+02  0.40659139237E+02  0.00000000000E+00 0.  1.
         11    1    3    3    0    0 -0.54923714069E+01  0.33197247695E+01 -0.15918395299E+02  0.17163392013E+02  0.51100000000E-03 0. -1.
        -11    1    3    3    0    0 -0.50149725756E+00 -0.10256749966E+02 -0.32486505368E+01  0.10770615114E+02  0.51100000000E-03 0.  1.
        -12    1    3    3    0    0  0.66755850321E+01  0.33371653580E+01 -0.21326680536E+02  0.22594853636E+02  0.00000000000E+00 0.  1.
</event>
<event>
 7    1  0.9930326E-013  0.5052886E+02  0.7816164E-02  0.1300439E+00
        -11   -1    0    0    0    0  0.00000000000E+00  0.00000000000E+00  0.45593999997E+02  0.45594000000E+02  0.51100000000E-03 0. -1.
         11   -1    0    0    0    0 -0.00000000000E+00 -0.00000000000E+00 -0.45593999997E+02  0.45594000000E+02  0.51100000000E-03 0.  1.
    9900012    2    1    2    0    0 -0.35405603440E+02 -0.13574368011E+02  0.14674657664E+02  0.50528858354E+02  0.29999995452E+02 0.  0.
        -12    1    1    2    0    0  0.35405603440E+02  0.13574368011E+02 -0.14674657664E+02  0.40659141646E+02  0.00000000000E+00 0.  1.
         11    1    3    3    0    0 -0.12549291403E+02 -0.98408043370E+00 -0.11585581689E+01  0.12641019987E+02  0.51100000000E-03 0. -1.
        -11    1    3    3    0    0  0.36429201024E+01 -0.58123295527E+01  0.49066145879E+01  0.84337956270E+01  0.51100000000E-03 0.  1.
        -12    1    3    3    0    0 -0.26499232140E+02 -0.67779580249E+01  0.10926601245E+02  0.29454042740E+02  0.00000000000E+00 0.  1.
</event>
<event>
 7    1  0.9930326E-013  0.5052887E+02  0.7816164E-02  0.1300439E+00
        -11   -1    0    0    0    0  0.00000000000E+00  0.00000000000E+00  0.45593999997E+02  0.45594000000E+02  0.51100000000E-03 0.  1.
         11   -1    0    0    0    0 -0.00000000000E+00 -0.00000000000E+00 -0.45593999997E+02  0.45594000000E+02  0.51100000000E-03 0. -1.
    9900012    2    1    2    0    0  0.16399995219E+02 -0.69229787784E+01 -0.36555133401E+02  0.50528865033E+02  0.30000015754E+02 0.  0.
        -12    1    1    2    0    0 -0.16399995219E+02  0.69229787784E+01  0.36555133401E+02  0.40659134967E+02  0.00000000000E+00 0.  1.
         11    1    3    3    0    0  0.65969993854E+01  0.32547642367E+01 -0.10191631690E+02  0.12569138709E+02  0.51100000000E-03 0. -1.
        -11    1    3    3    0    0  0.90583158200E+01 -0.15672621975E+02 -0.26862116515E+02  0.32392243964E+02  0.51100000000E-03 0.  1.
        -12    1    3    3    0    0  0.74468001328E+00  0.54948789601E+01  0.49861480412E+00  0.55674823602E+01  0.00000000000E+00 0.  1.
</event>
<event>
 7    1  0.9930326E-013  0.5052886E+02  0.7816164E-02  0.1300439E+00
        -11   -1    0    0    0    0  0.00000000000E+00  0.00000000000E+00  0.45593999997E+02  0.45594000000E+02  0.51100000000E-03 0.  1.
         11   -1    0    0    0    0 -0.00000000000E+00 -0.00000000000E+00 -0.45593999997E+02  0.45594000000E+02  0.51100000000E-03 0. -1.
    9900012    2    1    2    0    0  0.27933705121E+02  0.24957099536E+01 -0.29438835555E+02  0.50528862174E+02  0.30000007063E+02 0.  0.
        -12    1    1    2    0    0 -0.27933705121E+02 -0.24957099536E+01  0.29438835555E+02  0.40659137826E+02  0.00000000000E+00 0.  1.
         11    1    3    3    0    0  0.38122676949E+01  0.12428981763E+01  0.23951193094E+01  0.46706292533E+01  0.51100000000E-03 0. -1.
        -11    1    3    3    0    0  0.27984972057E+02 -0.10783090660E+01 -0.29844049766E+02  0.40926626029E+02  0.51100000000E-03 0.  1.
         12    1    3    3    0    0 -0.38635346305E+01  0.23311208433E+01 -0.19899050981E+01  0.49316068909E+01  0.00000000000E+00 0. -1.
</event>
<event>
 7    1  0.9930326E-013  0.5052887E+02  0.7816164E-02  0.1300439E+00
        -11   -1    0    0    0    0  0.00000000000E+00  0.00000000000E+00  0.45593999997E+02  0.45594000000E+02  0.51100000000E-03 0.  1.
         11   -1    0    0    0    0 -0.00000000000E+00 -0.00000000000E+00 -0.45593999997E+02  0.45594000000E+02  0.51100000000E-03 0. -1.
    9900012    2    1    2    0    0  0.39371200176E+02 -0.70603160764E+01  0.72955988553E+01  0.50528865368E+02  0.30000016772E+02 0.  0.
        -12    1    1    2    0    0 -0.39371200176E+02  0.70603160764E+01 -0.72955988553E+01  0.40659134632E+02  0.00000000000E+00 0.  1.
         11    1    3    3    0    0  0.26444115468E+02  0.40018542310E+00  0.11505520256E+01  0.26472158233E+02  0.51100000000E-03 0. -1.
        -11    1    3    3    0    0  0.24377145880E+01 -0.10606281813E+02  0.72094250875E+01  0.13054174683E+02  0.51100000000E-03 0.  1.
        -12    1    3    3    0    0  0.10489370120E+02  0.31457803133E+01 -0.10643782578E+01  0.11002532452E+02  0.00000000000E+00 0.  1.
</event>
<event>
 7    1  0.9930326E-013  0.5052886E+02  0.7816164E-02  0.1300439E+00
        -11   -1    0    0    0    0  0.00000000000E+00  0.00000000000E+00  0.45593999997E+02  0.45594000000E+02  0.51100000000E-03 0.  1.
         11   -1    0    0    0    0 -0.00000000000E+00 -0.00000000000E+00 -0.45593999997E+02  0.45594000000E+02  0.51100000000E-03 0. -1.
    9900012    2    1    2    0    0 -0.76963273231E+01 -0.12054170491E+02 -0.38060860482E+02  0.50528861038E+02  0.30000003610E+02 0.  0.
        -12    1    1    2    0    0  0.76963273231E+01  0.12054170491E+02  0.38060860482E+02  0.40659138962E+02  0.00000000000E+00 0.  1.
         11    1    3    3    0    0  0.94730983739E+00 -0.11463293989E+02 -0.25531257000E+02  0.28002671110E+02  0.51100000000E-03 0. -1.
        -11    1    3    3    0    0 -0.67826692278E+01  0.75631074213E+01 -0.84829136883E+01  0.13234992279E+02  0.51100000000E-03 0.  1.
        -12    1    3    3    0    0 -0.18609679327E+01 -0.81539839230E+01 -0.40466897940E+01  0.92911976490E+01  0.00000000000E+00 0.  1.
</event>
<event>
 7    1  0.9930326E-013  0.5052886E+02  0.7816164E-02  0.1300439E+00
        -11   -1    0    0    0    0  0.00000000000E+00  0.00000000000E+00  0.45593999997E+02  0.45594000000E+02  0.51100000000E-03 0.  1.
         11   -1    0    0    0    0 -0.00000000000E+00 -0.00000000000E+00 -0.45593999997E+02  0.45594000000E+02  0.51100000000E-03 0. -1.
    9900012    2    1    2    0    0 -0.30837002529E+02 -0.16210687479E+02 -0.20963271095E+02  0.50528857750E+02  0.29999993616E+02 0.  0.
        -12    1    1    2    0    0  0.30837002529E+02  0.16210687479E+02  0.20963271095E+02  0.40659142250E+02  0.00000000000E+00 0.  1.
         11    1    3    3    0    0 -0.25792301933E+02 -0.92779886968E+01 -0.19923898951E+02  0.33886363967E+02  0.51100000000E-03 0. -1.
        -11    1    3    3    0    0  0.62174275079E+00 -0.46791232001E+01  0.58008394092E+01  0.74786694058E+01  0.51100000000E-03 0.  1.
        -12    1    3    3    0    0 -0.56664433471E+01 -0.22535755821E+01 -0.68402115534E+01  0.91638243766E+01  0.00000000000E+00 0.  1.
</event>
<event>
 7    1  0.9930326E-013  0.5052888E+02  0.7816164E-02  0.1300439E+00
        -11   -1    0    0    0    0  0.00000000000E+00  0.00000000000E+00  0.45593999997E+02  0.45594000000E+02  0.51100000000E-03 0.  1.
         11   -1    0    0    0    0 -0.00000000000E+00 -0.00000000000E+00 -0.45593999997E+02  0.45594000000E+02  0.51100000000E-03 0. -1.
    9900012    2    1    2    0    0  0.43508545006E+01  0.20634070361E+02 -0.34763041079E+02  0.50528882700E+02  0.30000069455E+02 0.  0.
        -12    1    1    2    0    0 -0.43508545006E+01 -0.20634070361E+02  0.34763041079E+02  0.40659117300E+02  0.00000000000E+00 0.  1.
         11    1    3    3    0    0  0.81720377959E+00  0.18563264305E+02 -0.18667233786E+02  0.26338720947E+02  0.51100000000E-03 0. -1.
        -11    1    3    3    0    0 -0.25126639655E+01 -0.39370784106E+01 -0.14860849415E+02  0.15577513030E+02  0.51100000000E-03 0.  1.
         12    1    3    3    0    0  0.60463146864E+01  0.60078844669E+01 -0.12349578787E+01  0.86126487225E+01  0.00000000000E+00 0. -1.
</event>
<event>
 7    1  0.9930326E-013  0.5052886E+02  0.7816164E-02  0.1300439E+00
        -11   -1    0    0    0    0  0.00000000000E+00  0.00000000000E+00  0.45593999997E+02  0.45594000000E+02  0.51100000000E-03 0.  1.
         11   -1    0    0    0    0 -0.00000000000E+00 -0.00000000000E+00 -0.45593999997E+02  0.45594000000E+02  0.51100000000E-03 0. -1.
    9900012    2    1    2    0    0  0.26036520202E+02  0.26138040421E+02 -0.17090005126E+02  0.50528858144E+02  0.29999994813E+02 0.  0.
        -12    1    1    2    0    0 -0.26036520202E+02 -0.26138040421E+02  0.17090005126E+02  0.40659141856E+02  0.00000000000E+00 0.  1.
         11    1    3    3    0    0  0.23348327260E+02  0.28747164249E+02 -0.15208094216E+02  0.40035358973E+02  0.51100000000E-03 0. -1.
        -11    1    3    3    0    0  0.43255121447E+01 -0.50697303413E+01 -0.30326275642E+01  0.73218202144E+01  0.51100000000E-03 0.  1.
         12    1    3    3    0    0 -0.16373192021E+01  0.24606065131E+01  0.11507166539E+01  0.31716789559E+01  0.00000000000E+00 0. -1.
</event>
<event>
 7    1  0.9930326E-013  0.5052886E+02  0.7816164E-02  0.1300439E+00
        -11   -1    0    0    0    0  0.00000000000E+00  0.00000000000E+00  0.45593999997E+02  0.45594000000E+02  0.51100000000E-03 0.  1.
         11   -1    0    0    0    0 -0.00000000000E+00 -0.00000000000E+00 -0.45593999997E+02  0.45594000000E+02  0.51100000000E-03 0. -1.
    9900012    2    1    2    0    0  0.27199445088E+02  0.24988376814E+02 -0.16998142750E+02  0.50528860242E+02  0.30000001191E+02 0.  0.
        -12    1    1    2    0    0 -0.27199445088E+02 -0.24988376814E+02  0.16998142750E+02  0.40659139758E+02  0.00000000000E+00 0.  1.
         11    1    3    3    0    0  0.85088319807E+01 -0.49770790008E+01 -0.39235859180E+01  0.10609715537E+02  0.51100000000E-03 0. -1.
        -11    1    3    3    0    0  0.16773613079E+02  0.29886704933E+02 -0.90285398657E+01  0.35441271984E+02  0.51100000000E-03 0.  1.
        -12    1    3    3    0    0  0.19170000284E+01  0.78750881897E-01 -0.40460169666E+01  0.44778727209E+01  0.00000000000E+00 0.  1.
</event>
<event>
 7    1  0.9930326E-013  0.5052886E+02  0.7816164E-02  0.1300439E+00
        -11   -1    0    0    0    0  0.00000000000E+00  0.00000000000E+00  0.45593999997E+02  0.45594000000E+02  0.51100000000E-03 0.  1.
         11   -1    0    0    0    0 -0.00000000000E+00 -0.00000000000E+00 -0.45593999997E+02  0.45594000000E+02  0.51100000000E-03 0. -1.
    9900012    2    1    2    0    0 -0.15749354502E+02  0.57262250390E+01 -0.37045027614E+02  0.50528857223E+02  0.29999992016E+02 0.  0.
        -12    1    1    2    0    0  0.15749354502E+02 -0.57262250390E+01  0.37045027614E+02  0.40659142777E+02  0.00000000000E+00 0.  1.
         11    1    3    3    0    0 -0.11044657246E+02 -0.48423486098E+01 -0.12181142909E+02  0.17140975368E+02  0.51100000000E-03 0. -1.
        -11    1    3    3    0    0  0.31436257278E+00  0.12467302469E+02 -0.25088231364E+02  0.28016991415E+02  0.51100000000E-03 0.  1.
        -12    1    3    3    0    0 -0.50190598289E+01 -0.18987288205E+01  0.22434665975E+00  0.53708904405E+01  0.00000000000E+00 0.  1.
</event>
<event>
 7    1  0.9930326E-013  0.5052886E+02  0.7816164E-02  0.1300439E+00
        -11   -1    0    0    0    0  0.00000000000E+00  0.00000000000E+00  0.45593999997E+02  0.45594000000E+02  0.51100000000E-03 0.  1.
         11   -1    0    0    0    0 -0.00000000000E+00 -0.00000000000E+00 -0.45593999997E+02  0.45594000000E+02  0.51100000000E-03 0. -1.
    9900012    2    1    2    0    0 -0.30293257305E+02 -0.28623233884E+01 -0.26968346922E+02  0.50528855038E+02  0.29999985374E+02 0.  0.
        -12    1    1    2    0    0  0.30293257305E+02  0.28623233884E+01  0.26968346922E+02  0.40659144962E+02  0.00000000000E+00 0.  1.
         11    1    3    3    0    0 -0.20424785935E+02 -0.10495182753E+02 -0.74740642982E+01  0.24149169321E+02  0.51100000000E-03 0. -1.
        -11    1    3    3    0    0 -0.83974163403E+01  0.59278404755E+01 -0.21196157008E+02  0.23557015220E+02  0.51100000000E-03 0.  1.
        -12    1    3    3    0    0 -0.14710550299E+01  0.17050188895E+01  0.17018743843E+01  0.28226704970E+01  0.00000000000E+00 0.  1.
</event>
<event>
 7    1  0.1243089E-012  0.5052887E+02  0.7816164E-02  0.1300439E+00
        -11   -1    0    0    0    0  0.00000000000E+00  0.00000000000E+00  0.45593999997E+02  0.45594000000E+02  0.51100000000E-03 0. -1.
         11   -1    0    0    0    0 -0.00000000000E+00 -0.00000000000E+00 -0.45593999997E+02  0.45594000000E+02  0.51100000000E-03 0.  1.
    9900012    2    1    2    0    0  0.25189712828E+02  0.98539732185E+01  0.30356918071E+02  0.50528869471E+02  0.30000029246E+02 0.  0.
        -12    1    1    2    0    0 -0.25189712828E+02 -0.98539732185E+01 -0.30356918071E+02  0.40659130529E+02  0.00000000000E+00 0.  1.
         11    1    3    3    0    0  0.15395143729E+02  0.80021747543E+01  0.23980436419E+02  0.29599097661E+02  0.51100000000E-03 0. -1.
        -11    1    3    3    0    0  0.84604755440E+00  0.76236493726E+01 -0.13303715572E+01  0.77849672422E+01  0.51100000000E-03 0.  1.
        -12    1    3    3    0    0  0.89485215452E+01 -0.57718509084E+01  0.77068532091E+01  0.13144804568E+02  0.00000000000E+00 0.  1.
</event>
<event>
 7    1  0.9930326E-013  0.5052886E+02  0.7816164E-02  0.1300439E+00
        -11   -1    0    0    0    0  0.00000000000E+00  0.00000000000E+00  0.45593999997E+02  0.45594000000E+02  0.51100000000E-03 0.  1.
         11   -1    0    0    0    0 -0.00000000000E+00 -0.00000000000E+00 -0.45593999997E+02  0.45594000000E+02  0.51100000000E-03 0. -1.
    9900012    2    1    2    0    0 -0.10505772891E+02  0.38659200679E+02 -0.69469600853E+01  0.50528864303E+02  0.30000013535E+02 0.  0.
        -12    1    1    2    0    0  0.10505772891E+02 -0.38659200679E+02  0.69469600853E+01  0.40659135697E+02  0.00000000000E+00 0.  1.
         11    1    3    3    0    0 -0.60767490665E+01  0.43953761888E+01  0.68705231321E+01  0.10171052031E+02  0.51100000000E-03 0.  1.
        -11    1    3    3    0    0 -0.52891579630E+01  0.30036612305E+02 -0.17074054332E+02  0.34952776747E+02  0.51100000000E-03 0. -1.
        -12    1    3    3    0    0  0.86013413812E+00  0.42272121858E+01  0.32565711144E+01  0.54050355247E+01  0.00000000000E+00 0.  1.
</event>
<event>
 7    1  0.9930326E-013  0.5052885E+02  0.7816164E-02  0.1300439E+00
        -11   -1    0    0    0    0  0.00000000000E+00  0.00000000000E+00  0.45593999997E+02  0.45594000000E+02  0.51100000000E-03 0. -1.
         11   -1    0    0    0    0 -0.00000000000E+00 -0.00000000000E+00 -0.45593999997E+02  0.45594000000E+02  0.51100000000E-03 0.  1.
    9900012    2    1    2    0    0 -0.26112521923E+02  0.15785347959E+02  0.26872384851E+02  0.50528854916E+02  0.29999985003E+02 0.  0.
        -12    1    1    2    0    0  0.26112521923E+02 -0.15785347959E+02 -0.26872384851E+02  0.40659145084E+02  0.00000000000E+00 0.  1.
         11    1    3    3    0    0 -0.11916011998E+02 -0.29893295917E+00  0.10244673025E+00  0.11920201275E+02  0.51100000000E-03 0. -1.
        -11    1    3    3    0    0  0.42505757909E+01  0.29715687836E+01  0.48180338662E+01  0.70789170208E+01  0.51100000000E-03 0.  1.
         12    1    3    3    0    0 -0.18447085716E+02  0.13112712135E+02  0.21951904255E+02  0.31529736620E+02  0.00000000000E+00 0. -1.
</event>
<event>
 7    1  0.9930326E-013  0.5052887E+02  0.7816164E-02  0.1300439E+00
        -11   -1    0    0    0    0  0.00000000000E+00  0.00000000000E+00  0.45593999997E+02  0.45594000000E+02  0.51100000000E-03 0. -1.
         11   -1    0    0    0    0 -0.00000000000E+00 -0.00000000000E+00 -0.45593999997E+02  0.45594000000E+02  0.51100000000E-03 0.  1.
    9900012    2    1    2    0    0  0.17316346464E+02 -0.26009481814E+02  0.26015685623E+02  0.50528869444E+02  0.30000029162E+02 0.  0.
        -12    1    1    2    0    0 -0.17316346464E+02  0.26009481814E+02 -0.26015685623E+02  0.40659130556E+02  0.00000000000E+00 0.  1.
         11    1    3    3    0    0  0.22942557128E+01 -0.68621274056E+01  0.40746270326E+01  0.83039139882E+01  0.51100000000E-03 0. -1.
        -11    1    3    3    0    0  0.37654222663E+00  0.54518520066E+00  0.17220842123E+02  0.17233583918E+02  0.51100000000E-03 0.  1.
        -12    1    3    3    0    0  0.14645548525E+02 -0.19692539609E+02  0.47202164671E+01  0.24991371538E+02  0.00000000000E+00 0.  1.
</event>
<event>
 7    1  0.9930326E-013  0.5052888E+02  0.7816164E-02  0.1300439E+00
        -11   -1    0    0    0    0  0.00000000000E+00  0.00000000000E+00  0.45593999997E+02  0.45594000000E+02  0.51100000000E-03 0.  1.
         11   -1    0    0    0    0 -0.00000000000E+00 -0.00000000000E+00 -0.45593999997E+02  0.45594000000E+02  0.51100000000E-03 0. -1.
    9900012    2    1    2    0    0  0.29709838621E+01 -0.81619373362E+01 -0.39720527849E+02  0.50528876807E+02  0.30000051544E+02 0.  0.
        -12    1    1    2    0    0 -0.29709838621E+01  0.81619373362E+01  0.39720527849E+02  0.40659123193E+02  0.00000000000E+00 0.  1.
         11    1    3    3    0    0 -0.52583087552E+01 -0.12802455770E+01 -0.11601691833E+02  0.12801878509E+02  0.51100000000E-03 0. -1.
        -11    1    3    3    0    0  0.17726237329E+01  0.74935698679E+00  0.38108181037E+01  0.42691996524E+01  0.51100000000E-03 0.  1.
        -12    1    3    3    0    0  0.64566688844E+01 -0.76310487461E+01 -0.31929654120E+02  0.33457798646E+02  0.00000000000E+00 0.  1.
</event>
<event>
 7    1  0.9930326E-013  0.5052886E+02  0.7816164E-02  0.1300439E+00
        -11   -1    0    0    0    0  0.00000000000E+00  0.00000000000E+00  0.45593999997E+02  0.45594000000E+02  0.51100000000E-03 0. -1.
         11   -1    0    0    0    0 -0.00000000000E+00 -0.00000000000E+00 -0.45593999997E+02  0.45594000000E+02  0.51100000000E-03 0.  1.
    9900012    2    1    2    0    0 -0.21530622593E+02 -0.26723554830E+02  0.21804813653E+02  0.50528856004E+02  0.29999988311E+02 0.  0.
        -12    1    1    2    0    0  0.21530622593E+02  0.26723554830E+02 -0.21804813653E+02  0.40659143996E+02  0.00000000000E+00 0.  1.
         11    1    3    3    0    0 -0.34007885544E-01 -0.63370711894E+01  0.26487624057E+01  0.68684474475E+01  0.51100000000E-03 0. -1.
        -11    1    3    3    0    0 -0.99348902880E+01  0.49447331723E+01  0.79206473784E+01  0.13634114798E+02  0.51100000000E-03 0.  1.
        -12    1    3    3    0    0 -0.11561724419E+02 -0.25331216813E+02  0.11235403869E+02  0.30026293759E+02  0.00000000000E+00 0.  1.
</event>
<event>
 7    1  0.9930326E-013  0.5052886E+02  0.7816164E-02  0.1300439E+00
        -11   -1    0    0    0    0  0.00000000000E+00  0.00000000000E+00  0.45593999997E+02  0.45594000000E+02  0.51100000000E-03 0.  1.
         11   -1    0    0    0    0 -0.00000000000E+00 -0.00000000000E+00 -0.45593999997E+02  0.45594000000E+02  0.51100000000E-03 0. -1.
    9900012    2    1    2    0    0  0.38942308356E+01  0.37578548235E+02  0.15028410831E+02  0.50528862609E+02  0.30000008386E+02 0.  0.
        -12    1    1    2    0    0 -0.38942308356E+01 -0.37578548235E+02 -0.15028410831E+02  0.40659137391E+02  0.00000000000E+00 0.  1.
         11    1    3    3    0    0  0.63984060834E+01  0.16635620212E+02 -0.32918764431E+01  0.18125118235E+02  0.51100000000E-03 0. -1.
        -11    1    3    3    0    0  0.16382501020E+01  0.68917744382E+01  0.16097249912E+02  0.17586980221E+02  0.51100000000E-03 0.  1.
        -12    1    3    3    0    0 -0.41424253498E+01  0.14051153585E+02  0.22230373617E+01  0.14816764153E+02  0.00000000000E+00 0.  1.
</event>
<event>
 7    1  0.9930326E-013  0.5052886E+02  0.7816164E-02  0.1300439E+00
        -11   -1    0    0    0    0  0.00000000000E+00  0.00000000000E+00  0.45593999997E+02  0.45594000000E+02  0.51100000000E-03 0. -1.
         11   -1    0    0    0    0 -0.00000000000E+00 -0.00000000000E+00 -0.45593999997E+02  0.45594000000E+02  0.51100000000E-03 0.  1.
    9900012    2    1    2    0    0  0.98700373500E+01 -0.45075459294E+01  0.39184563868E+02  0.50528860152E+02  0.30000000919E+02 0.  0.
        -12    1    1    2    0    0 -0.98700373500E+01  0.45075459294E+01 -0.39184563868E+02  0.40659139848E+02  0.00000000000E+00 0.  1.
         11    1    3    3    0    0 -0.80352195768E+01  0.28652268487E+01  0.19789744682E+02  0.21550133952E+02  0.51100000000E-03 0. -1.
        -11    1    3    3    0    0  0.79517154365E+01 -0.57553064382E+01  0.40536244662E+01  0.10620037766E+02  0.51100000000E-03 0.  1.
        -12    1    3    3    0    0  0.99535414903E+01 -0.16174663399E+01  0.15341194721E+02  0.18358688434E+02  0.00000000000E+00 0.  1.
</event>
<event>
 7    1  0.9930326E-013  0.5052886E+02  0.7816164E-02  0.1300439E+00
        -11   -1    0    0    0    0  0.00000000000E+00  0.00000000000E+00  0.45593999997E+02  0.45594000000E+02  0.51100000000E-03 0.  1.
         11   -1    0    0    0    0 -0.00000000000E+00 -0.00000000000E+00 -0.45593999997E+02  0.45594000000E+02  0.51100000000E-03 0. -1.
    9900012    2    1    2    0    0 -0.30704784771E+02  0.38142139788E+01 -0.26378652488E+02  0.50528863964E+02  0.30000012505E+02 0.  0.
        -12    1    1    2    0    0  0.30704784771E+02 -0.38142139788E+01  0.26378652488E+02  0.40659136036E+02  0.00000000000E+00 0.  1.
         11    1    3    3    0    0 -0.30657105376E+02  0.55507718287E+01 -0.31824281460E+02  0.44535986220E+02  0.51100000000E-03 0. -1.
        -11    1    3    3    0    0  0.36528381574E+00 -0.21534891770E-02  0.26639266166E+01  0.26888551808E+01  0.51100000000E-03 0.  1.
         12    1    3    3    0    0 -0.41296321099E+00 -0.17344043607E+01  0.27817023557E+01  0.33040225629E+01  0.00000000000E+00 0. -1.
</event>
<event>
 7    1  0.9930326E-013  0.5052886E+02  0.7816164E-02  0.1300439E+00
        -11   -1    0    0    0    0  0.00000000000E+00  0.00000000000E+00  0.45593999997E+02  0.45594000000E+02  0.51100000000E-03 0.  1.
         11   -1    0    0    0    0 -0.00000000000E+00 -0.00000000000E+00 -0.45593999997E+02  0.45594000000E+02  0.51100000000E-03 0. -1.
    9900012    2    1    2    0    0 -0.34470511362E+02  0.19858326505E+02 -0.84021840349E+01  0.50528856112E+02  0.29999988639E+02 0.  0.
        -12    1    1    2    0    0  0.34470511362E+02 -0.19858326505E+02  0.84021840349E+01  0.40659143888E+02  0.00000000000E+00 0.  1.
         11    1    3    3    0    0 -0.20423330524E+02  0.12605384904E+02  0.30269642265E+01  0.24190301176E+02  0.51100000000E-03 0. -1.
        -11    1    3    3    0    0 -0.11718710136E+02 -0.24653521018E+01 -0.11117596752E+02  0.16340351466E+02  0.51100000000E-03 0.  1.
        -12    1    3    3    0    0 -0.23284707018E+01  0.97182937028E+01 -0.31155150976E+00  0.99982034710E+01  0.00000000000E+00 0.  1.
</event>
<event>
 7    1  0.9930326E-013  0.5052887E+02  0.7816164E-02  0.1300439E+00
        -11   -1    0    0    0    0  0.00000000000E+00  0.00000000000E+00  0.45593999997E+02  0.45594000000E+02  0.51100000000E-03 0. -1.
         11   -1    0    0    0    0 -0.00000000000E+00 -0.00000000000E+00 -0.45593999997E+02  0.45594000000E+02  0.51100000000E-03 0.  1.
    9900012    2    1    2    0    0 -0.17451456658E+02  0.85156240492E+01  0.35722484116E+02  0.50528867399E+02  0.30000022946E+02 0.  0.
        -12    1    1    2    0    0  0.17451456658E+02 -0.85156240492E+01 -0.35722484116E+02  0.40659132601E+02  0.00000000000E+00 0.  1.
         11    1    3    3    0    0  0.91679302055E+00  0.10688314188E+02  0.16218115135E+01  0.10849462774E+02  0.51100000000E-03 0. -1.
        -11    1    3    3    0    0 -0.16495486045E+02 -0.18332044404E+01  0.33925931045E+02  0.37768114804E+02  0.51100000000E-03 0.  1.
        -12    1    3    3    0    0 -0.18727636336E+01 -0.33948569877E+00  0.17474155812E+00  0.19112898208E+01  0.00000000000E+00 0.  1.
</event>
<event>
 7    1  0.9930326E-013  0.5052888E+02  0.7816164E-02  0.1300439E+00
        -11   -1    0    0    0    0  0.00000000000E+00  0.00000000000E+00  0.45593999997E+02  0.45594000000E+02  0.51100000000E-03 0.  1.
         11   -1    0    0    0    0 -0.00000000000E+00 -0.00000000000E+00 -0.45593999997E+02  0.45594000000E+02  0.51100000000E-03 0. -1.
    9900012    2    1    2    0    0 -0.36693179144E+02 -0.53980166697E+00 -0.17506659669E+02  0.50528881536E+02  0.30000065917E+02 0.  0.
        -12    1    1    2    0    0  0.36693179144E+02  0.53980166697E+00  0.17506659669E+02  0.40659118464E+02  0.00000000000E+00 0.  1.
         11    1    3    3    0    0 -0.28076400614E+02  0.50224539572E+01 -0.86616674632E+01  0.29808284061E+02  0.51100000000E-03 0. -1.
        -11    1    3    3    0    0  0.24721589812E+01 -0.27581453185E+01  0.26113186544E+01  0.45318783084E+01  0.51100000000E-03 0.  1.
         12    1    3    3    0    0 -0.11088937511E+02 -0.28041103057E+01 -0.11456310860E+02  0.16188719166E+02  0.00000000000E+00 0. -1.
</event>
<event>
 7    1  0.9930326E-013  0.5052887E+02  0.7816164E-02  0.1300439E+00
        -11   -1    0    0    0    0  0.00000000000E+00  0.00000000000E+00  0.45593999997E+02  0.45594000000E+02  0.51100000000E-03 0.  1.
         11   -1    0    0    0    0 -0.00000000000E+00 -0.00000000000E+00 -0.45593999997E+02  0.45594000000E+02  0.51100000000E-03 0. -1.
    9900012    2    1    2    0    0  0.19758541093E+02  0.30837116069E+02 -0.17658903214E+02  0.50528873887E+02  0.30000042666E+02 0.  0.
        -12    1    1    2    0    0 -0.19758541093E+02 -0.30837116069E+02  0.17658903214E+02  0.40659126113E+02  0.00000000000E+00 0.  1.
         11    1    3    3    0    0  0.21141416757E+02  0.16399377627E+02 -0.11191086693E+02  0.29002405257E+02  0.51100000000E-03 0.  1.
        -11    1    3    3    0    0 -0.24621129601E+01 -0.18135797482E+01 -0.40285668725E+01  0.50577092679E+01  0.51100000000E-03 0. -1.
        -12    1    3    3    0    0  0.10792372961E+01  0.16251318190E+02 -0.24392496482E+01  0.16468759362E+02  0.00000000000E+00 0.  1.
</event>
<event>
 7    1  0.9930326E-013  0.5052886E+02  0.7816164E-02  0.1300439E+00
        -11   -1    0    0    0    0  0.00000000000E+00  0.00000000000E+00  0.45593999997E+02  0.45594000000E+02  0.51100000000E-03 0. -1.
         11   -1    0    0    0    0 -0.00000000000E+00 -0.00000000000E+00 -0.45593999997E+02  0.45594000000E+02  0.51100000000E-03 0.  1.
    9900012    2    1    2    0    0 -0.15402000581E+02 -0.29551054591E+02  0.23295475423E+02  0.50528860505E+02  0.30000001990E+02 0.  0.
        -12    1    1    2    0    0  0.15402000581E+02  0.29551054591E+02 -0.23295475423E+02  0.40659139495E+02  0.00000000000E+00 0.  1.
         11    1    3    3    0    0  0.26024439515E+01 -0.79518531666E+01  0.96425994172E+01  0.12766534655E+02  0.51100000000E-03 0. -1.
        -11    1    3    3    0    0 -0.22846403214E+01 -0.89805607015E+01 -0.47980210037E+01  0.10435087816E+02  0.51100000000E-03 0.  1.
        -12    1    3    3    0    0 -0.15719804211E+02 -0.12618640723E+02  0.18450897010E+02  0.27327238034E+02  0.00000000000E+00 0.  1.
</event>
<event>
 7    1  0.9930326E-013  0.5052886E+02  0.7816164E-02  0.1300439E+00
        -11   -1    0    0    0    0  0.00000000000E+00  0.00000000000E+00  0.45593999997E+02  0.45594000000E+02  0.51100000000E-03 0.  1.
         11   -1    0    0    0    0 -0.00000000000E+00 -0.00000000000E+00 -0.45593999997E+02  0.45594000000E+02  0.51100000000E-03 0. -1.
    9900012    2    1    2    0    0  0.10308153526E+02 -0.76893421406E+01 -0.38571767927E+02  0.50528864585E+02  0.30000014393E+02 0.  0.
        -12    1    1    2    0    0 -0.10308153526E+02  0.76893421406E+01  0.38571767927E+02  0.40659135415E+02  0.00000000000E+00 0.  1.
         11    1    3    3    0    0 -0.21262653383E+01 -0.58101160830E+01  0.26679243974E+01  0.67376757148E+01  0.51100000000E-03 0. -1.
        -11    1    3    3    0    0  0.33518493761E+01  0.29175341519E+01 -0.13354259071E+02  0.14074201056E+02  0.51100000000E-03 0.  1.
         12    1    3    3    0    0  0.90825694886E+01 -0.47967602096E+01 -0.27885433253E+02  0.29716987814E+02  0.00000000000E+00 0. -1.
</event>
<event>
 7    1  0.1102239E-012  0.5052886E+02  0.7816164E-02  0.1300439E+00
        -11   -1    0    0    0    0  0.00000000000E+00  0.00000000000E+00  0.45593999997E+02  0.45594000000E+02  0.51100000000E-03 0. -1.
         11   -1    0    0    0    0 -0.00000000000E+00 -0.00000000000E+00 -0.45593999997E+02  0.45594000000E+02  0.51100000000E-03 0.  1.
    9900012    2    1    2    0    0 -0.40617580305E+02  0.65078658618E+00 -0.17187049138E+01  0.50528864500E+02  0.30000014133E+02 0.  0.
        -12    1    1    2    0    0  0.40617580305E+02 -0.65078658618E+00  0.17187049138E+01  0.40659135500E+02  0.00000000000E+00 0.  1.
         11    1    3    3    0    0 -0.35148905361E+02 -0.35435790176E+01 -0.45437160288E+01  0.35618083271E+02  0.51100000000E-03 0. -1.
        -11    1    3    3    0    0  0.12156049235E+01  0.30443807267E+01 -0.40787300372E+01  0.52327801708E+01  0.51100000000E-03 0.  1.
         12    1    3    3    0    0 -0.66842798681E+01  0.11499848771E+01  0.69037411522E+01  0.96780010575E+01  0.00000000000E+00 0. -1.
</event>
<event>
 7    1  0.9930326E-013  0.5052888E+02  0.7816164E-02  0.1300439E+00
        -11   -1    0    0    0    0  0.00000000000E+00  0.00000000000E+00  0.45593999997E+02  0.45594000000E+02  0.51100000000E-03 0.  1.
         11   -1    0    0    0    0 -0.00000000000E+00 -0.00000000000E+00 -0.45593999997E+02  0.45594000000E+02  0.51100000000E-03 0. -1.
    9900012    2    1    2    0    0 -0.13398079253E+02 -0.13173750808E+02 -0.36057005335E+02  0.50528882059E+02  0.30000067508E+02 0.  0.
        -12    1    1    2    0    0  0.13398079253E+02  0.13173750808E+02  0.36057005335E+02  0.40659117941E+02  0.00000000000E+00 0.  1.
         11    1    3    3    0    0  0.64694022205E+01 -0.10107610412E+01 -0.10446583013E+02  0.12329067276E+02  0.51100000000E-03 0. -1.
        -11    1    3    3    0    0 -0.20658759881E+02 -0.61208762857E+01 -0.23157377600E+02  0.31630896666E+02  0.51100000000E-03 0.  1.
        -12    1    3    3    0    0  0.79127840782E+00 -0.60421134807E+01 -0.24530447210E+01  0.65689181176E+01  0.00000000000E+00 0.  1.
</event>
<event>
 7    1  0.9930326E-013  0.5052886E+02  0.7816164E-02  0.1300439E+00
        -11   -1    0    0    0    0  0.00000000000E+00  0.00000000000E+00  0.45593999997E+02  0.45594000000E+02  0.51100000000E-03 0.  1.
         11   -1    0    0    0    0 -0.00000000000E+00 -0.00000000000E+00 -0.45593999997E+02  0.45594000000E+02  0.51100000000E-03 0. -1.
    9900012    2    1    2    0    0  0.16198185363E+02 -0.25240554618E+02 -0.27453574505E+02  0.50528861303E+02  0.30000004416E+02 0.  0.
        -12    1    1    2    0    0 -0.16198185363E+02  0.25240554618E+02  0.27453574505E+02  0.40659138697E+02  0.00000000000E+00 0.  1.
         11    1    3    3    0    0  0.13474031263E+02 -0.12300013607E+02 -0.46490862848E+01  0.18826944966E+02  0.51100000000E-03 0. -1.
        -11    1    3    3    0    0  0.18606891760E+00  0.40645395870E+01 -0.81555714557E+01  0.91141894717E+01  0.51100000000E-03 0.  1.
         12    1    3    3    0    0  0.25380851824E+01 -0.17005080598E+02 -0.14648916765E+02  0.22587726865E+02  0.00000000000E+00 0. -1.
</event>
<event>
 7    1  0.9930326E-013  0.5052887E+02  0.7816164E-02  0.1300439E+00
        -11   -1    0    0    0    0  0.00000000000E+00  0.00000000000E+00  0.45593999997E+02  0.45594000000E+02  0.51100000000E-03 0. -1.
         11   -1    0    0    0    0 -0.00000000000E+00 -0.00000000000E+00 -0.45593999997E+02  0.45594000000E+02  0.51100000000E-03 0.  1.
    9900012    2    1    2    0    0  0.30849401508E+02 -0.26088054137E+02  0.45708547186E+01  0.50528869969E+02  0.30000030758E+02 0.  0.
        -12    1    1    2    0    0 -0.30849401508E+02  0.26088054137E+02 -0.45708547186E+01  0.40659130031E+02  0.00000000000E+00 0.  1.
         11    1    3    3    0    0  0.10164987818E+02  0.90589752336E+00 -0.30110376343E+00  0.10209715540E+02  0.51100000000E-03 0. -1.
        -11    1    3    3    0    0  0.23541978277E+02 -0.28320648525E+02  0.39644342061E+01  0.37040526628E+02  0.51100000000E-03 0.  1.
        -12    1    3    3    0    0 -0.28575645878E+01  0.13266968648E+01  0.90752427588E+00  0.32786278008E+01  0.00000000000E+00 0.  1.
</event>
<event>
 7    1  0.9930326E-013  0.5052888E+02  0.7816164E-02  0.1300439E+00
        -11   -1    0    0    0    0  0.00000000000E+00  0.00000000000E+00  0.45593999997E+02  0.45594000000E+02  0.51100000000E-03 0.  1.
         11   -1    0    0    0    0 -0.00000000000E+00 -0.00000000000E+00 -0.45593999997E+02  0.45594000000E+02  0.51100000000E-03 0. -1.
    9900012    2    1    2    0    0 -0.14317929659E+02  0.30596327710E+02 -0.22627975725E+02  0.50528884608E+02  0.30000075254E+02 0.  0.
        -12    1    1    2    0    0  0.14317929659E+02 -0.30596327710E+02  0.22627975725E+02  0.40659115392E+02  0.00000000000E+00 0.  1.
         11    1    3    3    0    0  0.29371293434E+01  0.21913729412E+02 -0.94038638116E+01  0.24026462918E+02  0.51100000000E-03 0. -1.
        -11    1    3    3    0    0 -0.10217740659E+02  0.10198170609E+02 -0.43535075247E+01  0.15078393017E+02  0.51100000000E-03 0.  1.
         12    1    3    3    0    0 -0.70373183434E+01 -0.15155723106E+01 -0.88706043889E+01  0.11424028673E+02  0.00000000000E+00 0. -1.
</event>
<event>
 7    1  0.9930326E-013  0.5052886E+02  0.7816164E-02  0.1300439E+00
        -11   -1    0    0    0    0  0.00000000000E+00  0.00000000000E+00  0.45593999997E+02  0.45594000000E+02  0.51100000000E-03 0.  1.
         11   -1    0    0    0    0 -0.00000000000E+00 -0.00000000000E+00 -0.45593999997E+02  0.45594000000E+02  0.51100000000E-03 0. -1.
    9900012    2    1    2    0    0  0.31148454214E+02 -0.22813914580E+02 -0.12746164629E+02  0.50528860669E+02  0.30000002488E+02 0.  0.
        -12    1    1    2    0    0 -0.31148454214E+02  0.22813914580E+02  0.12746164629E+02  0.40659139331E+02  0.00000000000E+00 0.  1.
         11    1    3    3    0    0  0.20990227975E+02 -0.42234254023E+01 -0.17850697287E+02  0.27876053997E+02  0.51100000000E-03 0. -1.
        -11    1    3    3    0    0  0.43214459380E+01 -0.65134555458E+01  0.49235874984E+01  0.92380578185E+01  0.51100000000E-03 0.  1.
         12    1    3    3    0    0  0.58367803015E+01 -0.12077033632E+02  0.18094515918E+00  0.13414748853E+02  0.00000000000E+00 0. -1.
</event>
<event>
 7    1  0.9930326E-013  0.5052886E+02  0.7816164E-02  0.1300439E+00
        -11   -1    0    0    0    0  0.00000000000E+00  0.00000000000E+00  0.45593999997E+02  0.45594000000E+02  0.51100000000E-03 0.  1.
         11   -1    0    0    0    0 -0.00000000000E+00 -0.00000000000E+00 -0.45593999997E+02  0.45594000000E+02  0.51100000000E-03 0. -1.
    9900012    2    1    2    0    0 -0.21339146261E+02 -0.25661788616E+01 -0.34514075907E+02  0.50528857451E+02  0.29999992709E+02 0.  0.
        -12    1    1    2    0    0  0.21339146261E+02  0.25661788616E+01  0.34514075907E+02  0.40659142549E+02  0.00000000000E+00 0.  1.
         11    1    3    3    0    0 -0.21764957478E+02 -0.30141418776E+01 -0.33738117205E+02  0.40262376707E+02  0.51100000000E-03 0. -1.
        -11    1    3    3    0    0  0.17980837637E+01 -0.27883736683E+00 -0.52363631749E+01  0.55434966455E+01  0.51100000000E-03 0.  1.
         12    1    3    3    0    0 -0.13722725469E+01  0.72680038285E+00  0.44604044731E+01  0.47229840994E+01  0.00000000000E+00 0. -1.
</event>
<event>
 7    1  0.9930326E-013  0.5052886E+02  0.7816164E-02  0.1300439E+00
        -11   -1    0    0    0    0  0.00000000000E+00  0.00000000000E+00  0.45593999997E+02  0.45594000000E+02  0.51100000000E-03 0.  1.
         11   -1    0    0    0    0 -0.00000000000E+00 -0.00000000000E+00 -0.45593999997E+02  0.45594000000E+02  0.51100000000E-03 0. -1.
    9900012    2    1    2    0    0  0.86958703575E+01  0.27210982951E+01 -0.39625032516E+02  0.50528859095E+02  0.29999997706E+02 0.  0.
        -12    1    1    2    0    0 -0.86958703575E+01 -0.27210982951E+01  0.39625032516E+02  0.40659140905E+02  0.00000000000E+00 0.  1.
         11    1    3    3    0    0  0.24295045235E+01  0.11272325684E+02 -0.37351921069E+01  0.12121034563E+02  0.51100000000E-03 0. -1.
        -11    1    3    3    0    0 -0.65041624371E+00  0.13633691679E+01 -0.54463815986E+01  0.56519810294E+01  0.51100000000E-03 0.  1.
         12    1    3    3    0    0  0.69167820777E+01 -0.99145965566E+01 -0.30443458811E+02  0.32755843502E+02  0.00000000000E+00 0. -1.
</event>
<event>
 7    1  0.9930326E-013  0.5052885E+02  0.7816164E-02  0.1300439E+00
        -11   -1    0    0    0    0  0.00000000000E+00  0.00000000000E+00  0.45593999997E+02  0.45594000000E+02  0.51100000000E-03 0.  1.
         11   -1    0    0    0    0 -0.00000000000E+00 -0.00000000000E+00 -0.45593999997E+02  0.45594000000E+02  0.51100000000E-03 0. -1.
    9900012    2    1    2    0    0  0.29663900894E+02  0.21010487956E+02 -0.18214799524E+02  0.50528849221E+02  0.29999967692E+02 0.  0.
        -12    1    1    2    0    0 -0.29663900894E+02 -0.21010487956E+02  0.18214799524E+02  0.40659150779E+02  0.00000000000E+00 0.  1.
         11    1    3    3    0    0  0.88823921480E+01  0.55427180671E+01 -0.45921485867E+01  0.11432691842E+02  0.51100000000E-03 0. -1.
        -11    1    3    3    0    0 -0.85132747357E+00  0.33200785453E+01  0.63697104698E+01  0.72333181697E+01  0.51100000000E-03 0.  1.
        -12    1    3    3    0    0  0.21632836219E+02  0.12147691343E+02 -0.19992361407E+02  0.31862839210E+02  0.00000000000E+00 0.  1.
</event>
<event>
 7    1  0.9930326E-013  0.5052886E+02  0.7816164E-02  0.1300439E+00
        -11   -1    0    0    0    0  0.00000000000E+00  0.00000000000E+00  0.45593999997E+02  0.45594000000E+02  0.51100000000E-03 0. -1.
         11   -1    0    0    0    0 -0.00000000000E+00 -0.00000000000E+00 -0.45593999997E+02  0.45594000000E+02  0.51100000000E-03 0.  1.
    9900012    2    1    2    0    0 -0.15248261676E+02  0.37632451006E+02 -0.21106644081E+01  0.50528858874E+02  0.29999997034E+02 0.  0.
        -12    1    1    2    0    0  0.15248261676E+02 -0.37632451006E+02  0.21106644081E+01  0.40659141126E+02  0.00000000000E+00 0.  1.
         11    1    3    3    0    0 -0.40613499899E+01  0.32230340197E+02  0.44348180315E+00  0.32488245094E+02  0.51100000000E-03 0. -1.
        -11    1    3    3    0    0 -0.38229126111E+01 -0.28289363266E+01 -0.48144407053E+01  0.67673023531E+01  0.51100000000E-03 0.  1.
        -12    1    3    3    0    0 -0.73639990752E+01  0.82310471356E+01  0.22602944941E+01  0.11273311427E+02  0.00000000000E+00 0.  1.
</event>
<event>
 7    1  0.9930326E-013  0.5052886E+02  0.7816164E-02  0.1300439E+00
        -11   -1    0    0    0    0  0.00000000000E+00  0.00000000000E+00  0.45593999997E+02  0.45594000000E+02  0.51100000000E-03 0.  1.
         11   -1    0    0    0    0 -0.00000000000E+00 -0.00000000000E+00 -0.45593999997E+02  0.45594000000E+02  0.51100000000E-03 0. -1.
    9900012    2    1    2    0    0  0.10253220146E+02  0.34421588617E+02 -0.19057578560E+02  0.50528860968E+02  0.30000003397E+02 0.  0.
        -12    1    1    2    0    0 -0.10253220146E+02 -0.34421588617E+02  0.19057578560E+02  0.40659139032E+02  0.00000000000E+00 0.  1.
         11    1    3    3    0    0 -0.77173394351E+01  0.31073346902E+01 -0.60167711491E+01  0.10267151122E+02  0.51100000000E-03 0. -1.
        -11    1    3    3    0    0  0.19342252097E+02  0.25657175969E+02 -0.97650080778E+01  0.33582268802E+02  0.51100000000E-03 0.  1.
         12    1    3    3    0    0 -0.13716925164E+01  0.56570779581E+01 -0.32757993331E+01  0.66794410435E+01  0.00000000000E+00 0. -1.
</event>
<event>
 7    1  0.9930326E-013  0.5052884E+02  0.7816164E-02  0.1300439E+00
        -11   -1    0    0    0    0  0.00000000000E+00  0.00000000000E+00  0.45593999997E+02  0.45594000000E+02  0.51100000000E-03 0. -1.
         11   -1    0    0    0    0 -0.00000000000E+00 -0.00000000000E+00 -0.45593999997E+02  0.45594000000E+02  0.51100000000E-03 0.  1.
    9900012    2    1    2    0    0 -0.12576882902E+02  0.60739591027E+01  0.38185027199E+02  0.50528840333E+02  0.29999940675E+02 0.  0.
        -12    1    1    2    0    0  0.12576882902E+02 -0.60739591027E+01 -0.38185027199E+02  0.40659159667E+02  0.00000000000E+00 0.  1.
         11    1    3    3    0    0 -0.99739399253E+01  0.64100850513E+01  0.34739065295E+02  0.36706556986E+02  0.51100000000E-03 0. -1.
        -11    1    3    3    0    0  0.52943699741E+01 -0.50845298323E+00  0.32419967241E+00  0.53286005243E+01  0.51100000000E-03 0.  1.
         12    1    3    3    0    0 -0.78973129507E+01  0.17232703467E+00  0.31217622315E+01  0.84936828218E+01  0.00000000000E+00 0. -1.
</event>
<event>
 7    1  0.9930326E-013  0.5052886E+02  0.7816164E-02  0.1300439E+00
        -11   -1    0    0    0    0  0.00000000000E+00  0.00000000000E+00  0.45593999997E+02  0.45594000000E+02  0.51100000000E-03 0.  1.
         11   -1    0    0    0    0 -0.00000000000E+00 -0.00000000000E+00 -0.45593999997E+02  0.45594000000E+02  0.51100000000E-03 0. -1.
    9900012    2    1    2    0    0  0.30301142437E+02 -0.11442135855E+02 -0.24578120047E+02  0.50528859687E+02  0.29999999505E+02 0.  0.
        -12    1    1    2    0    0 -0.30301142437E+02  0.11442135855E+02  0.24578120047E+02  0.40659140313E+02  0.00000000000E+00 0.  1.
         11    1    3    3    0    0  0.22119510008E+02 -0.10060782407E+02 -0.18388499232E+02  0.30473414149E+02  0.51100000000E-03 0. -1.
        -11    1    3    3    0    0 -0.34321107608E+01  0.57196553025E+00 -0.74389912079E+01  0.82124977500E+01  0.51100000000E-03 0.  1.
        -12    1    3    3    0    0  0.11613743191E+02 -0.19533189790E+01  0.12493703931E+01  0.11842947788E+02  0.00000000000E+00 0.  1.
</event>
<event>
 7    1  0.9930326E-013  0.5052885E+02  0.7816164E-02  0.1300439E+00
        -11   -1    0    0    0    0  0.00000000000E+00  0.00000000000E+00  0.45593999997E+02  0.45594000000E+02  0.51100000000E-03 0.  1.
         11   -1    0    0    0    0 -0.00000000000E+00 -0.00000000000E+00 -0.45593999997E+02  0.45594000000E+02  0.51100000000E-03 0. -1.
    9900012    2    1    2    0    0 -0.25750291160E+02  0.19970832200E+02 -0.24315725920E+02  0.50528853912E+02  0.29999981950E+02 0.  0.
        -12    1    1    2    0    0  0.25750291160E+02 -0.19970832200E+02  0.24315725920E+02  0.40659146088E+02  0.00000000000E+00 0.  1.
         11    1    3    3    0    0 -0.55238645496E+01 -0.68805558384E+01 -0.82223638480E+01  0.12060779233E+02  0.51100000000E-03 0. -1.
        -11    1    3    3    0    0 -0.12392562622E+02  0.98922042909E+01 -0.45031531026E+01  0.16483619208E+02  0.51100000000E-03 0.  1.
         12    1    3    3    0    0 -0.78338639892E+01  0.16959183747E+02 -0.11590208970E+02  0.21984455471E+02  0.00000000000E+00 0. -1.
</event>
<event>
 7    1  0.9930326E-013  0.5052884E+02  0.7816164E-02  0.1300439E+00
        -11   -1    0    0    0    0  0.00000000000E+00  0.00000000000E+00  0.45593999997E+02  0.45594000000E+02  0.51100000000E-03 0.  1.
         11   -1    0    0    0    0 -0.00000000000E+00 -0.00000000000E+00 -0.45593999997E+02  0.45594000000E+02  0.51100000000E-03 0. -1.
    9900012    2    1    2    0    0 -0.95071813638E+01  0.11705386373E+02 -0.37759299023E+02  0.50528840757E+02  0.29999941964E+02 0.  0.
        -12    1    1    2    0    0  0.95071813638E+01 -0.11705386373E+02  0.37759299023E+02  0.40659159243E+02  0.00000000000E+00 0.  1.
         11    1    3    3    0    0 -0.82971180120E+01  0.18915536021E+02 -0.35682067719E+02  0.41229232678E+02  0.51100000000E-03 0. -1.
        -11    1    3    3    0    0 -0.27428834854E+00 -0.76002977078E+01 -0.27451536799E+01  0.80855196699E+01  0.51100000000E-03 0.  1.
         12    1    3    3    0    0 -0.93577500320E+00  0.39014805984E+00  0.66792237535E+00  0.12140884089E+01  0.00000000000E+00 0. -1.
</event>
<event>
 7    1  0.9930326E-013  0.5052886E+02  0.7816164E-02  0.1300439E+00
        -11   -1    0    0    0    0  0.00000000000E+00  0.00000000000E+00  0.45593999997E+02  0.45594000000E+02  0.51100000000E-03 0.  1.
         11   -1    0    0    0    0 -0.00000000000E+00 -0.00000000000E+00 -0.45593999997E+02  0.45594000000E+02  0.51100000000E-03 0. -1.
    9900012    2    1    2    0    0  0.20734322320E+02  0.16911350213E+01 -0.34934127455E+02  0.50528864240E+02  0.30000013343E+02 0.  0.
        -12    1    1    2    0    0 -0.20734322320E+02 -0.16911350213E+01  0.34934127455E+02  0.40659135760E+02  0.00000000000E+00 0.  1.
         11    1    3    3    0    0 -0.16003972670E+01  0.29266612806E+01 -0.82342620071E+01  0.88842382186E+01  0.51100000000E-03 0. -1.
        -11    1    3    3    0    0  0.20106682820E+02 -0.10288083952E+02 -0.17815778886E+02  0.28766740222E+02  0.51100000000E-03 0.  1.
        -12    1    3    3    0    0  0.22280367664E+01  0.90525576926E+01 -0.88840865622E+01  0.12877885799E+02  0.00000000000E+00 0.  1.
</event>
<event>
 7    1  0.9930326E-013  0.5052886E+02  0.7816164E-02  0.1300439E+00
        -11   -1    0    0    0    0  0.00000000000E+00  0.00000000000E+00  0.45593999997E+02  0.45594000000E+02  0.51100000000E-03 0. -1.
         11   -1    0    0    0    0 -0.00000000000E+00 -0.00000000000E+00 -0.45593999997E+02  0.45594000000E+02  0.51100000000E-03 0.  1.
    9900012    2    1    2    0    0 -0.10468376813E+02  0.23131156705E+02  0.31757336859E+02  0.50528858740E+02  0.29999996625E+02 0.  0.
        -12    1    1    2    0    0  0.10468376813E+02 -0.23131156705E+02 -0.31757336859E+02  0.40659141260E+02  0.00000000000E+00 0.  1.
         11    1    3    3    0    0 -0.18489514656E+02  0.14799754788E+02  0.14426001522E+02  0.27730928837E+02  0.51100000000E-03 0. -1.
        -11    1    3    3    0    0  0.30671518615E+01  0.14593751344E+01 -0.12032541293E+00  0.33987754839E+01  0.51100000000E-03 0.  1.
         12    1    3    3    0    0  0.49539859811E+01  0.68720267829E+01  0.17451660751E+02  0.19399154419E+02  0.00000000000E+00 0. -1.
</event>
<event>
 7    1  0.1155160E-012  0.5052885E+02  0.7816164E-02  0.1300439E+00
        -11   -1    0    0    0    0  0.00000000000E+00  0.00000000000E+00  0.45593999997E+02  0.45594000000E+02  0.51100000000E-03 0.  1.
         11   -1    0    0    0    0 -0.00000000000E+00 -0.00000000000E+00 -0.45593999997E+02  0.45594000000E+02  0.51100000000E-03 0. -1.
    9900012    2    1    2    0    0 -0.18612085427E+02  0.29544818879E+02 -0.20829308978E+02  0.50528853931E+02  0.29999982008E+02 0.  0.
        -12    1    1    2    0    0  0.18612085427E+02 -0.29544818879E+02  0.20829308978E+02  0.40659146069E+02  0.00000000000E+00 0.  1.
         11    1    3    3    0    0 -0.16019620662E+02  0.25008991865E+02 -0.19589409999E+02  0.35578405032E+02  0.51100000000E-03 0. -1.
        -11    1    3    3    0    0  0.42767791290E+01 -0.66487526613E+00 -0.40099299029E+01  0.59002065155E+01  0.51100000000E-03 0.  1.
         12    1    3    3    0    0 -0.68692438935E+01  0.52007022810E+01  0.27700309232E+01  0.90502423835E+01  0.00000000000E+00 0. -1.
</event>
<event>
 7    1  0.9930326E-013  0.5052887E+02  0.7816164E-02  0.1300439E+00
        -11   -1    0    0    0    0  0.00000000000E+00  0.00000000000E+00  0.45593999997E+02  0.45594000000E+02  0.51100000000E-03 0.  1.
         11   -1    0    0    0    0 -0.00000000000E+00 -0.00000000000E+00 -0.45593999997E+02  0.45594000000E+02  0.51100000000E-03 0. -1.
    9900012    2    1    2    0    0  0.33481402506E+02  0.10811229634E+02 -0.20378376524E+02  0.50528865360E+02  0.30000016748E+02 0.  0.
        -12    1    1    2    0    0 -0.33481402506E+02 -0.10811229634E+02  0.20378376524E+02  0.40659134640E+02  0.00000000000E+00 0.  1.
         11    1    3    3    0    0  0.61773501047E+01  0.14623550706E+01 -0.17586006926E+02  0.18696678222E+02  0.51100000000E-03 0. -1.
        -11    1    3    3    0    0  0.17006879305E+02  0.14466434113E-01  0.20152225334E+01  0.17125865674E+02  0.51100000000E-03 0.  1.
        -12    1    3    3    0    0  0.10297173096E+02  0.93344081290E+01 -0.48075921310E+01  0.14706321463E+02  0.00000000000E+00 0.  1.
</event>
<event>
 7    1  0.9930326E-013  0.5052887E+02  0.7816164E-02  0.1300439E+00
        -11   -1    0    0    0    0  0.00000000000E+00  0.00000000000E+00  0.45593999997E+02  0.45594000000E+02  0.51100000000E-03 0.  1.
         11   -1    0    0    0    0 -0.00000000000E+00 -0.00000000000E+00 -0.45593999997E+02  0.45594000000E+02  0.51100000000E-03 0. -1.
    9900012    2    1    2    0    0  0.37891728156E+01 -0.31676704262E+02 -0.25207016999E+02  0.50528866591E+02  0.30000020491E+02 0.  0.
        -12    1    1    2    0    0 -0.37891728156E+01  0.31676704262E+02  0.25207016999E+02  0.40659133409E+02  0.00000000000E+00 0.  1.
         11    1    3    3    0    0  0.89365530071E+01 -0.82323660796E+01  0.13035655517E+01  0.12220192892E+02  0.51100000000E-03 0. -1.
        -11    1    3    3    0    0 -0.79296745412E+01 -0.83583166437E+01 -0.69688576781E+01  0.13464998071E+02  0.51100000000E-03 0.  1.
         12    1    3    3    0    0  0.27822943497E+01 -0.15086021539E+02 -0.19541724873E+02  0.24843675628E+02  0.00000000000E+00 0. -1.
</event>
<event>
 7    1  0.9930326E-013  0.5052886E+02  0.7816164E-02  0.1300439E+00
        -11   -1    0    0    0    0  0.00000000000E+00  0.00000000000E+00  0.45593999997E+02  0.45594000000E+02  0.51100000000E-03 0.  1.
         11   -1    0    0    0    0 -0.00000000000E+00 -0.00000000000E+00 -0.45593999997E+02  0.45594000000E+02  0.51100000000E-03 0. -1.
    9900012    2    1    2    0    0 -0.80108340650E+01 -0.26073166555E+02 -0.30152642293E+02  0.50528864325E+02  0.30000013601E+02 0.  0.
        -12    1    1    2    0    0  0.80108340650E+01  0.26073166555E+02  0.30152642293E+02  0.40659135675E+02  0.00000000000E+00 0.  1.
         11    1    3    3    0    0  0.25708932412E+01  0.31096521751E+01  0.11206929914E+01  0.41875269253E+01  0.51100000000E-03 0.  1.
        -11    1    3    3    0    0 -0.24833116826E+00 -0.20489267193E+02 -0.16343435216E+02  0.26210295943E+02  0.51100000000E-03 0. -1.
        -12    1    3    3    0    0 -0.10333396138E+02 -0.86935515368E+01 -0.14929900068E+02  0.20131041456E+02  0.00000000000E+00 0.  1.
</event>
<event>
 7    1  0.9930326E-013  0.5052886E+02  0.7816164E-02  0.1300439E+00
        -11   -1    0    0    0    0  0.00000000000E+00  0.00000000000E+00  0.45593999997E+02  0.45594000000E+02  0.51100000000E-03 0.  1.
         11   -1    0    0    0    0 -0.00000000000E+00 -0.00000000000E+00 -0.45593999997E+02  0.45594000000E+02  0.51100000000E-03 0. -1.
    9900012    2    1    2    0    0  0.13103093795E+02 -0.36278441310E+02  0.12858827401E+02  0.50528858186E+02  0.29999994942E+02 0.  0.
        -12    1    1    2    0    0 -0.13103093795E+02  0.36278441310E+02 -0.12858827401E+02  0.40659141814E+02  0.00000000000E+00 0.  1.
         11    1    3    3    0    0  0.22978152013E+01 -0.27985720782E+02  0.17914673254E+02  0.33307897569E+02  0.51100000000E-03 0. -1.
        -11    1    3    3    0    0  0.10528515318E+02 -0.10119659129E+02 -0.46840029663E+01  0.15336134446E+02  0.51100000000E-03 0.  1.
         12    1    3    3    0    0  0.27676327593E+00  0.18269386009E+01 -0.37184288726E+00  0.18848261711E+01  0.00000000000E+00 0. -1.
</event>
<event>
 7    1  0.9930326E-013  0.5052886E+02  0.7816164E-02  0.1300439E+00
        -11   -1    0    0    0    0  0.00000000000E+00  0.00000000000E+00  0.45593999997E+02  0.45594000000E+02  0.51100000000E-03 0.  1.
         11   -1    0    0    0    0 -0.00000000000E+00 -0.00000000000E+00 -0.45593999997E+02  0.45594000000E+02  0.51100000000E-03 0. -1.
    9900012    2    1    2    0    0 -0.13442680803E+02  0.36869290547E+02 -0.10635562884E+02  0.50528862644E+02  0.30000008494E+02 0.  0.
        -12    1    1    2    0    0  0.13442680803E+02 -0.36869290547E+02  0.10635562884E+02  0.40659137356E+02  0.00000000000E+00 0.  1.
         11    1    3    3    0    0 -0.90688549403E+01  0.33353445739E+02  0.32472603409E+01  0.34716583538E+02  0.51100000000E-03 0. -1.
        -11    1    3    3    0    0 -0.31267837100E+01 -0.61811637627E+00 -0.69287118384E+01  0.76266566872E+01  0.51100000000E-03 0.  1.
         12    1    3    3    0    0 -0.12470421530E+01  0.41339611849E+01 -0.69541113868E+01  0.81856224192E+01  0.00000000000E+00 0. -1.
</event>
<event>
 7    1  0.9930326E-013  0.5052887E+02  0.7816164E-02  0.1300439E+00
        -11   -1    0    0    0    0  0.00000000000E+00  0.00000000000E+00  0.45593999997E+02  0.45594000000E+02  0.51100000000E-03 0.  1.
         11   -1    0    0    0    0 -0.00000000000E+00 -0.00000000000E+00 -0.45593999997E+02  0.45594000000E+02  0.51100000000E-03 0. -1.
    9900012    2    1    2    0    0  0.58114699027E+01 -0.34485154866E+02 -0.20740432396E+02  0.50528872802E+02  0.30000039368E+02 0.  0.
        -12    1    1    2    0    0 -0.58114699027E+01  0.34485154866E+02  0.20740432396E+02  0.40659127198E+02  0.00000000000E+00 0.  1.
         11    1    3    3    0    0 -0.81397312001E+01 -0.41044152355E+01 -0.12297405539E+02  0.15307763772E+02  0.51100000000E-03 0. -1.
        -11    1    3    3    0    0  0.65221766627E+01 -0.15544549924E+02 -0.79083203322E+01  0.18620240372E+02  0.51100000000E-03 0.  1.
         12    1    3    3    0    0  0.74290244402E+01 -0.14836189706E+02 -0.53470652444E+00  0.16600868658E+02  0.00000000000E+00 0. -1.
</event>
<event>
 7    1  0.9930326E-013  0.5052885E+02  0.7816164E-02  0.1300439E+00
        -11   -1    0    0    0    0  0.00000000000E+00  0.00000000000E+00  0.45593999997E+02  0.45594000000E+02  0.51100000000E-03 0.  1.
         11   -1    0    0    0    0 -0.00000000000E+00 -0.00000000000E+00 -0.45593999997E+02  0.45594000000E+02  0.51100000000E-03 0. -1.
    9900012    2    1    2    0    0  0.65560276216E+01 -0.32735507239E+02 -0.23207138786E+02  0.50528853145E+02  0.29999979618E+02 0.  0.
        -12    1    1    2    0    0 -0.65560276216E+01  0.32735507239E+02  0.23207138786E+02  0.40659146855E+02  0.00000000000E+00 0.  1.
         11    1    3    3    0    0 -0.55730154756E+01 -0.19535326308E+02 -0.12866275178E+02  0.24046382528E+02  0.51100000000E-03 0. -1.
        -11    1    3    3    0    0  0.14731057456E+02 -0.46727915108E+01 -0.61892429449E+01  0.16647695419E+02  0.51100000000E-03 0.  1.
        -12    1    3    3    0    0 -0.26020143592E+01 -0.85273894202E+01 -0.41516206629E+01  0.98347751971E+01  0.00000000000E+00 0.  1.
</event>
<event>
 7    1  0.9930326E-013  0.5052885E+02  0.7816164E-02  0.1300439E+00
        -11   -1    0    0    0    0  0.00000000000E+00  0.00000000000E+00  0.45593999997E+02  0.45594000000E+02  0.51100000000E-03 0. -1.
         11   -1    0    0    0    0 -0.00000000000E+00 -0.00000000000E+00 -0.45593999997E+02  0.45594000000E+02  0.51100000000E-03 0.  1.
    9900012    2    1    2    0    0  0.40334494412E+02  0.29904289895E+01 -0.41656017541E+01  0.50528851669E+02  0.29999975134E+02 0.  0.
        -12    1    1    2    0    0 -0.40334494412E+02 -0.29904289895E+01  0.41656017541E+01  0.40659148331E+02  0.00000000000E+00 0.  1.
         11    1    3    3    0    0  0.91371498395E+01  0.15507337126E+00  0.70607036934E+01  0.11548380486E+02  0.51100000000E-03 0. -1.
        -11    1    3    3    0    0  0.28043824744E+02 -0.53476109987E+01 -0.89727141667E+01  0.29925952774E+02  0.51100000000E-03 0.  1.
        -12    1    3    3    0    0  0.31535198288E+01  0.81829666170E+01 -0.22535912808E+01  0.90545184094E+01  0.00000000000E+00 0.  1.
</event>
<event>
 7    1  0.9930326E-013  0.5052886E+02  0.7816164E-02  0.1300439E+00
        -11   -1    0    0    0    0  0.00000000000E+00  0.00000000000E+00  0.45593999997E+02  0.45594000000E+02  0.51100000000E-03 0. -1.
         11   -1    0    0    0    0 -0.00000000000E+00 -0.00000000000E+00 -0.45593999997E+02  0.45594000000E+02  0.51100000000E-03 0.  1.
    9900012    2    1    2    0    0 -0.18039487449E+02  0.71975039229E+01  0.35720276759E+02  0.50528863980E+02  0.30000012555E+02 0.  0.
        -12    1    1    2    0    0  0.18039487449E+02 -0.71975039229E+01 -0.35720276759E+02  0.40659136020E+02  0.00000000000E+00 0.  1.
         11    1    3    3    0    0  0.35921434298E+01 -0.21403268013E+01  0.21965642983E+02  0.22360097611E+02  0.51100000000E-03 0. -1.
        -11    1    3    3    0    0 -0.16237110573E+02  0.60477742043E+01  0.13283102850E+02  0.21832548045E+02  0.51100000000E-03 0.  1.
         12    1    3    3    0    0 -0.53945203062E+01  0.32900565199E+01  0.47153092546E+00  0.63362183242E+01  0.00000000000E+00 0. -1.
</event>
<event>
 7    1  0.9930326E-013  0.5052899E+02  0.7816164E-02  0.1300438E+00
        -11   -1    0    0    0    0  0.00000000000E+00  0.00000000000E+00  0.45593999997E+02  0.45594000000E+02  0.51100000000E-03 0.  1.
         11   -1    0    0    0    0 -0.00000000000E+00 -0.00000000000E+00 -0.45593999997E+02  0.45594000000E+02  0.51100000000E-03 0. -1.
    9900012    2    1    2    0    0 -0.19990253568E+02  0.17383916347E+02 -0.30843866202E+02  0.50528992787E+02  0.30000404071E+02 0.  0.
        -12    1    1    2    0    0  0.19990253568E+02 -0.17383916347E+02  0.30843866202E+02  0.40659007213E+02  0.00000000000E+00 0.  1.
         11    1    3    3    0    0  0.25315395874E+01  0.77905088467E+01 -0.46920161775E+01  0.94401131796E+01  0.51100000000E-03 0. -1.
        -11    1    3    3    0    0 -0.94691876275E+01 -0.60662104791E+01 -0.81004888019E+01  0.13859377439E+02  0.51100000000E-03 0.  1.
        -12    1    3    3    0    0 -0.13052605528E+02  0.15659617979E+02 -0.18051361223E+02  0.27229502168E+02  0.00000000000E+00 0.  1.
</event>
<event>
 7    1  0.9930326E-013  0.5052886E+02  0.7816164E-02  0.1300439E+00
        -11   -1    0    0    0    0  0.00000000000E+00  0.00000000000E+00  0.45593999997E+02  0.45594000000E+02  0.51100000000E-03 0.  1.
         11   -1    0    0    0    0 -0.00000000000E+00 -0.00000000000E+00 -0.45593999997E+02  0.45594000000E+02  0.51100000000E-03 0. -1.
    9900012    2    1    2    0    0  0.21615158562E+01 -0.23819441746E+02 -0.32880506116E+02  0.50528860334E+02  0.30000001472E+02 0.  0.
        -12    1    1    2    0    0 -0.21615158562E+01  0.23819441746E+02  0.32880506116E+02  0.40659139666E+02  0.00000000000E+00 0.  1.
         11    1    3    3    0    0  0.59972043692E+01 -0.21219232700E-01 -0.19562157610E+02  0.20460814283E+02  0.51100000000E-03 0. -1.
        -11    1    3    3    0    0 -0.50609110926E+00 -0.15283007462E+02 -0.14218987952E+02  0.20880758222E+02  0.51100000000E-03 0.  1.
         12    1    3    3    0    0 -0.33295974038E+01 -0.85152150512E+01  0.90063944546E+00  0.91872878289E+01  0.00000000000E+00 0. -1.
</event>
<event>
 7    1  0.9930326E-013  0.5052886E+02  0.7816164E-02  0.1300439E+00
        -11   -1    0    0    0    0  0.00000000000E+00  0.00000000000E+00  0.45593999997E+02  0.45594000000E+02  0.51100000000E-03 0. -1.
         11   -1    0    0    0    0 -0.00000000000E+00 -0.00000000000E+00 -0.45593999997E+02  0.45594000000E+02  0.51100000000E-03 0.  1.
    9900012    2    1    2    0    0  0.30436751408E+02  0.84315189642E+01  0.25606235487E+02  0.50528860263E+02  0.30000001257E+02 0.  0.
        -12    1    1    2    0    0 -0.30436751408E+02 -0.84315189642E+01 -0.25606235487E+02  0.40659139737E+02  0.00000000000E+00 0.  1.
         11    1    3    3    0    0  0.91504372123E+01  0.15508450472E+02  0.17533426367E+02  0.25132918208E+02  0.51100000000E-03 0. -1.
        -11    1    3    3    0    0  0.16599129852E+02 -0.21047106590E+01  0.80380999917E+01  0.18562649879E+02  0.51100000000E-03 0.  1.
        -12    1    3    3    0    0  0.46871843438E+01 -0.49722208491E+01  0.34709128462E-01  0.68332921764E+01  0.00000000000E+00 0.  1.
</event>
<event>
 7    1  0.9930326E-013  0.5052885E+02  0.7816164E-02  0.1300439E+00
        -11   -1    0    0    0    0  0.00000000000E+00  0.00000000000E+00  0.45593999997E+02  0.45594000000E+02  0.51100000000E-03 0.  1.
         11   -1    0    0    0    0 -0.00000000000E+00 -0.00000000000E+00 -0.45593999997E+02  0.45594000000E+02  0.51100000000E-03 0. -1.
    9900012    2    1    2    0    0  0.35433283041E+02 -0.53436485534E+01 -0.19211819202E+02  0.50528854363E+02  0.29999983321E+02 0.  0.
        -12    1    1    2    0    0 -0.35433283041E+02  0.53436485534E+01  0.19211819202E+02  0.40659145637E+02  0.00000000000E+00 0.  1.
         11    1    3    3    0    0 -0.42026873792E+01 -0.36817680406E+01 -0.18566914710E+01  0.58877245683E+01  0.51100000000E-03 0. -1.
        -11    1    3    3    0    0  0.33133867104E+02 -0.23016021890E+01 -0.97505821609E+01  0.34615377719E+02  0.51100000000E-03 0.  1.
         12    1    3    3    0    0  0.65021033165E+01  0.63972167615E+00 -0.76045455697E+01  0.10025752076E+02  0.00000000000E+00 0. -1.
</event>
<event>
 7    1  0.9930326E-013  0.5052885E+02  0.7816164E-02  0.1300439E+00
        -11   -1    0    0    0    0  0.00000000000E+00  0.00000000000E+00  0.45593999997E+02  0.45594000000E+02  0.51100000000E-03 0.  1.
         11   -1    0    0    0    0 -0.00000000000E+00 -0.00000000000E+00 -0.45593999997E+02  0.45594000000E+02  0.51100000000E-03 0. -1.
    9900012    2    1    2    0    0  0.34630636901E+02  0.20900608373E+02 -0.41291861600E+01  0.50528848251E+02  0.29999964745E+02 0.  0.
        -12    1    1    2    0    0 -0.34630636901E+02 -0.20900608373E+02  0.41291861600E+01  0.40659151749E+02  0.00000000000E+00 0.  1.
         11    1    3    3    0    0 -0.18936953067E+01  0.11586307133E+02 -0.37846775739E+01  0.12335006262E+02  0.51100000000E-03 0. -1.
        -11    1    3    3    0    0  0.29253637609E+02  0.58589322978E+01 -0.22568058004E+01  0.29919819079E+02  0.51100000000E-03 0.  1.
         12    1    3    3    0    0  0.72706945987E+01  0.34553689423E+01  0.19122972142E+01  0.82740229097E+01  0.00000000000E+00 0. -1.
</event>
<event>
 7    1  0.9930326E-013  0.5052886E+02  0.7816164E-02  0.1300439E+00
        -11   -1    0    0    0    0  0.00000000000E+00  0.00000000000E+00  0.45593999997E+02  0.45594000000E+02  0.51100000000E-03 0.  1.
         11   -1    0    0    0    0 -0.00000000000E+00 -0.00000000000E+00 -0.45593999997E+02  0.45594000000E+02  0.51100000000E-03 0. -1.
    9900012    2    1    2    0    0 -0.32985938890E+02  0.21446323616E+02  0.10254208243E+02  0.50528858989E+02  0.29999997382E+02 0.  0.
        -12    1    1    2    0    0  0.32985938890E+02 -0.21446323616E+02 -0.10254208243E+02  0.40659141011E+02  0.00000000000E+00 0.  1.
         11    1    3    3    0    0 -0.16363402869E+01  0.43829352454E+01  0.89379227166E+01  0.10088319664E+02  0.51100000000E-03 0. -1.
        -11    1    3    3    0    0 -0.58197976321E+01  0.28626145190E+01 -0.75098110126E+01  0.99227953757E+01  0.51100000000E-03 0.  1.
        -12    1    3    3    0    0 -0.25529800971E+02  0.14200773852E+02  0.88260965385E+01  0.30517743949E+02  0.00000000000E+00 0.  1.
</event>
<event>
 7    1  0.9930326E-013  0.5052886E+02  0.7816164E-02  0.1300439E+00
        -11   -1    0    0    0    0  0.00000000000E+00  0.00000000000E+00  0.45593999997E+02  0.45594000000E+02  0.51100000000E-03 0.  1.
         11   -1    0    0    0    0 -0.00000000000E+00 -0.00000000000E+00 -0.45593999997E+02  0.45594000000E+02  0.51100000000E-03 0. -1.
    9900012    2    1    2    0    0  0.85065440677E+01  0.45929659609E+01 -0.39493151907E+02  0.50528859873E+02  0.30000000070E+02 0.  0.
        -12    1    1    2    0    0 -0.85065440677E+01 -0.45929659609E+01  0.39493151907E+02  0.40659140127E+02  0.00000000000E+00 0.  1.
         11    1    3    3    0    0  0.96837537885E+01 -0.11166461025E+01 -0.19218829823E+02  0.21549603384E+02  0.51100000000E-03 0. -1.
        -11    1    3    3    0    0 -0.65096174678E+01  0.59353145458E+01 -0.21729490128E+02  0.23447256125E+02  0.51100000000E-03 0.  1.
        -12    1    3    3    0    0  0.53324077471E+01 -0.22570248245E+00  0.14551680435E+01  0.55320003639E+01  0.00000000000E+00 0.  1.
</event>
<event>
 7    1  0.9930326E-013  0.5052886E+02  0.7816164E-02  0.1300439E+00
        -11   -1    0    0    0    0  0.00000000000E+00  0.00000000000E+00  0.45593999997E+02  0.45594000000E+02  0.51100000000E-03 0.  1.
         11   -1    0    0    0    0 -0.00000000000E+00 -0.00000000000E+00 -0.45593999997E+02  0.45594000000E+02  0.51100000000E-03 0. -1.
    9900012    2    1    2    0    0  0.11305910068E+02  0.62278451487E+01 -0.38555882038E+02  0.50528859608E+02  0.29999999266E+02 0.  0.
        -12    1    1    2    0    0 -0.11305910068E+02 -0.62278451487E+01  0.38555882038E+02  0.40659140392E+02  0.00000000000E+00 0.  1.
         11    1    3    3    0    0  0.17139060438E+02 -0.58524622851E+01 -0.28400046057E+02  0.33683249900E+02  0.51100000000E-03 0. -1.
        -11    1    3    3    0    0 -0.31662484202E+01  0.72995158041E+01 -0.63185174963E+01  0.10160301356E+02  0.51100000000E-03 0.  1.
         12    1    3    3    0    0 -0.26669019501E+01  0.47807916297E+01 -0.38373184847E+01  0.66853083527E+01  0.00000000000E+00 0. -1.
</event>
<event>
 7    1  0.9930326E-013  0.5052887E+02  0.7816164E-02  0.1300439E+00
        -11   -1    0    0    0    0  0.00000000000E+00  0.00000000000E+00  0.45593999997E+02  0.45594000000E+02  0.51100000000E-03 0.  1.
         11   -1    0    0    0    0 -0.00000000000E+00 -0.00000000000E+00 -0.45593999997E+02  0.45594000000E+02  0.51100000000E-03 0. -1.
    9900012    2    1    2    0    0 -0.29240307595E+02 -0.71453591107E+01 -0.27333366843E+02  0.50528872021E+02  0.30000036995E+02 0.  0.
        -12    1    1    2    0    0  0.29240307595E+02  0.71453591107E+01  0.27333366843E+02  0.40659127979E+02  0.00000000000E+00 0.  1.
         11    1    3    3    0    0  0.22373650656E+01 -0.58491071206E+01  0.13704065331E+01  0.64106061236E+01  0.51100000000E-03 0.  1.
        -11    1    3    3    0    0 -0.65018192939E+01  0.43286980496E+01 -0.81328049449E+01  0.11276249264E+02  0.51100000000E-03 0. -1.
         12    1    3    3    0    0 -0.24975853367E+02 -0.56249500398E+01 -0.20570968431E+02  0.32842016633E+02  0.00000000000E+00 0. -1.
</event>
<event>
 7    1  0.9930326E-013  0.5052886E+02  0.7816164E-02  0.1300439E+00
        -11   -1    0    0    0    0  0.00000000000E+00  0.00000000000E+00  0.45593999997E+02  0.45594000000E+02  0.51100000000E-03 0. -1.
         11   -1    0    0    0    0 -0.00000000000E+00 -0.00000000000E+00 -0.45593999997E+02  0.45594000000E+02  0.51100000000E-03 0.  1.
    9900012    2    1    2    0    0 -0.40498564858E+02 -0.31343859170E+01 -0.17909996357E+01  0.50528858220E+02  0.29999995044E+02 0.  0.
        -12    1    1    2    0    0  0.40498564858E+02  0.31343859170E+01  0.17909996357E+01  0.40659141780E+02  0.00000000000E+00 0.  1.
         11    1    3    3    0    0 -0.40092161578E+02 -0.57227665048E+01  0.95471719168E-01  0.40498649256E+02  0.51100000000E-03 0. -1.
        -11    1    3    3    0    0  0.10431785860E+01 -0.30204782754E+00 -0.52519468932E+01  0.53630589110E+01  0.51100000000E-03 0.  1.
         12    1    3    3    0    0 -0.14495818659E+01  0.28904284154E+01  0.33654755384E+01  0.46671500522E+01  0.00000000000E+00 0. -1.
</event>
<event>
 7    1  0.9930326E-013  0.5052884E+02  0.7816164E-02  0.1300439E+00
        -11   -1    0    0    0    0  0.00000000000E+00  0.00000000000E+00  0.45593999997E+02  0.45594000000E+02  0.51100000000E-03 0. -1.
         11   -1    0    0    0    0 -0.00000000000E+00 -0.00000000000E+00 -0.45593999997E+02  0.45594000000E+02  0.51100000000E-03 0.  1.
    9900012    2    1    2    0    0 -0.24175851708E+02 -0.29669661416E+02  0.13726137606E+02  0.50528837835E+02  0.29999933083E+02 0.  0.
        -12    1    1    2    0    0  0.24175851708E+02  0.29669661416E+02 -0.13726137606E+02  0.40659162165E+02  0.00000000000E+00 0.  1.
         11    1    3    3    0    0 -0.17755032161E+02 -0.19606604932E+02  0.17368359358E+02  0.31643641242E+02  0.51100000000E-03 0. -1.
        -11    1    3    3    0    0  0.10282097777E+01  0.63865868204E+00 -0.55739943684E+01  0.57039033774E+01  0.51100000000E-03 0.  1.
         12    1    3    3    0    0 -0.74490293254E+01 -0.10701715166E+02  0.19317726167E+01  0.13181293216E+02  0.00000000000E+00 0. -1.
</event>
<event>
 7    1  0.9930326E-013  0.5052890E+02  0.7816164E-02  0.1300439E+00
        -11   -1    0    0    0    0  0.00000000000E+00  0.00000000000E+00  0.45593999997E+02  0.45594000000E+02  0.51100000000E-03 0.  1.
         11   -1    0    0    0    0 -0.00000000000E+00 -0.00000000000E+00 -0.45593999997E+02  0.45594000000E+02  0.51100000000E-03 0. -1.
    9900012    2    1    2    0    0 -0.12157770295E+02  0.38343244642E+02 -0.59284636521E+01  0.50528899303E+02  0.30000119921E+02 0.  0.
        -12    1    1    2    0    0  0.12157770295E+02 -0.38343244642E+02  0.59284636521E+01  0.40659100697E+02  0.00000000000E+00 0.  1.
         11    1    3    3    0    0  0.65753577310E+01  0.97372295752E+01  0.55869982510E+01  0.13010131391E+02  0.51100000000E-03 0. -1.
        -11    1    3    3    0    0 -0.73534731112E+01  0.46323030704E+01 -0.55726317311E+01  0.10324050717E+02  0.51100000000E-03 0.  1.
         12    1    3    3    0    0 -0.11379654915E+02  0.23973711996E+02 -0.59428301720E+01  0.27194717195E+02  0.00000000000E+00 0. -1.
</event>
<event>
 7    1  0.9930326E-013  0.5052886E+02  0.7816164E-02  0.1300439E+00
        -11   -1    0    0    0    0  0.00000000000E+00  0.00000000000E+00  0.45593999997E+02  0.45594000000E+02  0.51100000000E-03 0. -1.
         11   -1    0    0    0    0 -0.00000000000E+00 -0.00000000000E+00 -0.45593999997E+02  0.45594000000E+02  0.51100000000E-03 0.  1.
    9900012    2    1    2    0    0  0.32984790316E+02 -0.14032265365E+02  0.19190224196E+02  0.50528861198E+02  0.30000004096E+02 0.  0.
        -12    1    1    2    0    0 -0.32984790316E+02  0.14032265365E+02 -0.19190224196E+02  0.40659138802E+02  0.00000000000E+00 0.  1.
         11    1    3    3    0    0  0.11799486886E+02  0.81557299253E+01  0.75480875369E+01  0.16208560921E+02  0.51100000000E-03 0. -1.
        -11    1    3    3    0    0  0.44772949645E+01 -0.98616839636E+01  0.74311976433E+01  0.13134750834E+02  0.51100000000E-03 0.  1.
         12    1    3    3    0    0  0.16708008465E+02 -0.12326311327E+02  0.42109390155E+01  0.21185549443E+02  0.00000000000E+00 0. -1.
</event>
<event>
 7    1  0.9930326E-013  0.5052886E+02  0.7816164E-02  0.1300439E+00
        -11   -1    0    0    0    0  0.00000000000E+00  0.00000000000E+00  0.45593999997E+02  0.45594000000E+02  0.51100000000E-03 0. -1.
         11   -1    0    0    0    0 -0.00000000000E+00 -0.00000000000E+00 -0.45593999997E+02  0.45594000000E+02  0.51100000000E-03 0.  1.
    9900012    2    1    2    0    0  0.20389309309E+02  0.35177067634E+02 -0.12438936003E+00  0.50528862108E+02  0.30000006862E+02 0.  0.
        -12    1    1    2    0    0 -0.20389309309E+02 -0.35177067634E+02  0.12438936003E+00  0.40659137892E+02  0.00000000000E+00 0.  1.
         11    1    3    3    0    0  0.17361758619E+02  0.25153226371E+02  0.38892261684E+01  0.30809763707E+02  0.51100000000E-03 0. -1.
        -11    1    3    3    0    0 -0.54449234862E+01  0.78214709039E+01  0.10798708573E+01  0.95910750284E+01  0.51100000000E-03 0.  1.
         12    1    3    3    0    0  0.84724741764E+01  0.22023703592E+01 -0.50934863858E+01  0.10128023372E+02  0.00000000000E+00 0. -1.
</event>
<event>
 7    1  0.9930326E-013  0.5052886E+02  0.7816164E-02  0.1300439E+00
        -11   -1    0    0    0    0  0.00000000000E+00  0.00000000000E+00  0.45593999997E+02  0.45594000000E+02  0.51100000000E-03 0.  1.
         11   -1    0    0    0    0 -0.00000000000E+00 -0.00000000000E+00 -0.45593999997E+02  0.45594000000E+02  0.51100000000E-03 0. -1.
    9900012    2    1    2    0    0 -0.14082219660E+02 -0.28011447388E+02 -0.25888528915E+02  0.50528855583E+02  0.29999987030E+02 0.  0.
        -12    1    1    2    0    0  0.14082219660E+02  0.28011447388E+02  0.25888528915E+02  0.40659144417E+02  0.00000000000E+00 0.  1.
         11    1    3    3    0    0 -0.78701816816E+01 -0.52577580987E+01  0.32717005235E+01  0.10014379886E+02  0.51100000000E-03 0.  1.
        -11    1    3    3    0    0 -0.22304611730E+01 -0.20175109921E+02 -0.14073761145E+02  0.24699813165E+02  0.51100000000E-03 0. -1.
         12    1    3    3    0    0 -0.39815768056E+01 -0.25785793684E+01 -0.15086468293E+02  0.15814662532E+02  0.00000000000E+00 0. -1.
</event>
<event>
 7    1  0.9930326E-013  0.5052887E+02  0.7816164E-02  0.1300439E+00
        -11   -1    0    0    0    0  0.00000000000E+00  0.00000000000E+00  0.45593999997E+02  0.45594000000E+02  0.51100000000E-03 0.  1.
         11   -1    0    0    0    0 -0.00000000000E+00 -0.00000000000E+00 -0.45593999997E+02  0.45594000000E+02  0.51100000000E-03 0. -1.
    9900012    2    1    2    0    0 -0.11702460982E+02  0.26250766417E+02 -0.28759594729E+02  0.50528872864E+02  0.30000039557E+02 0.  0.
        -12    1    1    2    0    0  0.11702460982E+02 -0.26250766417E+02  0.28759594729E+02  0.40659127136E+02  0.00000000000E+00 0.  1.
         11    1    3    3    0    0 -0.85245646605E+01  0.12250893940E+02 -0.21364665809E+02  0.26061495551E+02  0.51100000000E-03 0. -1.
        -11    1    3    3    0    0  0.57450359563E+01 -0.32586957487E+00 -0.45852647483E+01  0.73577362138E+01  0.51100000000E-03 0.  1.
        -12    1    3    3    0    0 -0.89229322778E+01  0.14325742052E+02 -0.28096641717E+01  0.17109641099E+02  0.00000000000E+00 0.  1.
</event>
<event>
 7    1  0.9930326E-013  0.5052886E+02  0.7816164E-02  0.1300439E+00
        -11   -1    0    0    0    0  0.00000000000E+00  0.00000000000E+00  0.45593999997E+02  0.45594000000E+02  0.51100000000E-03 0. -1.
         11   -1    0    0    0    0 -0.00000000000E+00 -0.00000000000E+00 -0.45593999997E+02  0.45594000000E+02  0.51100000000E-03 0.  1.
    9900012    2    1    2    0    0 -0.33830374883E+02 -0.19023467584E+02  0.12115240760E+02  0.50528860286E+02  0.30000001325E+02 0.  0.
        -12    1    1    2    0    0  0.33830374883E+02  0.19023467584E+02 -0.12115240760E+02  0.40659139714E+02  0.00000000000E+00 0.  1.
         11    1    3    3    0    0 -0.22390103038E+02 -0.20121611088E+02  0.62604279968E+01  0.30747177201E+02  0.51100000000E-03 0. -1.
        -11    1    3    3    0    0 -0.46495956212E+01  0.36279579877E+01  0.98695038883E+01  0.11497300808E+02  0.51100000000E-03 0.  1.
        -12    1    3    3    0    0 -0.67906762229E+01 -0.25298144834E+01 -0.40146911254E+01  0.82843822773E+01  0.00000000000E+00 0.  1.
</event>
<event>
 7    1  0.9930326E-013  0.5052886E+02  0.7816164E-02  0.1300439E+00
        -11   -1    0    0    0    0  0.00000000000E+00  0.00000000000E+00  0.45593999997E+02  0.45594000000E+02  0.51100000000E-03 0. -1.
         11   -1    0    0    0    0 -0.00000000000E+00 -0.00000000000E+00 -0.45593999997E+02  0.45594000000E+02  0.51100000000E-03 0.  1.
    9900012    2    1    2    0    0  0.39208993046E+02  0.76436094223E+01  0.75760183313E+01  0.50528856447E+02  0.29999989657E+02 0.  0.
        -12    1    1    2    0    0 -0.39208993046E+02 -0.76436094223E+01 -0.75760183313E+01  0.40659143553E+02  0.00000000000E+00 0.  1.
         11    1    3    3    0    0  0.17350255795E+02  0.11556913929E+02 -0.59610388098E+01  0.21682426517E+02  0.51100000000E-03 0. -1.
        -11    1    3    3    0    0  0.16511411052E+02 -0.65888177390E+01  0.50799221258E+01  0.18489046032E+02  0.51100000000E-03 0.  1.
         12    1    3    3    0    0  0.53473261994E+01  0.26755132321E+01  0.84571350154E+01  0.10357383898E+02  0.00000000000E+00 0. -1.
</event>
<event>
 7    1  0.9930326E-013  0.5052885E+02  0.7816164E-02  0.1300439E+00
        -11   -1    0    0    0    0  0.00000000000E+00  0.00000000000E+00  0.45593999997E+02  0.45594000000E+02  0.51100000000E-03 0. -1.
         11   -1    0    0    0    0 -0.00000000000E+00 -0.00000000000E+00 -0.45593999997E+02  0.45594000000E+02  0.51100000000E-03 0.  1.
    9900012    2    1    2    0    0  0.11267606231E+02 -0.60645633508E+01  0.38593114146E+02  0.50528851727E+02  0.29999975311E+02 0.  0.
        -12    1    1    2    0    0 -0.11267606231E+02  0.60645633508E+01 -0.38593114146E+02  0.40659148273E+02  0.00000000000E+00 0.  1.
         11    1    3    3    0    0  0.14854117365E+02  0.19789278909E+01  0.20573382260E+02  0.25452406883E+02  0.51100000000E-03 0. -1.
        -11    1    3    3    0    0 -0.60707441903E+01 -0.24065535222E+01  0.17746984342E+02  0.18910338135E+02  0.51100000000E-03 0.  1.
         12    1    3    3    0    0  0.24842330557E+01 -0.56369377195E+01  0.27274754428E+00  0.61661067094E+01  0.00000000000E+00 0. -1.
</event>
<event>
 7    1  0.9930326E-013  0.5052887E+02  0.7816164E-02  0.1300439E+00
        -11   -1    0    0    0    0  0.00000000000E+00  0.00000000000E+00  0.45593999997E+02  0.45594000000E+02  0.51100000000E-03 0.  1.
         11   -1    0    0    0    0 -0.00000000000E+00 -0.00000000000E+00 -0.45593999997E+02  0.45594000000E+02  0.51100000000E-03 0. -1.
    9900012    2    1    2    0    0  0.29646204226E+02  0.26969294350E+02 -0.68501542713E+01  0.50528869706E+02  0.30000029957E+02 0.  0.
        -12    1    1    2    0    0 -0.29646204226E+02 -0.26969294350E+02  0.68501542713E+01  0.40659130294E+02  0.00000000000E+00 0.  1.
         11    1    3    3    0    0  0.23001144558E+01 -0.16074304242E+01 -0.54618582596E+01  0.61405419131E+01  0.51100000000E-03 0. -1.
        -11    1    3    3    0    0  0.27290090649E+02  0.31086357844E+02  0.29376902641E+00  0.41366616880E+02  0.51100000000E-03 0.  1.
        -12    1    3    3    0    0  0.55999121729E-01 -0.25096330695E+01 -0.16820650382E+01  0.30217109124E+01  0.00000000000E+00 0.  1.
</event>
<event>
 7    1  0.9930326E-013  0.5052900E+02  0.7816164E-02  0.1300438E+00
        -11   -1    0    0    0    0  0.00000000000E+00  0.00000000000E+00  0.45593999997E+02  0.45594000000E+02  0.51100000000E-03 0.  1.
         11   -1    0    0    0    0 -0.00000000000E+00 -0.00000000000E+00 -0.45593999997E+02  0.45594000000E+02  0.51100000000E-03 0. -1.
    9900012    2    1    2    0    0 -0.13395509903E+02 -0.43652613394E+01 -0.38139996173E+02  0.50528997305E+02  0.30000417804E+02 0.  0.
        -12    1    1    2    0    0  0.13395509903E+02  0.43652613394E+01  0.38139996173E+02  0.40659002695E+02  0.00000000000E+00 0.  1.
         11    1    3    3    0    0 -0.49291455472E+01 -0.17941798284E+01 -0.13410133763E+02  0.14399557108E+02  0.51100000000E-03 0. -1.
        -11    1    3    3    0    0 -0.44955517868E+01  0.33885931633E+00  0.45696505812E+01  0.64192303432E+01  0.51100000000E-03 0.  1.
        -12    1    3    3    0    0 -0.39708125692E+01 -0.29099408274E+01 -0.29299512990E+02  0.29710209854E+02  0.00000000000E+00 0.  1.
</event>
<event>
 7    1  0.9930326E-013  0.5052886E+02  0.7816164E-02  0.1300439E+00
        -11   -1    0    0    0    0  0.00000000000E+00  0.00000000000E+00  0.45593999997E+02  0.45594000000E+02  0.51100000000E-03 0.  1.
         11   -1    0    0    0    0 -0.00000000000E+00 -0.00000000000E+00 -0.45593999997E+02  0.45594000000E+02  0.51100000000E-03 0. -1.
    9900012    2    1    2    0    0  0.29529242823E+02  0.24232078479E+02 -0.13928227496E+02  0.50528864123E+02  0.30000012988E+02 0.  0.
        -12    1    1    2    0    0 -0.29529242823E+02 -0.24232078479E+02  0.13928227496E+02  0.40659135877E+02  0.00000000000E+00 0.  1.
         11    1    3    3    0    0  0.15208074281E+02  0.24443143858E+01  0.57603586798E+01  0.16445118684E+02  0.51100000000E-03 0.  1.
        -11    1    3    3    0    0  0.25419610755E+01  0.80899367730E-02 -0.15725553171E+00  0.25468335477E+01  0.51100000000E-03 0. -1.
         12    1    3    3    0    0  0.11779207467E+02  0.21779674156E+02 -0.19531330645E+02  0.31536911891E+02  0.00000000000E+00 0. -1.
</event>
<event>
 7    1  0.9930326E-013  0.5052886E+02  0.7816164E-02  0.1300439E+00
        -11   -1    0    0    0    0  0.00000000000E+00  0.00000000000E+00  0.45593999997E+02  0.45594000000E+02  0.51100000000E-03 0.  1.
         11   -1    0    0    0    0 -0.00000000000E+00 -0.00000000000E+00 -0.45593999997E+02  0.45594000000E+02  0.51100000000E-03 0. -1.
    9900012    2    1    2    0    0  0.24318142134E+02 -0.19266919334E+00 -0.32584599368E+02  0.50528864812E+02  0.30000015083E+02 0.  0.
        -12    1    1    2    0    0 -0.24318142134E+02  0.19266919334E+00  0.32584599368E+02  0.40659135188E+02  0.00000000000E+00 0.  1.
         11    1    3    3    0    0  0.13254372814E+02 -0.97782977385E+01 -0.80478862983E+01  0.18331993331E+02  0.51100000000E-03 0. -1.
        -11    1    3    3    0    0 -0.23954373755E+01  0.57218674571E+01 -0.41459247212E+01  0.74610039185E+01  0.51100000000E-03 0.  1.
         12    1    3    3    0    0  0.13459206695E+02  0.38637610881E+01 -0.20390788349E+02  0.24735867563E+02  0.00000000000E+00 0. -1.
</event>
<event>
 7    1  0.9930326E-013  0.5052892E+02  0.7816164E-02  0.1300439E+00
        -11   -1    0    0    0    0  0.00000000000E+00  0.00000000000E+00  0.45593999997E+02  0.45594000000E+02  0.51100000000E-03 0.  1.
         11   -1    0    0    0    0 -0.00000000000E+00 -0.00000000000E+00 -0.45593999997E+02  0.45594000000E+02  0.51100000000E-03 0. -1.
    9900012    2    1    2    0    0  0.18212463765E+02 -0.33918146373E+02 -0.13077698762E+02  0.50528921128E+02  0.30000186262E+02 0.  0.
        -12    1    1    2    0    0 -0.18212463765E+02  0.33918146373E+02  0.13077698762E+02  0.40659078872E+02  0.00000000000E+00 0.  1.
         11    1    3    3    0    0  0.11269938786E+02 -0.36280501880E+02 -0.10062871654E+02  0.39300734383E+02  0.51100000000E-03 0. -1.
        -11    1    3    3    0    0  0.54998724399E+01  0.39865598872E+01  0.79847203547E+00  0.68395039617E+01  0.51100000000E-03 0.  1.
         12    1    3    3    0    0  0.14426525391E+01 -0.16242043805E+01 -0.38132991432E+01  0.43886827834E+01  0.00000000000E+00 0. -1.
</event>
<event>
 7    1  0.9930326E-013  0.5052886E+02  0.7816164E-02  0.1300439E+00
        -11   -1    0    0    0    0  0.00000000000E+00  0.00000000000E+00  0.45593999997E+02  0.45594000000E+02  0.51100000000E-03 0. -1.
         11   -1    0    0    0    0 -0.00000000000E+00 -0.00000000000E+00 -0.45593999997E+02  0.45594000000E+02  0.51100000000E-03 0.  1.
    9900012    2    1    2    0    0 -0.22165613207E+02 -0.76155113818E+01  0.33224318461E+02  0.50528858843E+02  0.29999996938E+02 0.  0.
        -12    1    1    2    0    0  0.22165613207E+02  0.76155113818E+01 -0.33224318461E+02  0.40659141157E+02  0.00000000000E+00 0.  1.
         11    1    3    3    0    0 -0.24810366674E+01 -0.66158108651E+01  0.29290983436E+02  0.30131150115E+02  0.51100000000E-03 0.  1.
        -11    1    3    3    0    0 -0.14047663723E+02  0.61692718122E-01  0.13681141782E+01  0.14114262245E+02  0.51100000000E-03 0. -1.
        -12    1    3    3    0    0 -0.56369128168E+01 -0.10613932348E+01  0.25652208469E+01  0.62834464824E+01  0.00000000000E+00 0.  1.
</event>
<event>
 7    1  0.9930326E-013  0.5052886E+02  0.7816164E-02  0.1300439E+00
        -11   -1    0    0    0    0  0.00000000000E+00  0.00000000000E+00  0.45593999997E+02  0.45594000000E+02  0.51100000000E-03 0. -1.
         11   -1    0    0    0    0 -0.00000000000E+00 -0.00000000000E+00 -0.45593999997E+02  0.45594000000E+02  0.51100000000E-03 0.  1.
    9900012    2    1    2    0    0  0.27293761404E+02 -0.18970364753E+02 -0.23416690208E+02  0.50528861657E+02  0.30000005494E+02 0.  0.
        -12    1    1    2    0    0 -0.27293761404E+02  0.18970364753E+02  0.23416690208E+02  0.40659138343E+02  0.00000000000E+00 0.  1.
         11    1    3    3    0    0 -0.74334597134E+00 -0.45394702194E+01  0.37415416637E+01  0.59294592830E+01  0.51100000000E-03 0. -1.
        -11    1    3    3    0    0  0.18549208745E+02 -0.11207497783E+02 -0.26941739482E+02  0.34576559664E+02  0.51100000000E-03 0.  1.
        -12    1    3    3    0    0  0.94878986305E+01 -0.32233967513E+01 -0.21649238961E+00  0.10022842710E+02  0.00000000000E+00 0.  1.
</event>
<event>
 7    1  0.9930326E-013  0.5052886E+02  0.7816164E-02  0.1300439E+00
        -11   -1    0    0    0    0  0.00000000000E+00  0.00000000000E+00  0.45593999997E+02  0.45594000000E+02  0.51100000000E-03 0.  1.
         11   -1    0    0    0    0 -0.00000000000E+00 -0.00000000000E+00 -0.45593999997E+02  0.45594000000E+02  0.51100000000E-03 0. -1.
    9900012    2    1    2    0    0 -0.11720340530E+02 -0.16257734207E+01 -0.38899304781E+02  0.50528862850E+02  0.30000009119E+02 0.  0.
        -12    1    1    2    0    0  0.11720340530E+02  0.16257734207E+01  0.38899304781E+02  0.40659137150E+02  0.00000000000E+00 0.  1.
         11    1    3    3    0    0  0.13118445745E+01 -0.99229170992E+01 -0.14972557843E+02  0.18010072420E+02  0.51100000000E-03 0.  1.
        -11    1    3    3    0    0 -0.14451505292E+02  0.84944515281E+01 -0.12268996168E+02  0.20773299671E+02  0.51100000000E-03 0. -1.
        -12    1    3    3    0    0  0.14193201879E+01 -0.19730784957E+00 -0.11657750769E+02  0.11745490759E+02  0.00000000000E+00 0.  1.
</event>
<event>
 7    1  0.9930326E-013  0.5052885E+02  0.7816164E-02  0.1300439E+00
        -11   -1    0    0    0    0  0.00000000000E+00  0.00000000000E+00  0.45593999997E+02  0.45594000000E+02  0.51100000000E-03 0.  1.
         11   -1    0    0    0    0 -0.00000000000E+00 -0.00000000000E+00 -0.45593999997E+02  0.45594000000E+02  0.51100000000E-03 0. -1.
    9900012    2    1    2    0    0 -0.22074971974E+02  0.29556551098E+02 -0.17095974893E+02  0.50528850255E+02  0.29999970835E+02 0.  0.
        -12    1    1    2    0    0  0.22074971974E+02 -0.29556551098E+02  0.17095974893E+02  0.40659149745E+02  0.00000000000E+00 0.  1.
         11    1    3    3    0    0 -0.97387980524E+01  0.22915085186E+02 -0.22051476098E+02  0.33259779238E+02  0.51100000000E-03 0. -1.
        -11    1    3    3    0    0 -0.13423806276E+02  0.71874486392E+01  0.40621958839E+01  0.15759423484E+02  0.51100000000E-03 0.  1.
        -12    1    3    3    0    0  0.10876323550E+01 -0.54598272707E+00  0.89330532129E+00  0.15096475334E+01  0.00000000000E+00 0.  1.
</event>
<event>
 7    1  0.9930326E-013  0.5052886E+02  0.7816164E-02  0.1300439E+00
        -11   -1    0    0    0    0  0.00000000000E+00  0.00000000000E+00  0.45593999997E+02  0.45594000000E+02  0.51100000000E-03 0. -1.
         11   -1    0    0    0    0 -0.00000000000E+00 -0.00000000000E+00 -0.45593999997E+02  0.45594000000E+02  0.51100000000E-03 0.  1.
    9900012    2    1    2    0    0 -0.39524022103E+01 -0.39293136059E+02  0.96743767964E+01  0.50528860917E+02  0.30000003243E+02 0.  0.
        -12    1    1    2    0    0  0.39524022103E+01  0.39293136059E+02 -0.96743767964E+01  0.40659139083E+02  0.00000000000E+00 0.  1.
         11    1    3    3    0    0  0.19734575478E+00 -0.20025489043E+02  0.14039745178E+01  0.20075614597E+02  0.51100000000E-03 0.  1.
        -11    1    3    3    0    0 -0.37526202750E+01 -0.26423682756E-01  0.10432434651E+02  0.11086863855E+02  0.51100000000E-03 0. -1.
         12    1    3    3    0    0 -0.39712769005E+00 -0.19241223333E+02 -0.21620323723E+01  0.19366382464E+02  0.00000000000E+00 0. -1.
</event>
<event>
 7    1  0.9930326E-013  0.5052889E+02  0.7816164E-02  0.1300439E+00
        -11   -1    0    0    0    0  0.00000000000E+00  0.00000000000E+00  0.45593999997E+02  0.45594000000E+02  0.51100000000E-03 0.  1.
         11   -1    0    0    0    0 -0.00000000000E+00 -0.00000000000E+00 -0.45593999997E+02  0.45594000000E+02  0.51100000000E-03 0. -1.
    9900012    2    1    2    0    0  0.10425346651E+02  0.39288922608E+02 -0.92534387803E+00  0.50528885969E+02  0.30000079392E+02 0.  0.
        -12    1    1    2    0    0 -0.10425346651E+02 -0.39288922608E+02  0.92534387803E+00  0.40659114031E+02  0.00000000000E+00 0.  1.
         11    1    3    3    0    0  0.34586514235E+01  0.96606711079E+01  0.92735509685E+01  0.13830747765E+02  0.51100000000E-03 0. -1.
        -11    1    3    3    0    0  0.10861503098E+02  0.12009595011E+02 -0.92063351722E+01  0.18626841638E+02  0.51100000000E-03 0.  1.
        -12    1    3    3    0    0 -0.38948078703E+01  0.17618656490E+02 -0.99255967430E+00  0.18071296565E+02  0.00000000000E+00 0.  1.
</event>
<event>
 7    1  0.9930326E-013  0.5052887E+02  0.7816164E-02  0.1300439E+00
        -11   -1    0    0    0    0  0.00000000000E+00  0.00000000000E+00  0.45593999997E+02  0.45594000000E+02  0.51100000000E-03 0.  1.
         11   -1    0    0    0    0 -0.00000000000E+00 -0.00000000000E+00 -0.45593999997E+02  0.45594000000E+02  0.51100000000E-03 0. -1.
    9900012    2    1    2    0    0 -0.75808619034E+01 -0.39887313794E+02  0.21674670592E+01  0.50528865942E+02  0.30000018517E+02 0.  0.
        -12    1    1    2    0    0  0.75808619034E+01  0.39887313794E+02 -0.21674670592E+01  0.40659134058E+02  0.00000000000E+00 0.  1.
         11    1    3    3    0    0 -0.88306888046E+01 -0.13962296104E+02  0.78426899966E+01  0.18287552157E+02  0.51100000000E-03 0. -1.
        -11    1    3    3    0    0 -0.27342351464E+00 -0.28118286507E+01 -0.84524634122E+01  0.89120861068E+01  0.51100000000E-03 0.  1.
        -12    1    3    3    0    0  0.15232504158E+01 -0.23113189040E+02  0.27772404748E+01  0.23329227678E+02  0.00000000000E+00 0.  1.
</event>
<event>
 7    1  0.9930326E-013  0.5052886E+02  0.7816164E-02  0.1300439E+00
        -11   -1    0    0    0    0  0.00000000000E+00  0.00000000000E+00  0.45593999997E+02  0.45594000000E+02  0.51100000000E-03 0. -1.
         11   -1    0    0    0    0 -0.00000000000E+00 -0.00000000000E+00 -0.45593999997E+02  0.45594000000E+02  0.51100000000E-03 0.  1.
    9900012    2    1    2    0    0  0.30355460323E+02 -0.23079595199E+02  0.14108294442E+02  0.50528860092E+02  0.30000000737E+02 0.  0.
        -12    1    1    2    0    0 -0.30355460323E+02  0.23079595199E+02 -0.14108294442E+02  0.40659139908E+02  0.00000000000E+00 0.  1.
         11    1    3    3    0    0  0.15953192287E+01 -0.84439668508E+01 -0.34445139888E+01  0.92579855530E+01  0.51100000000E-03 0. -1.
        -11    1    3    3    0    0  0.15198189064E+02  0.17634983193E+01  0.32815960029E+01  0.15648122882E+02  0.51100000000E-03 0.  1.
         12    1    3    3    0    0  0.13561952030E+02 -0.16399126668E+02  0.14271212428E+02  0.25622751658E+02  0.00000000000E+00 0. -1.
</event>
<event>
 7    1  0.9930326E-013  0.5052891E+02  0.7816164E-02  0.1300439E+00
        -11   -1    0    0    0    0  0.00000000000E+00  0.00000000000E+00  0.45593999997E+02  0.45594000000E+02  0.51100000000E-03 0. -1.
         11   -1    0    0    0    0 -0.00000000000E+00 -0.00000000000E+00 -0.45593999997E+02  0.45594000000E+02  0.51100000000E-03 0.  1.
    9900012    2    1    2    0    0 -0.94287109045E+01  0.39262366809E+02  0.47673435719E+01  0.50528909977E+02  0.30000152365E+02 0.  0.
        -12    1    1    2    0    0  0.94287109045E+01 -0.39262366809E+02 -0.47673435719E+01  0.40659090023E+02  0.00000000000E+00 0.  1.
         11    1    3    3    0    0 -0.98013124005E+01  0.33298216355E+02  0.22217085226E+01  0.34781790153E+02  0.51100000000E-03 0.  1.
        -11    1    3    3    0    0  0.65908489534E+01  0.25497564600E+00  0.30986574936E+01  0.72873850612E+01  0.51100000000E-03 0. -1.
        -12    1    3    3    0    0 -0.62182474574E+01  0.57091748080E+01 -0.55302244422E+00  0.84597347626E+01  0.00000000000E+00 0.  1.
</event>
<event>
 7    1  0.9930326E-013  0.5052885E+02  0.7816164E-02  0.1300439E+00
        -11   -1    0    0    0    0  0.00000000000E+00  0.00000000000E+00  0.45593999997E+02  0.45594000000E+02  0.51100000000E-03 0. -1.
         11   -1    0    0    0    0 -0.00000000000E+00 -0.00000000000E+00 -0.45593999997E+02  0.45594000000E+02  0.51100000000E-03 0.  1.
    9900012    2    1    2    0    0  0.36320430643E+02 -0.12177256546E+02  0.13627430106E+02  0.50528854530E+02  0.29999983829E+02 0.  0.
        -12    1    1    2    0    0 -0.36320430643E+02  0.12177256546E+02 -0.13627430106E+02  0.40659145470E+02  0.00000000000E+00 0.  1.
         11    1    3    3    0    0  0.39478323594E+02 -0.11780477003E+02  0.16903981779E+02  0.44531587356E+02  0.51100000000E-03 0. -1.
        -11    1    3    3    0    0 -0.14203331722E+01 -0.25997308770E+00 -0.38901452498E+01  0.41494773950E+01  0.51100000000E-03 0.  1.
         12    1    3    3    0    0 -0.17375597786E+01 -0.13680645552E+00  0.61359357687E+00  0.18477897792E+01  0.00000000000E+00 0. -1.
</event>
<event>
 7    1  0.9930326E-013  0.5052885E+02  0.7816164E-02  0.1300439E+00
        -11   -1    0    0    0    0  0.00000000000E+00  0.00000000000E+00  0.45593999997E+02  0.45594000000E+02  0.51100000000E-03 0.  1.
         11   -1    0    0    0    0 -0.00000000000E+00 -0.00000000000E+00 -0.45593999997E+02  0.45594000000E+02  0.51100000000E-03 0. -1.
    9900012    2    1    2    0    0  0.26888966946E+02 -0.24927038110E+02 -0.17572496015E+02  0.50528851109E+02  0.29999973430E+02 0.  0.
        -12    1    1    2    0    0 -0.26888966946E+02  0.24927038110E+02  0.17572496015E+02  0.40659148891E+02  0.00000000000E+00 0.  1.
         11    1    3    3    0    0 -0.11754540008E+00 -0.71734784059E+01 -0.15066396955E+02  0.16687388257E+02  0.51100000000E-03 0. -1.
        -11    1    3    3    0    0  0.81843736729E+01 -0.40340339410E+01  0.35248763715E+01  0.97817256121E+01  0.51100000000E-03 0.  1.
         12    1    3    3    0    0  0.18822138673E+02 -0.13719525764E+02 -0.60309754309E+01  0.24059737240E+02  0.00000000000E+00 0. -1.
</event>
<event>
 7    1  0.9930326E-013  0.5052889E+02  0.7816164E-02  0.1300439E+00
        -11   -1    0    0    0    0  0.00000000000E+00  0.00000000000E+00  0.45593999997E+02  0.45594000000E+02  0.51100000000E-03 0. -1.
         11   -1    0    0    0    0 -0.00000000000E+00 -0.00000000000E+00 -0.45593999997E+02  0.45594000000E+02  0.51100000000E-03 0.  1.
    9900012    2    1    2    0    0 -0.21364647806E+02 -0.14614437993E+02  0.31354953649E+02  0.50528891647E+02  0.30000096651E+02 0.  0.
        -12    1    1    2    0    0  0.21364647806E+02  0.14614437993E+02 -0.31354953649E+02  0.40659108353E+02  0.00000000000E+00 0.  1.
         11    1    3    3    0    0 -0.54191910867E+01 -0.14959523816E+02  0.26448514155E+01  0.16129173076E+02  0.51100000000E-03 0. -1.
        -11    1    3    3    0    0 -0.17132832937E+01 -0.89036600005E+00 -0.40124886335E+00  0.19720781349E+01  0.51100000000E-03 0.  1.
         12    1    3    3    0    0 -0.14232173426E+02  0.12354518232E+01  0.29111351096E+02  0.32427640437E+02  0.00000000000E+00 0. -1.
</event>
<event>
 7    1  0.9930326E-013  0.5052886E+02  0.7816164E-02  0.1300439E+00
        -11   -1    0    0    0    0  0.00000000000E+00  0.00000000000E+00  0.45593999997E+02  0.45594000000E+02  0.51100000000E-03 0.  1.
         11   -1    0    0    0    0 -0.00000000000E+00 -0.00000000000E+00 -0.45593999997E+02  0.45594000000E+02  0.51100000000E-03 0. -1.
    9900012    2    1    2    0    0  0.54781271629E+01  0.21681029334E+02 -0.33957162430E+02  0.50528858463E+02  0.29999995785E+02 0.  0.
        -12    1    1    2    0    0 -0.54781271629E+01 -0.21681029334E+02  0.33957162430E+02  0.40659141537E+02  0.00000000000E+00 0.  1.
         11    1    3    3    0    0  0.10729489333E+02  0.65548156740E+01 -0.15511838101E+02  0.19967590526E+02  0.51100000000E-03 0. -1.
        -11    1    3    3    0    0 -0.12033027443E+02  0.10550264510E+02 -0.10390988090E+02  0.19080735427E+02  0.51100000000E-03 0.  1.
        -12    1    3    3    0    0  0.67816652729E+01  0.45759491496E+01 -0.80543362382E+01  0.11480532511E+02  0.00000000000E+00 0.  1.
</event>
<event>
 7    1  0.9930326E-013  0.5052892E+02  0.7816164E-02  0.1300439E+00
        -11   -1    0    0    0    0  0.00000000000E+00  0.00000000000E+00  0.45593999997E+02  0.45594000000E+02  0.51100000000E-03 0.  1.
         11   -1    0    0    0    0 -0.00000000000E+00 -0.00000000000E+00 -0.45593999997E+02  0.45594000000E+02  0.51100000000E-03 0. -1.
    9900012    2    1    2    0    0  0.29555065448E+02 -0.66408426304E+01 -0.27121179902E+02  0.50528916344E+02  0.30000171718E+02 0.  0.
        -12    1    1    2    0    0 -0.29555065448E+02  0.66408426304E+01  0.27121179902E+02  0.40659083656E+02  0.00000000000E+00 0.  1.
         11    1    3    3    0    0 -0.12061771721E+01  0.32216636438E+01 -0.99536769226E+01  0.10531365749E+02  0.51100000000E-03 0. -1.
        -11    1    3    3    0    0  0.30715132629E+02 -0.12271314876E+02 -0.13758635918E+02  0.35823241112E+02  0.51100000000E-03 0.  1.
        -12    1    3    3    0    0  0.46109991409E-01  0.24088086018E+01 -0.34088670612E+01  0.41743094821E+01  0.00000000000E+00 0.  1.
</event>
<event>
 7    1  0.9930326E-013  0.5052886E+02  0.7816164E-02  0.1300439E+00
        -11   -1    0    0    0    0  0.00000000000E+00  0.00000000000E+00  0.45593999997E+02  0.45594000000E+02  0.51100000000E-03 0.  1.
         11   -1    0    0    0    0 -0.00000000000E+00 -0.00000000000E+00 -0.45593999997E+02  0.45594000000E+02  0.51100000000E-03 0. -1.
    9900012    2    1    2    0    0  0.81178206348E+01 -0.37825658163E+02 -0.12509446419E+02  0.50528859859E+02  0.30000000028E+02 0.  0.
        -12    1    1    2    0    0 -0.81178206348E+01  0.37825658163E+02  0.12509446419E+02  0.40659140141E+02  0.00000000000E+00 0.  1.
         11    1    3    3    0    0  0.16595950645E+02 -0.21170418330E+02 -0.14938232699E+02  0.30769513914E+02  0.51100000000E-03 0. -1.
        -11    1    3    3    0    0 -0.10314856669E+01 -0.64314707640E+01  0.28366517989E+01  0.71045318324E+01  0.51100000000E-03 0.  1.
         12    1    3    3    0    0 -0.74466443430E+01 -0.10223769068E+02 -0.40786551819E+00  0.12654814112E+02  0.00000000000E+00 0. -1.
</event>
<event>
 7    1  0.9930326E-013  0.5052887E+02  0.7816164E-02  0.1300439E+00
        -11   -1    0    0    0    0  0.00000000000E+00  0.00000000000E+00  0.45593999997E+02  0.45594000000E+02  0.51100000000E-03 0. -1.
         11   -1    0    0    0    0 -0.00000000000E+00 -0.00000000000E+00 -0.45593999997E+02  0.45594000000E+02  0.51100000000E-03 0.  1.
    9900012    2    1    2    0    0 -0.26517488318E+02 -0.25451829148E+02  0.17383677841E+02  0.50528867582E+02  0.30000023503E+02 0.  0.
        -12    1    1    2    0    0  0.26517488318E+02  0.25451829148E+02 -0.17383677841E+02  0.40659132418E+02  0.00000000000E+00 0.  1.
         11    1    3    3    0    0 -0.12797214846E+02 -0.18764571354E+02  0.77524721199E+01  0.23999555624E+02  0.51100000000E-03 0. -1.
        -11    1    3    3    0    0 -0.39242004183E+01  0.68717772323E+01  0.21173960531E+01  0.81917054122E+01  0.51100000000E-03 0.  1.
        -12    1    3    3    0    0 -0.97960730540E+01 -0.13559035026E+02  0.75138096684E+01  0.18337606547E+02  0.00000000000E+00 0.  1.
</event>
<event>
 7    1  0.9930326E-013  0.5052884E+02  0.7816164E-02  0.1300439E+00
        -11   -1    0    0    0    0  0.00000000000E+00  0.00000000000E+00  0.45593999997E+02  0.45594000000E+02  0.51100000000E-03 0. -1.
         11   -1    0    0    0    0 -0.00000000000E+00 -0.00000000000E+00 -0.45593999997E+02  0.45594000000E+02  0.51100000000E-03 0.  1.
    9900012    2    1    2    0    0 -0.31571169414E+02 -0.23868860475E+02  0.93115881247E+01  0.50528844672E+02  0.29999953866E+02 0.  0.
        -12    1    1    2    0    0  0.31571169414E+02  0.23868860475E+02 -0.93115881247E+01  0.40659155328E+02  0.00000000000E+00 0.  1.
         11    1    3    3    0    0 -0.32993629749E+02 -0.14316483362E+02  0.10710069766E+02  0.37526615815E+02  0.51100000000E-03 0. -1.
        -11    1    3    3    0    0  0.52897001493E+00  0.14334049850E+01 -0.12582084233E+01  0.19792796228E+01  0.51100000000E-03 0.  1.
         12    1    3    3    0    0  0.89349031981E+00 -0.10985782098E+02 -0.14027321771E+00  0.11022949235E+02  0.00000000000E+00 0. -1.
</event>
<event>
 7    1  0.9930326E-013  0.5052886E+02  0.7816164E-02  0.1300439E+00
        -11   -1    0    0    0    0  0.00000000000E+00  0.00000000000E+00  0.45593999997E+02  0.45594000000E+02  0.51100000000E-03 0.  1.
         11   -1    0    0    0    0 -0.00000000000E+00 -0.00000000000E+00 -0.45593999997E+02  0.45594000000E+02  0.51100000000E-03 0. -1.
    9900012    2    1    2    0    0 -0.76556524344E+01 -0.10298997523E+02 -0.38580922153E+02  0.50528856891E+02  0.29999991006E+02 0.  0.
        -12    1    1    2    0    0  0.76556524344E+01  0.10298997523E+02  0.38580922153E+02  0.40659143109E+02  0.00000000000E+00 0.  1.
         11    1    3    3    0    0  0.77382308218E+01 -0.14600657114E+01 -0.13883359645E+02  0.15961193045E+02  0.51100000000E-03 0. -1.
        -11    1    3    3    0    0 -0.17718383846E+02 -0.55169672625E+01 -0.14363673923E+02  0.23466852851E+02  0.51100000000E-03 0.  1.
         12    1    3    3    0    0  0.23245005902E+01 -0.33219645487E+01 -0.10333888585E+02  0.11100810995E+02  0.00000000000E+00 0. -1.
</event>
<event>
 7    1  0.9930326E-013  0.5052886E+02  0.7816164E-02  0.1300439E+00
        -11   -1    0    0    0    0  0.00000000000E+00  0.00000000000E+00  0.45593999997E+02  0.45594000000E+02  0.51100000000E-03 0.  1.
         11   -1    0    0    0    0 -0.00000000000E+00 -0.00000000000E+00 -0.45593999997E+02  0.45594000000E+02  0.51100000000E-03 0. -1.
    9900012    2    1    2    0    0 -0.58434246187E+01  0.20093604029E+02 -0.34860685483E+02  0.50528856791E+02  0.29999990701E+02 0.  0.
        -12    1    1    2    0    0  0.58434246187E+01 -0.20093604029E+02  0.34860685483E+02  0.40659143209E+02  0.00000000000E+00 0.  1.
         11    1    3    3    0    0 -0.97601426197E+01  0.56786452147E+01 -0.23435294165E+02  0.26013850317E+02  0.51100000000E-03 0. -1.
        -11    1    3    3    0    0  0.74607358300E+01  0.28271486462E+01 -0.92295722575E+01  0.12200014464E+02  0.51100000000E-03 0.  1.
         12    1    3    3    0    0 -0.35440178290E+01  0.11587810168E+02 -0.21958190604E+01  0.12314992010E+02  0.00000000000E+00 0. -1.
</event>
<event>
 7    1  0.9930326E-013  0.5052887E+02  0.7816164E-02  0.1300439E+00
        -11   -1    0    0    0    0  0.00000000000E+00  0.00000000000E+00  0.45593999997E+02  0.45594000000E+02  0.51100000000E-03 0. -1.
         11   -1    0    0    0    0 -0.00000000000E+00 -0.00000000000E+00 -0.45593999997E+02  0.45594000000E+02  0.51100000000E-03 0.  1.
    9900012    2    1    2    0    0  0.43582642648E+01  0.11544600294E+02  0.38741353315E+02  0.50528871628E+02  0.30000035799E+02 0.  0.
        -12    1    1    2    0    0 -0.43582642648E+01 -0.11544600294E+02 -0.38741353315E+02  0.40659128372E+02  0.00000000000E+00 0.  1.
         11    1    3    3    0    0  0.64874541983E+00 -0.99692200183E+00  0.15008895619E+01  0.19150440819E+01  0.51100000000E-03 0. -1.
        -11    1    3    3    0    0 -0.49123094699E+01  0.15605934070E+01 -0.30389723245E+01  0.59834429186E+01  0.51100000000E-03 0.  1.
        -12    1    3    3    0    0  0.86218283149E+01  0.10980928889E+02  0.40279436077E+02  0.42630384627E+02  0.00000000000E+00 0.  1.
</event>
<event>
 7    1  0.9930326E-013  0.5052876E+02  0.7816164E-02  0.1300439E+00
        -11   -1    0    0    0    0  0.00000000000E+00  0.00000000000E+00  0.45593999997E+02  0.45594000000E+02  0.51100000000E-03 0. -1.
         11   -1    0    0    0    0 -0.00000000000E+00 -0.00000000000E+00 -0.45593999997E+02  0.45594000000E+02  0.51100000000E-03 0.  1.
    9900012    2    1    2    0    0 -0.17768992127E+02  0.14905482835E+02  0.33395553026E+02  0.50528764128E+02  0.29999709041E+02 0.  0.
        -12    1    1    2    0    0  0.17768992127E+02 -0.14905482835E+02 -0.33395553026E+02  0.40659235872E+02  0.00000000000E+00 0.  1.
         11    1    3    3    0    0  0.22446335771E+01  0.46717155928E+01  0.21199600695E+02  0.21823986262E+02  0.51100000000E-03 0. -1.
        -11    1    3    3    0    0 -0.52910954075E+01  0.59084615034E+01 -0.15757440272E+01  0.80863203900E+01  0.51100000000E-03 0.  1.
         12    1    3    3    0    0 -0.14722530297E+02  0.43253057393E+01  0.13771696358E+02  0.20618457475E+02  0.00000000000E+00 0. -1.
</event>
<event>
 7    1  0.9930326E-013  0.5052886E+02  0.7816164E-02  0.1300439E+00
        -11   -1    0    0    0    0  0.00000000000E+00  0.00000000000E+00  0.45593999997E+02  0.45594000000E+02  0.51100000000E-03 0.  1.
         11   -1    0    0    0    0 -0.00000000000E+00 -0.00000000000E+00 -0.45593999997E+02  0.45594000000E+02  0.51100000000E-03 0. -1.
    9900012    2    1    2    0    0 -0.74756610125E+01  0.30795503491E+02 -0.25473851434E+02  0.50528860194E+02  0.30000001047E+02 0.  0.
        -12    1    1    2    0    0  0.74756610125E+01 -0.30795503491E+02  0.25473851434E+02  0.40659139806E+02  0.00000000000E+00 0.  1.
         11    1    3    3    0    0 -0.41553570847E+01  0.87560832053E+01 -0.11771860186E+02  0.15248366408E+02  0.51100000000E-03 0. -1.
        -11    1    3    3    0    0 -0.97450389245E+01  0.14889929612E+02  0.87812546417E+00  0.17817039374E+02  0.51100000000E-03 0.  1.
        -12    1    3    3    0    0  0.64247349967E+01  0.71494906742E+01 -0.14580116712E+02  0.17463454412E+02  0.00000000000E+00 0.  1.
</event>
<event>
 7    1  0.9930326E-013  0.5052886E+02  0.7816164E-02  0.1300439E+00
        -11   -1    0    0    0    0  0.00000000000E+00  0.00000000000E+00  0.45593999997E+02  0.45594000000E+02  0.51100000000E-03 0.  1.
         11   -1    0    0    0    0 -0.00000000000E+00 -0.00000000000E+00 -0.45593999997E+02  0.45594000000E+02  0.51100000000E-03 0. -1.
    9900012    2    1    2    0    0 -0.19536667478E+02  0.30019233620E+02  0.19243958636E+02  0.50528859487E+02  0.29999998898E+02 0.  0.
        -12    1    1    2    0    0  0.19536667478E+02 -0.30019233620E+02 -0.19243958636E+02  0.40659140513E+02  0.00000000000E+00 0.  1.
         11    1    3    3    0    0 -0.21098396678E+02  0.14904959215E+02  0.95993226797E+01  0.27558068650E+02  0.51100000000E-03 0. -1.
        -11    1    3    3    0    0  0.62552435340E+01  0.14369233235E+02  0.53335829043E+01  0.16554456871E+02  0.51100000000E-03 0.  1.
        -12    1    3    3    0    0 -0.46935143344E+01  0.74504116977E+00  0.43110530516E+01  0.64163339662E+01  0.00000000000E+00 0.  1.
</event>
<event>
 7    1  0.9930326E-013  0.5052887E+02  0.7816164E-02  0.1300439E+00
        -11   -1    0    0    0    0  0.00000000000E+00  0.00000000000E+00  0.45593999997E+02  0.45594000000E+02  0.51100000000E-03 0.  1.
         11   -1    0    0    0    0 -0.00000000000E+00 -0.00000000000E+00 -0.45593999997E+02  0.45594000000E+02  0.51100000000E-03 0. -1.
    9900012    2    1    2    0    0  0.72756053550E+01 -0.30594330837E+02 -0.25772409526E+02  0.50528873036E+02  0.30000040081E+02 0.  0.
        -12    1    1    2    0    0 -0.72756053550E+01  0.30594330837E+02  0.25772409526E+02  0.40659126964E+02  0.00000000000E+00 0.  1.
         11    1    3    3    0    0  0.95651615258E+01 -0.10929972066E+02 -0.20309792977E+02  0.24968866523E+02  0.51100000000E-03 0. -1.
        -11    1    3    3    0    0 -0.87674982586E+01 -0.10810618192E+02 -0.20381726531E+01  0.14067431871E+02  0.51100000000E-03 0.  1.
         12    1    3    3    0    0  0.64779420877E+01 -0.88537405791E+01 -0.34244438955E+01  0.11492574643E+02  0.00000000000E+00 0. -1.
</event>
<event>
 7    1  0.9930326E-013  0.5052886E+02  0.7816164E-02  0.1300439E+00
        -11   -1    0    0    0    0  0.00000000000E+00  0.00000000000E+00  0.45593999997E+02  0.45594000000E+02  0.51100000000E-03 0.  1.
         11   -1    0    0    0    0 -0.00000000000E+00 -0.00000000000E+00 -0.45593999997E+02  0.45594000000E+02  0.51100000000E-03 0. -1.
    9900012    2    1    2    0    0 -0.12576194194E+02  0.30049364382E+02 -0.24331879524E+02  0.50528864233E+02  0.30000013323E+02 0.  0.
        -12    1    1    2    0    0  0.12576194194E+02 -0.30049364382E+02  0.24331879524E+02  0.40659135767E+02  0.00000000000E+00 0.  1.
         11    1    3    3    0    0  0.58108170216E+01  0.79484190326E+01 -0.16031792561E+02  0.18813860118E+02  0.51100000000E-03 0. -1.
        -11    1    3    3    0    0 -0.42484500025E+01  0.28169953283E+00  0.45236679669E+00  0.42817424059E+01  0.51100000000E-03 0.  1.
         12    1    3    3    0    0 -0.14138561213E+02  0.21819245817E+02 -0.87524537593E+01  0.27433261709E+02  0.00000000000E+00 0. -1.
</event>
<event>
 7    1  0.9930326E-013  0.5052886E+02  0.7816164E-02  0.1300439E+00
        -11   -1    0    0    0    0  0.00000000000E+00  0.00000000000E+00  0.45593999997E+02  0.45594000000E+02  0.51100000000E-03 0.  1.
         11   -1    0    0    0    0 -0.00000000000E+00 -0.00000000000E+00 -0.45593999997E+02  0.45594000000E+02  0.51100000000E-03 0. -1.
    9900012    2    1    2    0    0  0.15050317101E+02  0.99654954085E+01 -0.36432710904E+02  0.50528861207E+02  0.30000004124E+02 0.  0.
        -12    1    1    2    0    0 -0.15050317101E+02 -0.99654954085E+01  0.36432710904E+02  0.40659138793E+02  0.00000000000E+00 0.  1.
         11    1    3    3    0    0  0.15930135670E+02  0.30737802899E+01 -0.21039170769E+02  0.26568102202E+02  0.51100000000E-03 0. -1.
        -11    1    3    3    0    0 -0.67079469729E+01  0.87892230915E+01 -0.13693790150E+02  0.17600195569E+02  0.51100000000E-03 0.  1.
        -12    1    3    3    0    0  0.58281284045E+01 -0.18975079729E+01 -0.16997499854E+01  0.63605634356E+01  0.00000000000E+00 0.  1.
</event>
<event>
 7    1  0.9930326E-013  0.5052886E+02  0.7816164E-02  0.1300439E+00
        -11   -1    0    0    0    0  0.00000000000E+00  0.00000000000E+00  0.45593999997E+02  0.45594000000E+02  0.51100000000E-03 0.  1.
         11   -1    0    0    0    0 -0.00000000000E+00 -0.00000000000E+00 -0.45593999997E+02  0.45594000000E+02  0.51100000000E-03 0. -1.
    9900012    2    1    2    0    0  0.16877774697E+02  0.12487478568E+02 -0.34819090259E+02  0.50528862698E+02  0.30000008657E+02 0.  0.
        -12    1    1    2    0    0 -0.16877774697E+02 -0.12487478568E+02  0.34819090259E+02  0.40659137302E+02  0.00000000000E+00 0.  1.
         11    1    3    3    0    0  0.46429787240E+01  0.51451062187E+01 -0.13375018871E+02  0.15063880625E+02  0.51100000000E-03 0. -1.
        -11    1    3    3    0    0 -0.12030080824E+01  0.81450602236E+01  0.19618641237E+01  0.84639320409E+01  0.51100000000E-03 0.  1.
        -12    1    3    3    0    0  0.13437804055E+02 -0.80268787435E+00 -0.23405935512E+02  0.27001050032E+02  0.00000000000E+00 0.  1.
</event>
<event>
 7    1  0.9930326E-013  0.5052886E+02  0.7816164E-02  0.1300439E+00
        -11   -1    0    0    0    0  0.00000000000E+00  0.00000000000E+00  0.45593999997E+02  0.45594000000E+02  0.51100000000E-03 0.  1.
         11   -1    0    0    0    0 -0.00000000000E+00 -0.00000000000E+00 -0.45593999997E+02  0.45594000000E+02  0.51100000000E-03 0. -1.
    9900012    2    1    2    0    0 -0.38841426006E+01 -0.36606749733E+02 -0.17263390493E+02  0.50528863990E+02  0.30000012585E+02 0.  0.
        -12    1    1    2    0    0  0.38841426006E+01  0.36606749733E+02  0.17263390493E+02  0.40659136010E+02  0.00000000000E+00 0.  1.
         11    1    3    3    0    0 -0.54851589824E+01 -0.54969351580E+01 -0.12541627750E+02  0.14751125112E+02  0.51100000000E-03 0. -1.
        -11    1    3    3    0    0  0.40976177405E+01 -0.29505608435E+02 -0.84959021121E+01  0.30976632374E+02  0.51100000000E-03 0.  1.
        -12    1    3    3    0    0 -0.24966013587E+01 -0.16042061401E+01  0.37741393694E+01  0.48011065041E+01  0.00000000000E+00 0.  1.
</event>
<event>
 7    1  0.9930326E-013  0.5052887E+02  0.7816164E-02  0.1300439E+00
        -11   -1    0    0    0    0  0.00000000000E+00  0.00000000000E+00  0.45593999997E+02  0.45594000000E+02  0.51100000000E-03 0. -1.
         11   -1    0    0    0    0 -0.00000000000E+00 -0.00000000000E+00 -0.45593999997E+02  0.45594000000E+02  0.51100000000E-03 0.  1.
    9900012    2    1    2    0    0 -0.65395469106E+00  0.30787835987E+02  0.26548947201E+02  0.50528866967E+02  0.30000021633E+02 0.  0.
        -12    1    1    2    0    0  0.65395469106E+00 -0.30787835987E+02 -0.26548947201E+02  0.40659133033E+02  0.00000000000E+00 0.  1.
         11    1    3    3    0    0  0.11195713421E+02  0.15281084844E+02  0.17682507668E+02  0.25913830877E+02  0.51100000000E-03 0. -1.
        -11    1    3    3    0    0 -0.52271405835E+01  0.50714718455E+01 -0.26222218951E+01  0.77407282143E+01  0.51100000000E-03 0.  1.
        -12    1    3    3    0    0 -0.66225275286E+01  0.10435279297E+02  0.11488661428E+02  0.16874307876E+02  0.00000000000E+00 0.  1.
</event>
<event>
 7    1  0.9930326E-013  0.5052885E+02  0.7816164E-02  0.1300439E+00
        -11   -1    0    0    0    0  0.00000000000E+00  0.00000000000E+00  0.45593999997E+02  0.45594000000E+02  0.51100000000E-03 0. -1.
         11   -1    0    0    0    0 -0.00000000000E+00 -0.00000000000E+00 -0.45593999997E+02  0.45594000000E+02  0.51100000000E-03 0.  1.
    9900012    2    1    2    0    0 -0.13065116995E+02  0.12711271075E+02  0.36344084353E+02  0.50528853896E+02  0.29999981902E+02 0.  0.
        -12    1    1    2    0    0  0.13065116995E+02 -0.12711271075E+02 -0.36344084353E+02  0.40659146104E+02  0.00000000000E+00 0.  1.
         11    1    3    3    0    0 -0.13158545904E+02  0.97834990618E+01  0.60962425358E+01  0.17493666211E+02  0.51100000000E-03 0.  1.
        -11    1    3    3    0    0 -0.85689546601E+00 -0.25907693497E+01  0.25635865851E+02  0.25780689942E+02  0.51100000000E-03 0. -1.
         12    1    3    3    0    0  0.95032437471E+00  0.55185413629E+01  0.46119759662E+01  0.72544977431E+01  0.00000000000E+00 0. -1.
</event>
<event>
 7    1  0.9930326E-013  0.5052884E+02  0.7816164E-02  0.1300439E+00
        -11   -1    0    0    0    0  0.00000000000E+00  0.00000000000E+00  0.45593999997E+02  0.45594000000E+02  0.51100000000E-03 0.  1.
         11   -1    0    0    0    0 -0.00000000000E+00 -0.00000000000E+00 -0.45593999997E+02  0.45594000000E+02  0.51100000000E-03 0. -1.
    9900012    2    1    2    0    0 -0.19684327885E+02 -0.54540561287E+01 -0.35156044902E+02  0.50528843766E+02  0.29999951110E+02 0.  0.
        -12    1    1    2    0    0  0.19684327885E+02  0.54540561287E+01  0.35156044902E+02  0.40659156234E+02  0.00000000000E+00 0.  1.
         11    1    3    3    0    0  0.66823615033E+01 -0.34589489461E+01 -0.62878037777E+01  0.98058533377E+01  0.51100000000E-03 0. -1.
        -11    1    3    3    0    0 -0.21192206601E+02  0.29025091096E+01 -0.23673023056E+02  0.31905269167E+02  0.51100000000E-03 0.  1.
        -12    1    3    3    0    0 -0.51744827873E+01 -0.48976162922E+01 -0.51952180686E+01  0.88177212613E+01  0.00000000000E+00 0.  1.
</event>
<event>
 7    1  0.9930326E-013  0.5052885E+02  0.7816164E-02  0.1300439E+00
        -11   -1    0    0    0    0  0.00000000000E+00  0.00000000000E+00  0.45593999997E+02  0.45594000000E+02  0.51100000000E-03 0.  1.
         11   -1    0    0    0    0 -0.00000000000E+00 -0.00000000000E+00 -0.45593999997E+02  0.45594000000E+02  0.51100000000E-03 0. -1.
    9900012    2    1    2    0    0 -0.33936605605E+02  0.45187578134E+00 -0.22389033551E+02  0.50528853242E+02  0.29999979916E+02 0.  0.
        -12    1    1    2    0    0  0.33936605605E+02 -0.45187578134E+00  0.22389033551E+02  0.40659146758E+02  0.00000000000E+00 0.  1.
         11    1    3    3    0    0 -0.34177558815E+02  0.50938132718E+01 -0.18584577717E+02  0.39235685152E+02  0.51100000000E-03 0. -1.
        -11    1    3    3    0    0  0.66202993282E+00  0.29510487049E+01 -0.94335176299E+00  0.31681043071E+01  0.51100000000E-03 0.  1.
         12    1    3    3    0    0 -0.42107672238E+00 -0.75929861953E+01 -0.28611040716E+01  0.81250637829E+01  0.00000000000E+00 0. -1.
</event>
<event>
 7    1  0.9930326E-013  0.5052887E+02  0.7816164E-02  0.1300439E+00
        -11   -1    0    0    0    0  0.00000000000E+00  0.00000000000E+00  0.45593999997E+02  0.45594000000E+02  0.51100000000E-03 0.  1.
         11   -1    0    0    0    0 -0.00000000000E+00 -0.00000000000E+00 -0.45593999997E+02  0.45594000000E+02  0.51100000000E-03 0. -1.
    9900012    2    1    2    0    0  0.11804958130E+02  0.29785909077E+02 -0.25032133066E+02  0.50528866933E+02  0.30000021529E+02 0.  0.
        -12    1    1    2    0    0 -0.11804958130E+02 -0.29785909077E+02  0.25032133066E+02  0.40659133067E+02  0.00000000000E+00 0.  1.
         11    1    3    3    0    0 -0.14953349889E+01  0.16051377815E+02 -0.26226027911E+02  0.30784530152E+02  0.51100000000E-03 0. -1.
        -11    1    3    3    0    0  0.10145631594E+01  0.29932218796E+01  0.13190350669E+01  0.34246998984E+01  0.51100000000E-03 0.  1.
         12    1    3    3    0    0  0.12285729959E+02  0.10741309382E+02 -0.12514022196E+00  0.16319636882E+02  0.00000000000E+00 0. -1.
</event>
<event>
 7    1  0.9930326E-013  0.5052886E+02  0.7816164E-02  0.1300439E+00
        -11   -1    0    0    0    0  0.00000000000E+00  0.00000000000E+00  0.45593999997E+02  0.45594000000E+02  0.51100000000E-03 0.  1.
         11   -1    0    0    0    0 -0.00000000000E+00 -0.00000000000E+00 -0.45593999997E+02  0.45594000000E+02  0.51100000000E-03 0. -1.
    9900012    2    1    2    0    0  0.27820147315E+02  0.95552252174E+01 -0.28069601486E+02  0.50528862612E+02  0.30000008394E+02 0.  0.
        -12    1    1    2    0    0 -0.27820147315E+02 -0.95552252174E+01  0.28069601486E+02  0.40659137388E+02  0.00000000000E+00 0.  1.
         11    1    3    3    0    0  0.21425165470E+02  0.66905622716E+01 -0.21981354812E+02  0.31416258507E+02  0.51100000000E-03 0. -1.
        -11    1    3    3    0    0 -0.18946985966E+01 -0.17373150487E+01  0.43239119064E+01  0.50303440027E+01  0.51100000000E-03 0.  1.
        -12    1    3    3    0    0  0.82896804422E+01  0.46019779945E+01 -0.10412158580E+02  0.14082260102E+02  0.00000000000E+00 0.  1.
</event>
<event>
 7    1  0.9930326E-013  0.5052886E+02  0.7816164E-02  0.1300439E+00
        -11   -1    0    0    0    0  0.00000000000E+00  0.00000000000E+00  0.45593999997E+02  0.45594000000E+02  0.51100000000E-03 0.  1.
         11   -1    0    0    0    0 -0.00000000000E+00 -0.00000000000E+00 -0.45593999997E+02  0.45594000000E+02  0.51100000000E-03 0. -1.
    9900012    2    1    2    0    0  0.26028656389E+02 -0.29785486087E+02 -0.94074373245E+01  0.50528855741E+02  0.29999987510E+02 0.  0.
        -12    1    1    2    0    0 -0.26028656389E+02  0.29785486087E+02  0.94074373245E+01  0.40659144259E+02  0.00000000000E+00 0.  1.
         11    1    3    3    0    0  0.28981830880E+02 -0.25697356090E+02 -0.12755126657E+02  0.40779822063E+02  0.51100000000E-03 0. -1.
        -11    1    3    3    0    0  0.14208365525E+01  0.13314605433E+01  0.17172588257E+01  0.25962553462E+01  0.51100000000E-03 0.  1.
         12    1    3    3    0    0 -0.43740110434E+01 -0.54195905402E+01  0.16304305064E+01  0.71527783321E+01  0.00000000000E+00 0. -1.
</event>
<event>
 7    1  0.9930326E-013  0.5052885E+02  0.7816164E-02  0.1300439E+00
        -11   -1    0    0    0    0  0.00000000000E+00  0.00000000000E+00  0.45593999997E+02  0.45594000000E+02  0.51100000000E-03 0.  1.
         11   -1    0    0    0    0 -0.00000000000E+00 -0.00000000000E+00 -0.45593999997E+02  0.45594000000E+02  0.51100000000E-03 0. -1.
    9900012    2    1    2    0    0 -0.13261180798E+02  0.16206486295E+02 -0.34851930901E+02  0.50528853407E+02  0.29999980415E+02 0.  0.
        -12    1    1    2    0    0  0.13261180798E+02 -0.16206486295E+02  0.34851930901E+02  0.40659146593E+02  0.00000000000E+00 0.  1.
         11    1    3    3    0    0 -0.77446636099E+01 -0.70969608754E-01 -0.12322492438E+02  0.14554335137E+02  0.51100000000E-03 0. -1.
        -11    1    3    3    0    0 -0.10029084261E+01  0.21669765517E+01  0.45324000370E+01  0.51229154827E+01  0.51100000000E-03 0.  1.
        -12    1    3    3    0    0 -0.45136087625E+01  0.14110479352E+02 -0.27061838499E+02  0.30851602787E+02  0.00000000000E+00 0.  1.
</event>
<event>
 7    1  0.9930326E-013  0.5052887E+02  0.7816164E-02  0.1300439E+00
        -11   -1    0    0    0    0  0.00000000000E+00  0.00000000000E+00  0.45593999997E+02  0.45594000000E+02  0.51100000000E-03 0.  1.
         11   -1    0    0    0    0 -0.00000000000E+00 -0.00000000000E+00 -0.45593999997E+02  0.45594000000E+02  0.51100000000E-03 0. -1.
    9900012    2    1    2    0    0 -0.14157652338E+02  0.20669192514E+02 -0.32023586792E+02  0.50528871260E+02  0.30000034682E+02 0.  0.
        -12    1    1    2    0    0  0.14157652338E+02 -0.20669192514E+02  0.32023586792E+02  0.40659128740E+02  0.00000000000E+00 0.  1.
         11    1    3    3    0    0  0.56440523412E+01  0.39637349011E+01 -0.27334534490E+01  0.74187794963E+01  0.51100000000E-03 0. -1.
        -11    1    3    3    0    0 -0.19734005957E+02  0.16469142702E+02 -0.16998020804E+02  0.30815521478E+02  0.51100000000E-03 0.  1.
         12    1    3    3    0    0 -0.67698722224E-01  0.23631491082E+00 -0.12292112539E+02  0.12294570286E+02  0.00000000000E+00 0. -1.
</event>
<event>
 7    1  0.1010532E-012  0.5052890E+02  0.7816164E-02  0.1300439E+00
        -11   -1    0    0    0    0  0.00000000000E+00  0.00000000000E+00  0.45593999997E+02  0.45594000000E+02  0.51100000000E-03 0. -1.
         11   -1    0    0    0    0 -0.00000000000E+00 -0.00000000000E+00 -0.45593999997E+02  0.45594000000E+02  0.51100000000E-03 0.  1.
    9900012    2    1    2    0    0 -0.37174307680E+02  0.10805130121E+02  0.12429090303E+02  0.50528901704E+02  0.30000127221E+02 0.  0.
        -12    1    1    2    0    0  0.37174307680E+02 -0.10805130121E+02 -0.12429090303E+02  0.40659098296E+02  0.00000000000E+00 0.  1.
         11    1    3    3    0    0 -0.27168051006E+02  0.12548365013E+02  0.55325394940E+01  0.30433097994E+02  0.51100000000E-03 0. -1.
        -11    1    3    3    0    0 -0.10352070076E+02 -0.55803842268E+01  0.97703065599E+01  0.15289373222E+02  0.51100000000E-03 0.  1.
        -12    1    3    3    0    0  0.34581340267E+00  0.38371493349E+01 -0.28737557505E+01  0.48064304885E+01  0.00000000000E+00 0.  1.
</event>
<event>
 7    1  0.9930326E-013  0.5052889E+02  0.7816164E-02  0.1300439E+00
        -11   -1    0    0    0    0  0.00000000000E+00  0.00000000000E+00  0.45593999997E+02  0.45594000000E+02  0.51100000000E-03 0. -1.
         11   -1    0    0    0    0 -0.00000000000E+00 -0.00000000000E+00 -0.45593999997E+02  0.45594000000E+02  0.51100000000E-03 0.  1.
    9900012    2    1    2    0    0 -0.24061168131E+02 -0.13650375199E+02  0.29797492002E+02  0.50528891740E+02  0.30000096932E+02 0.  0.
        -12    1    1    2    0    0  0.24061168131E+02  0.13650375199E+02 -0.29797492002E+02  0.40659108260E+02  0.00000000000E+00 0.  1.
         11    1    3    3    0    0 -0.97440741887E+00 -0.10892574721E+01  0.81177121731E+01  0.82482242237E+01  0.51100000000E-03 0. -1.
        -11    1    3    3    0    0 -0.26771958799E+02 -0.81156241158E+01  0.10845689079E+02  0.30003834831E+02  0.51100000000E-03 0.  1.
        -12    1    3    3    0    0  0.36851980870E+01 -0.44454936114E+01  0.10834090750E+02  0.12276832685E+02  0.00000000000E+00 0.  1.
</event>
<event>
 7    1  0.9930326E-013  0.5052886E+02  0.7816164E-02  0.1300439E+00
        -11   -1    0    0    0    0  0.00000000000E+00  0.00000000000E+00  0.45593999997E+02  0.45594000000E+02  0.51100000000E-03 0.  1.
         11   -1    0    0    0    0 -0.00000000000E+00 -0.00000000000E+00 -0.45593999997E+02  0.45594000000E+02  0.51100000000E-03 0. -1.
    9900012    2    1    2    0    0 -0.10133120567E+02 -0.16542528771E+02 -0.35732764142E+02  0.50528858054E+02  0.29999994541E+02 0.  0.
        -12    1    1    2    0    0  0.10133120567E+02  0.16542528771E+02  0.35732764142E+02  0.40659141946E+02  0.00000000000E+00 0.  1.
         11    1    3    3    0    0  0.65789720399E+01  0.24910676441E+01 -0.42381678840E+01  0.82128167143E+01  0.51100000000E-03 0. -1.
        -11    1    3    3    0    0 -0.18345457144E+02 -0.14876345661E+02 -0.28087221860E+02  0.36698140145E+02  0.51100000000E-03 0.  1.
        -12    1    3    3    0    0  0.16333645371E+01 -0.41572507538E+01 -0.34073743980E+01  0.56179011943E+01  0.00000000000E+00 0.  1.
</event>
<event>
 7    1  0.9930326E-013  0.5052886E+02  0.7816164E-02  0.1300439E+00
        -11   -1    0    0    0    0  0.00000000000E+00  0.00000000000E+00  0.45593999997E+02  0.45594000000E+02  0.51100000000E-03 0.  1.
         11   -1    0    0    0    0 -0.00000000000E+00 -0.00000000000E+00 -0.45593999997E+02  0.45594000000E+02  0.51100000000E-03 0. -1.
    9900012    2    1    2    0    0 -0.35188789201E+02  0.53795593955E+01 -0.19646257252E+02  0.50528856271E+02  0.29999989123E+02 0.  0.
        -12    1    1    2    0    0  0.35188789201E+02 -0.53795593955E+01  0.19646257252E+02  0.40659143729E+02  0.00000000000E+00 0.  1.
         11    1    3    3    0    0 -0.70694224708E+01  0.89437018098E+01 -0.45650665545E+01  0.12280324468E+02  0.51100000000E-03 0. -1.
        -11    1    3    3    0    0 -0.50243972542E+01 -0.99632620382E+01 -0.41073840106E+01  0.11890406296E+02  0.51100000000E-03 0.  1.
        -12    1    3    3    0    0 -0.23094969476E+02  0.63991196239E+01 -0.10973806686E+02  0.26358125507E+02  0.00000000000E+00 0.  1.
</event>
<event>
 7    1  0.9930326E-013  0.5052887E+02  0.7816164E-02  0.1300439E+00
        -11   -1    0    0    0    0  0.00000000000E+00  0.00000000000E+00  0.45593999997E+02  0.45594000000E+02  0.51100000000E-03 0. -1.
         11   -1    0    0    0    0 -0.00000000000E+00 -0.00000000000E+00 -0.45593999997E+02  0.45594000000E+02  0.51100000000E-03 0.  1.
    9900012    2    1    2    0    0  0.11809908313E+02  0.37444476496E+02  0.10564208307E+02  0.50528865090E+02  0.30000015928E+02 0.  0.
        -12    1    1    2    0    0 -0.11809908313E+02 -0.37444476496E+02 -0.10564208307E+02  0.40659134910E+02  0.00000000000E+00 0.  1.
         11    1    3    3    0    0  0.35251975205E+01  0.18224243224E+02 -0.48954641615E+01  0.19196760879E+02  0.51100000000E-03 0. -1.
        -11    1    3    3    0    0  0.13792853558E+02  0.13764964406E+02  0.11506040162E+02  0.22629759495E+02  0.51100000000E-03 0.  1.
        -12    1    3    3    0    0 -0.55081427649E+01  0.54552688668E+01  0.39536323072E+01  0.87023447155E+01  0.00000000000E+00 0.  1.
</event>
<event>
 7    1  0.9930326E-013  0.5052886E+02  0.7816164E-02  0.1300439E+00
        -11   -1    0    0    0    0  0.00000000000E+00  0.00000000000E+00  0.45593999997E+02  0.45594000000E+02  0.51100000000E-03 0.  1.
         11   -1    0    0    0    0 -0.00000000000E+00 -0.00000000000E+00 -0.45593999997E+02  0.45594000000E+02  0.51100000000E-03 0. -1.
    9900012    2    1    2    0    0  0.28758668890E+02  0.26120180121E+02 -0.11993349889E+02  0.50528864649E+02  0.30000014588E+02 0.  0.
        -12    1    1    2    0    0 -0.28758668890E+02 -0.26120180121E+02  0.11993349889E+02  0.40659135351E+02  0.00000000000E+00 0.  1.
         11    1    3    3    0    0  0.13470917945E+01  0.66634139437E+01 -0.87038383197E+01  0.11044118047E+02  0.51100000000E-03 0. -1.
        -11    1    3    3    0    0  0.15976152384E+02  0.77710913788E+01  0.81338775110E+01  0.19539377417E+02  0.51100000000E-03 0.  1.
        -12    1    3    3    0    0  0.11435424711E+02  0.11685674799E+02 -0.11423389081E+02  0.19945369185E+02  0.00000000000E+00 0.  1.
</event>
<event>
 7    1  0.9930326E-013  0.5052889E+02  0.7816164E-02  0.1300439E+00
        -11   -1    0    0    0    0  0.00000000000E+00  0.00000000000E+00  0.45593999997E+02  0.45594000000E+02  0.51100000000E-03 0.  1.
         11   -1    0    0    0    0 -0.00000000000E+00 -0.00000000000E+00 -0.45593999997E+02  0.45594000000E+02  0.51100000000E-03 0. -1.
    9900012    2    1    2    0    0  0.76944744051E+01  0.12686615331E+02 -0.37855094640E+02  0.50528888658E+02  0.30000087565E+02 0.  0.
        -12    1    1    2    0    0 -0.76944744051E+01 -0.12686615331E+02  0.37855094640E+02  0.40659111342E+02  0.00000000000E+00 0.  1.
         11    1    3    3    0    0  0.20659279959E+01 -0.51428357612E+00 -0.32342002483E+02  0.32411998873E+02  0.51100000000E-03 0. -1.
        -11    1    3    3    0    0  0.28386275267E+01  0.78408694514E+01  0.19004224274E+01  0.85526981504E+01  0.51100000000E-03 0.  1.
        -12    1    3    3    0    0  0.27899188826E+01  0.53600294554E+01 -0.74135145839E+01  0.95641916344E+01  0.00000000000E+00 0.  1.
</event>
<event>
 7    1  0.9930326E-013  0.5052886E+02  0.7816164E-02  0.1300439E+00
        -11   -1    0    0    0    0  0.00000000000E+00  0.00000000000E+00  0.45593999997E+02  0.45594000000E+02  0.51100000000E-03 0.  1.
         11   -1    0    0    0    0 -0.00000000000E+00 -0.00000000000E+00 -0.45593999997E+02  0.45594000000E+02  0.51100000000E-03 0. -1.
    9900012    2    1    2    0    0  0.22253678932E+02 -0.26452297497E+02 -0.21405969762E+02  0.50528858219E+02  0.29999995043E+02 0.  0.
        -12    1    1    2    0    0 -0.22253678932E+02  0.26452297497E+02  0.21405969762E+02  0.40659141781E+02  0.00000000000E+00 0.  1.
         11    1    3    3    0    0  0.85128842336E+00 -0.65896390884E+01 -0.43238237242E+01  0.79273884195E+01  0.51100000000E-03 0. -1.
        -11    1    3    3    0    0  0.16055696274E+02  0.20923262096E+01 -0.48278302334E+01  0.16895891715E+02  0.51100000000E-03 0.  1.
        -12    1    3    3    0    0  0.53466942346E+01 -0.21954984618E+02 -0.12254315805E+02  0.25705578085E+02  0.00000000000E+00 0.  1.
</event>
<event>
 7    1  0.9930326E-013  0.5052885E+02  0.7816164E-02  0.1300439E+00
        -11   -1    0    0    0    0  0.00000000000E+00  0.00000000000E+00  0.45593999997E+02  0.45594000000E+02  0.51100000000E-03 0.  1.
         11   -1    0    0    0    0 -0.00000000000E+00 -0.00000000000E+00 -0.45593999997E+02  0.45594000000E+02  0.51100000000E-03 0. -1.
    9900012    2    1    2    0    0 -0.30552672294E+02 -0.18811803188E+02 -0.19126346012E+02  0.50528845615E+02  0.29999956732E+02 0.  0.
        -12    1    1    2    0    0  0.30552672294E+02  0.18811803188E+02  0.19126346012E+02  0.40659154385E+02  0.00000000000E+00 0.  1.
         11    1    3    3    0    0 -0.20512956160E+01 -0.52468122712E+01  0.23052632184E+01  0.60869607754E+01  0.51100000000E-03 0. -1.
        -11    1    3    3    0    0 -0.17963773919E+02 -0.89391490978E+00 -0.21409304011E+02  0.27961662250E+02  0.51100000000E-03 0.  1.
        -12    1    3    3    0    0 -0.10537602759E+02 -0.12671076007E+02 -0.22305219211E-01  0.16480222590E+02  0.00000000000E+00 0.  1.
</event>
<event>
 7    1  0.9930326E-013  0.5052886E+02  0.7816164E-02  0.1300439E+00
        -11   -1    0    0    0    0  0.00000000000E+00  0.00000000000E+00  0.45593999997E+02  0.45594000000E+02  0.51100000000E-03 0.  1.
         11   -1    0    0    0    0 -0.00000000000E+00 -0.00000000000E+00 -0.45593999997E+02  0.45594000000E+02  0.51100000000E-03 0. -1.
    9900012    2    1    2    0    0  0.79398504646E+01  0.15356962244E+02 -0.36800653466E+02  0.50528860680E+02  0.30000002522E+02 0.  0.
        -12    1    1    2    0    0 -0.79398504646E+01 -0.15356962244E+02  0.36800653466E+02  0.40659139320E+02  0.00000000000E+00 0.  1.
         11    1    3    3    0    0 -0.28270844005E+01  0.15042270114E+02 -0.24560875024E+02  0.28939572882E+02  0.51100000000E-03 0. -1.
        -11    1    3    3    0    0  0.51044414762E+01  0.16198651124E+01  0.23774837290E+01  0.58593271720E+01  0.51100000000E-03 0.  1.
         12    1    3    3    0    0  0.56624933889E+01 -0.13051729829E+01 -0.14617262171E+02  0.15729960626E+02  0.00000000000E+00 0. -1.
</event>
<event>
 7    1  0.9930326E-013  0.5052886E+02  0.7816164E-02  0.1300439E+00
        -11   -1    0    0    0    0  0.00000000000E+00  0.00000000000E+00  0.45593999997E+02  0.45594000000E+02  0.51100000000E-03 0.  1.
         11   -1    0    0    0    0 -0.00000000000E+00 -0.00000000000E+00 -0.45593999997E+02  0.45594000000E+02  0.51100000000E-03 0. -1.
    9900012    2    1    2    0    0 -0.15618276766E+02 -0.23156648787E+02 -0.29546654511E+02  0.50528859023E+02  0.29999997486E+02 0.  0.
        -12    1    1    2    0    0  0.15618276766E+02  0.23156648787E+02  0.29546654511E+02  0.40659140977E+02  0.00000000000E+00 0.  1.
         11    1    3    3    0    0 -0.15994196972E+02 -0.24111028767E+02 -0.12374093461E+02  0.31468623012E+02  0.51100000000E-03 0. -1.
        -11    1    3    3    0    0  0.35115745461E+01 -0.96269967873E+00 -0.41119457280E+01  0.54923623693E+01  0.51100000000E-03 0.  1.
         12    1    3    3    0    0 -0.31356543397E+01  0.19170796589E+01 -0.13060615323E+02  0.13567873642E+02  0.00000000000E+00 0. -1.
</event>
<event>
 7    1  0.9930326E-013  0.5052887E+02  0.7816164E-02  0.1300439E+00
        -11   -1    0    0    0    0  0.00000000000E+00  0.00000000000E+00  0.45593999997E+02  0.45594000000E+02  0.51100000000E-03 0. -1.
         11   -1    0    0    0    0 -0.00000000000E+00 -0.00000000000E+00 -0.45593999997E+02  0.45594000000E+02  0.51100000000E-03 0.  1.
    9900012    2    1    2    0    0 -0.16697891796E+02 -0.27691288475E+02  0.24648273840E+02  0.50528874934E+02  0.30000045850E+02 0.  0.
        -12    1    1    2    0    0  0.16697891796E+02  0.27691288475E+02 -0.24648273840E+02  0.40659125066E+02  0.00000000000E+00 0.  1.
         11    1    3    3    0    0 -0.42243679454E+01 -0.51809117183E+01 -0.25798450588E+01  0.71653842576E+01  0.51100000000E-03 0. -1.
        -11    1    3    3    0    0  0.48822451799E+01 -0.55502372470E+01  0.13734986997E+02  0.15597798549E+02  0.51100000000E-03 0.  1.
        -12    1    3    3    0    0 -0.17355769030E+02 -0.16960139509E+02  0.13493131902E+02  0.27765692128E+02  0.00000000000E+00 0.  1.
</event>
<event>
 7    1  0.9930326E-013  0.5052884E+02  0.7816164E-02  0.1300439E+00
        -11   -1    0    0    0    0  0.00000000000E+00  0.00000000000E+00  0.45593999997E+02  0.45594000000E+02  0.51100000000E-03 0.  1.
         11   -1    0    0    0    0 -0.00000000000E+00 -0.00000000000E+00 -0.45593999997E+02  0.45594000000E+02  0.51100000000E-03 0. -1.
    9900012    2    1    2    0    0  0.23788777561E+02  0.27086031760E+02 -0.18804477577E+02  0.50528838286E+02  0.29999934454E+02 0.  0.
        -12    1    1    2    0    0 -0.23788777561E+02 -0.27086031760E+02  0.18804477577E+02  0.40659161714E+02  0.00000000000E+00 0.  1.
         11    1    3    3    0    0  0.93697326036E+01  0.45423034943E+01 -0.14607936657E+02  0.17939236989E+02  0.51100000000E-03 0. -1.
        -11    1    3    3    0    0  0.16189790513E+02  0.22916928031E+02 -0.42836043714E-01  0.28058808642E+02  0.51100000000E-03 0.  1.
         12    1    3    3    0    0 -0.17707455562E+01 -0.37319976470E+00 -0.41537048757E+01  0.45307926551E+01  0.00000000000E+00 0. -1.
</event>
<event>
 7    1  0.9930326E-013  0.5052886E+02  0.7816164E-02  0.1300439E+00
        -11   -1    0    0    0    0  0.00000000000E+00  0.00000000000E+00  0.45593999997E+02  0.45594000000E+02  0.51100000000E-03 0.  1.
         11   -1    0    0    0    0 -0.00000000000E+00 -0.00000000000E+00 -0.45593999997E+02  0.45594000000E+02  0.51100000000E-03 0. -1.
    9900012    2    1    2    0    0 -0.33729604779E+02 -0.22522756161E+02  0.28644097182E+01  0.50528860478E+02  0.30000001910E+02 0.  0.
        -12    1    1    2    0    0  0.33729604779E+02  0.22522756161E+02 -0.28644097182E+01  0.40659139522E+02  0.00000000000E+00 0.  1.
         11    1    3    3    0    0 -0.28661267979E+02 -0.26466765389E+02 -0.27881695672E+00  0.39013275836E+02  0.51100000000E-03 0. -1.
        -11    1    3    3    0    0 -0.69165042781E+01  0.47471060945E+01  0.40387371770E+01  0.93104482141E+01  0.51100000000E-03 0.  1.
         12    1    3    3    0    0  0.18481674785E+01 -0.80309686629E+00 -0.89551050213E+00  0.22051364276E+01  0.00000000000E+00 0. -1.
</event>
<event>
 7    1  0.9930326E-013  0.5052887E+02  0.7816164E-02  0.1300439E+00
        -11   -1    0    0    0    0  0.00000000000E+00  0.00000000000E+00  0.45593999997E+02  0.45594000000E+02  0.51100000000E-03 0. -1.
         11   -1    0    0    0    0 -0.00000000000E+00 -0.00000000000E+00 -0.45593999997E+02  0.45594000000E+02  0.51100000000E-03 0.  1.
    9900012    2    1    2    0    0  0.19919057291E+02  0.18052331812E+02  0.30504257425E+02  0.50528865131E+02  0.30000016053E+02 0.  0.
        -12    1    1    2    0    0 -0.19919057291E+02 -0.18052331812E+02 -0.30504257425E+02  0.40659134869E+02  0.00000000000E+00 0.  1.
         11    1    3    3    0    0  0.10902662059E+02 -0.68881127213E+00  0.13072847646E+02  0.17036485752E+02  0.51100000000E-03 0. -1.
        -11    1    3    3    0    0 -0.46773140100E+01  0.40210850102E+01  0.10590313142E+02  0.12255656804E+02  0.51100000000E-03 0.  1.
        -12    1    3    3    0    0  0.13693709243E+02  0.14720058074E+02  0.68410966373E+01  0.21236722575E+02  0.00000000000E+00 0.  1.
</event>
<event>
 7    1  0.9930326E-013  0.5052886E+02  0.7816164E-02  0.1300439E+00
        -11   -1    0    0    0    0  0.00000000000E+00  0.00000000000E+00  0.45593999997E+02  0.45594000000E+02  0.51100000000E-03 0. -1.
         11   -1    0    0    0    0 -0.00000000000E+00 -0.00000000000E+00 -0.45593999997E+02  0.45594000000E+02  0.51100000000E-03 0.  1.
    9900012    2    1    2    0    0 -0.98954737943E+01  0.21212844343E+02  0.33245455406E+02  0.50528862382E+02  0.30000007695E+02 0.  0.
        -12    1    1    2    0    0  0.98954737943E+01 -0.21212844343E+02 -0.33245455406E+02  0.40659137618E+02  0.00000000000E+00 0.  1.
         11    1    3    3    0    0 -0.52932957613E+00  0.14164388600E+02  0.24775420604E+02  0.28543502949E+02  0.51100000000E-03 0. -1.
        -11    1    3    3    0    0 -0.12008717960E+02  0.84133718367E+01  0.10796954792E+02  0.18209018802E+02  0.51100000000E-03 0.  1.
         12    1    3    3    0    0  0.26425737415E+01 -0.13649160935E+01 -0.23269199898E+01  0.37763406309E+01  0.00000000000E+00 0. -1.
</event>
<event>
 7    1  0.9930326E-013  0.5052886E+02  0.7816164E-02  0.1300439E+00
        -11   -1    0    0    0    0  0.00000000000E+00  0.00000000000E+00  0.45593999997E+02  0.45594000000E+02  0.51100000000E-03 0.  1.
         11   -1    0    0    0    0 -0.00000000000E+00 -0.00000000000E+00 -0.45593999997E+02  0.45594000000E+02  0.51100000000E-03 0. -1.
    9900012    2    1    2    0    0  0.10513283428E+02 -0.22511829748E+01 -0.39211848393E+02  0.50528855793E+02  0.29999987669E+02 0.  0.
        -12    1    1    2    0    0 -0.10513283428E+02  0.22511829748E+01  0.39211848393E+02  0.40659144207E+02  0.00000000000E+00 0.  1.
         11    1    3    3    0    0  0.60143163753E+01  0.37770605158E+01 -0.32319855122E+02  0.33090953794E+02  0.51100000000E-03 0. -1.
        -11    1    3    3    0    0  0.50180607031E+01 -0.99351265909E+01 -0.75397749047E+01  0.13443804501E+02  0.51100000000E-03 0.  1.
        -12    1    3    3    0    0 -0.51909365077E+00  0.39068831003E+01  0.64778163365E+00  0.39940974979E+01  0.00000000000E+00 0.  1.
</event>
<event>
 7    1  0.9930326E-013  0.5052886E+02  0.7816164E-02  0.1300439E+00
        -11   -1    0    0    0    0  0.00000000000E+00  0.00000000000E+00  0.45593999997E+02  0.45594000000E+02  0.51100000000E-03 0.  1.
         11   -1    0    0    0    0 -0.00000000000E+00 -0.00000000000E+00 -0.45593999997E+02  0.45594000000E+02  0.51100000000E-03 0. -1.
    9900012    2    1    2    0    0  0.38839575430E+02  0.38840743317E+01  0.11382754798E+02  0.50528858841E+02  0.29999996933E+02 0.  0.
        -12    1    1    2    0    0 -0.38839575430E+02 -0.38840743317E+01 -0.11382754798E+02  0.40659141159E+02  0.00000000000E+00 0.  1.
         11    1    3    3    0    0  0.18409508516E+02  0.11274409918E+02  0.14301250650E+02  0.25894943390E+02  0.51100000000E-03 0. -1.
        -11    1    3    3    0    0  0.35463490842E+01 -0.63180629318E+01  0.86947736334E+00  0.72972941687E+01  0.51100000000E-03 0.  1.
         12    1    3    3    0    0  0.16883717830E+02 -0.10722726540E+01 -0.37879732146E+01  0.17336621282E+02  0.00000000000E+00 0. -1.
</event>
<event>
 7    1  0.9930326E-013  0.5052886E+02  0.7816164E-02  0.1300439E+00
        -11   -1    0    0    0    0  0.00000000000E+00  0.00000000000E+00  0.45593999997E+02  0.45594000000E+02  0.51100000000E-03 0.  1.
         11   -1    0    0    0    0 -0.00000000000E+00 -0.00000000000E+00 -0.45593999997E+02  0.45594000000E+02  0.51100000000E-03 0. -1.
    9900012    2    1    2    0    0 -0.86473623884E+00 -0.38586916673E+02 -0.12785448751E+02  0.50528860722E+02  0.30000002649E+02 0.  0.
        -12    1    1    2    0    0  0.86473623884E+00  0.38586916673E+02  0.12785448751E+02  0.40659139278E+02  0.00000000000E+00 0.  1.
         11    1    3    3    0    0  0.10555164339E+01 -0.24516195097E+02 -0.76036469404E+01  0.25689947139E+02  0.51100000000E-03 0. -1.
        -11    1    3    3    0    0 -0.10091501134E+02 -0.97031948969E+01 -0.65797821673E+01  0.15468804736E+02  0.51100000000E-03 0.  1.
        -12    1    3    3    0    0  0.81712484610E+01 -0.43675266795E+01  0.13979803565E+01  0.93701088460E+01  0.00000000000E+00 0.  1.
</event>
<event>
 7    1  0.9930326E-013  0.5052886E+02  0.7816164E-02  0.1300439E+00
        -11   -1    0    0    0    0  0.00000000000E+00  0.00000000000E+00  0.45593999997E+02  0.45594000000E+02  0.51100000000E-03 0.  1.
         11   -1    0    0    0    0 -0.00000000000E+00 -0.00000000000E+00 -0.45593999997E+02  0.45594000000E+02  0.51100000000E-03 0. -1.
    9900012    2    1    2    0    0 -0.30973509938E+02  0.19401116548E+02 -0.17815836278E+02  0.50528860025E+02  0.30000000533E+02 0.  0.
        -12    1    1    2    0    0  0.30973509938E+02 -0.19401116548E+02  0.17815836278E+02  0.40659139975E+02  0.00000000000E+00 0.  1.
         11    1    3    3    0    0  0.43370481921E+01  0.33169568118E+01 -0.65542988280E+01  0.85305933498E+01  0.51100000000E-03 0. -1.
        -11    1    3    3    0    0 -0.31318124560E+02  0.11697698045E+02 -0.12917306051E+02  0.35840171057E+02  0.51100000000E-03 0.  1.
        -12    1    3    3    0    0 -0.39924335703E+01  0.43864616912E+01  0.16557686016E+01  0.61580956182E+01  0.00000000000E+00 0.  1.
</event>
<event>
 7    1  0.9930326E-013  0.5052886E+02  0.7816164E-02  0.1300439E+00
        -11   -1    0    0    0    0  0.00000000000E+00  0.00000000000E+00  0.45593999997E+02  0.45594000000E+02  0.51100000000E-03 0.  1.
         11   -1    0    0    0    0 -0.00000000000E+00 -0.00000000000E+00 -0.45593999997E+02  0.45594000000E+02  0.51100000000E-03 0. -1.
    9900012    2    1    2    0    0 -0.24988758762E+02 -0.25605785343E+02  0.19315057739E+02  0.50528858802E+02  0.29999996813E+02 0.  0.
        -12    1    1    2    0    0  0.24988758762E+02  0.25605785343E+02 -0.19315057739E+02  0.40659141198E+02  0.00000000000E+00 0.  1.
         11    1    3    3    0    0  0.59149452538E+00 -0.90661927775E+01 -0.44893372521E+01  0.10134094260E+02  0.51100000000E-03 0. -1.
        -11    1    3    3    0    0 -0.93478387944E+01 -0.66679831732E+01  0.16365619016E+02  0.19991937769E+02  0.51100000000E-03 0.  1.
        -12    1    3    3    0    0 -0.16232414493E+02 -0.98716093928E+01  0.74387759750E+01  0.20402826772E+02  0.00000000000E+00 0.  1.
</event>
<event>
 7    1  0.9930326E-013  0.5052886E+02  0.7816164E-02  0.1300439E+00
        -11   -1    0    0    0    0  0.00000000000E+00  0.00000000000E+00  0.45593999997E+02  0.45594000000E+02  0.51100000000E-03 0.  1.
         11   -1    0    0    0    0 -0.00000000000E+00 -0.00000000000E+00 -0.45593999997E+02  0.45594000000E+02  0.51100000000E-03 0. -1.
    9900012    2    1    2    0    0  0.36210734524E+02 -0.18443815746E+02  0.13320699194E+01  0.50528855342E+02  0.29999986299E+02 0.  0.
        -12    1    1    2    0    0 -0.36210734524E+02  0.18443815746E+02 -0.13320699194E+01  0.40659144658E+02  0.00000000000E+00 0.  1.
         11    1    3    3    0    0  0.15259828170E+02  0.53455444831E+01 -0.26250704279E+01  0.16380726376E+02  0.51100000000E-03 0.  1.
        -11    1    3    3    0    0  0.12637949291E+02 -0.10998032368E+02  0.77034872786E+01  0.18439582283E+02  0.51100000000E-03 0. -1.
        -12    1    3    3    0    0  0.83129570623E+01 -0.12791327861E+02 -0.37463469313E+01  0.15708546683E+02  0.00000000000E+00 0.  1.
</event>
<event>
 7    1  0.9930326E-013  0.5052886E+02  0.7816164E-02  0.1300439E+00
        -11   -1    0    0    0    0  0.00000000000E+00  0.00000000000E+00  0.45593999997E+02  0.45594000000E+02  0.51100000000E-03 0.  1.
         11   -1    0    0    0    0 -0.00000000000E+00 -0.00000000000E+00 -0.45593999997E+02  0.45594000000E+02  0.51100000000E-03 0. -1.
    9900012    2    1    2    0    0 -0.24070568375E+02 -0.32116210951E+02  0.65055725217E+01  0.50528859064E+02  0.29999997612E+02 0.  0.
        -12    1    1    2    0    0  0.24070568375E+02  0.32116210951E+02 -0.65055725217E+01  0.40659140936E+02  0.00000000000E+00 0.  1.
         11    1    3    3    0    0 -0.24897924306E+02 -0.23941196205E+02  0.11930498990E+02  0.36543457922E+02  0.51100000000E-03 0. -1.
        -11    1    3    3    0    0 -0.12401974808E+01 -0.52473891523E+01 -0.79465183971E+01  0.96031420693E+01  0.51100000000E-03 0.  1.
        -12    1    3    3    0    0  0.20675534116E+01 -0.29276255937E+01  0.25215919290E+01  0.43822590730E+01  0.00000000000E+00 0.  1.
</event>
<event>
 7    1  0.9930326E-013  0.5052884E+02  0.7816164E-02  0.1300439E+00
        -11   -1    0    0    0    0  0.00000000000E+00  0.00000000000E+00  0.45593999997E+02  0.45594000000E+02  0.51100000000E-03 0. -1.
         11   -1    0    0    0    0 -0.00000000000E+00 -0.00000000000E+00 -0.45593999997E+02  0.45594000000E+02  0.51100000000E-03 0.  1.
    9900012    2    1    2    0    0  0.20877817988E+02  0.35277015265E+00  0.34887813970E+02  0.50528839970E+02  0.29999939573E+02 0.  0.
        -12    1    1    2    0    0 -0.20877817988E+02 -0.35277015265E+00 -0.34887813970E+02  0.40659160030E+02  0.00000000000E+00 0.  1.
         11    1    3    3    0    0 -0.17854869654E+01 -0.24345720569E+01 -0.28229646014E+01  0.41333079012E+01  0.51100000000E-03 0. -1.
        -11    1    3    3    0    0  0.19336852598E+02 -0.29253247334E+01  0.22506540432E+02  0.29816367245E+02  0.51100000000E-03 0.  1.
         12    1    3    3    0    0  0.33264523554E+01  0.57126669430E+01  0.15204238139E+02  0.16579164824E+02  0.00000000000E+00 0. -1.
</event>
<event>
 7    1  0.9930326E-013  0.5052878E+02  0.7816164E-02  0.1300439E+00
        -11   -1    0    0    0    0  0.00000000000E+00  0.00000000000E+00  0.45593999997E+02  0.45594000000E+02  0.51100000000E-03 0. -1.
         11   -1    0    0    0    0 -0.00000000000E+00 -0.00000000000E+00 -0.45593999997E+02  0.45594000000E+02  0.51100000000E-03 0.  1.
    9900012    2    1    2    0    0  0.32824477191E+02 -0.23776425771E+02 -0.32260259272E+01  0.50528782489E+02  0.29999764852E+02 0.  0.
        -12    1    1    2    0    0 -0.32824477191E+02  0.23776425771E+02  0.32260259272E+01  0.40659217511E+02  0.00000000000E+00 0.  1.
         11    1    3    3    0    0  0.17286687786E+02 -0.23153373949E+02  0.48768460517E+01  0.29303445659E+02  0.51100000000E-03 0. -1.
        -11    1    3    3    0    0  0.14337932090E+02 -0.51746594202E+00 -0.14003480969E+01  0.14415444588E+02  0.51100000000E-03 0.  1.
        -12    1    3    3    0    0  0.11998573156E+01 -0.10558588011E+00 -0.67025238820E+01  0.68098922417E+01  0.00000000000E+00 0.  1.
</event>
<event>
 7    1  0.9930326E-013  0.5052888E+02  0.7816164E-02  0.1300439E+00
        -11   -1    0    0    0    0  0.00000000000E+00  0.00000000000E+00  0.45593999997E+02  0.45594000000E+02  0.51100000000E-03 0. -1.
         11   -1    0    0    0    0 -0.00000000000E+00 -0.00000000000E+00 -0.45593999997E+02  0.45594000000E+02  0.51100000000E-03 0.  1.
    9900012    2    1    2    0    0 -0.12189767366E+02 -0.83901411289E+01  0.37870562963E+02  0.50528875123E+02  0.30000046424E+02 0.  0.
        -12    1    1    2    0    0  0.12189767366E+02  0.83901411289E+01 -0.37870562963E+02  0.40659124877E+02  0.00000000000E+00 0.  1.
         11    1    3    3    0    0 -0.51751340821E+01  0.66846328522E+00  0.24018092521E+02  0.24578397518E+02  0.51100000000E-03 0. -1.
        -11    1    3    3    0    0 -0.76394648494E+01 -0.79214536227E+01 -0.99177234412E+00  0.11049636344E+02  0.51100000000E-03 0.  1.
        -12    1    3    3    0    0  0.62483156582E+00 -0.11371507914E+01  0.14844242786E+02  0.14900841262E+02  0.00000000000E+00 0.  1.
</event>
<event>
 7    1  0.9930326E-013  0.5052887E+02  0.7816164E-02  0.1300439E+00
        -11   -1    0    0    0    0  0.00000000000E+00  0.00000000000E+00  0.45593999997E+02  0.45594000000E+02  0.51100000000E-03 0. -1.
         11   -1    0    0    0    0 -0.00000000000E+00 -0.00000000000E+00 -0.45593999997E+02  0.45594000000E+02  0.51100000000E-03 0.  1.
    9900012    2    1    2    0    0 -0.98319277661E+01 -0.34772990030E+02  0.18636983482E+02  0.50528870735E+02  0.30000033087E+02 0.  0.
        -12    1    1    2    0    0  0.98319277661E+01  0.34772990030E+02 -0.18636983482E+02  0.40659129265E+02  0.00000000000E+00 0.  1.
         11    1    3    3    0    0  0.39173495417E+01 -0.16854662776E+01 -0.38331018136E+01  0.57340294540E+01  0.51100000000E-03 0. -1.
        -11    1    3    3    0    0 -0.61650466590E+01 -0.18714943610E+02  0.38435009093E+01  0.20075592498E+02  0.51100000000E-03 0.  1.
         12    1    3    3    0    0 -0.75842306487E+01 -0.14372580142E+02  0.18626584387E+02  0.24719248783E+02  0.00000000000E+00 0. -1.
</event>
<event>
 7    1  0.9930326E-013  0.5052886E+02  0.7816164E-02  0.1300439E+00
        -11   -1    0    0    0    0  0.00000000000E+00  0.00000000000E+00  0.45593999997E+02  0.45594000000E+02  0.51100000000E-03 0. -1.
         11   -1    0    0    0    0 -0.00000000000E+00 -0.00000000000E+00 -0.45593999997E+02  0.45594000000E+02  0.51100000000E-03 0.  1.
    9900012    2    1    2    0    0  0.26925632119E+02  0.22626611153E+02  0.20401289859E+02  0.50528858037E+02  0.29999994489E+02 0.  0.
        -12    1    1    2    0    0 -0.26925632119E+02 -0.22626611153E+02 -0.20401289859E+02  0.40659141963E+02  0.00000000000E+00 0.  1.
         11    1    3    3    0    0  0.20587547017E+02  0.84460153578E+01  0.19976112508E+02  0.29903634207E+02  0.51100000000E-03 0. -1.
        -11    1    3    3    0    0  0.14857730860E+01  0.25467020211E+01 -0.58450447447E+01  0.65465839317E+01  0.51100000000E-03 0.  1.
         12    1    3    3    0    0  0.48523120165E+01  0.11633893774E+02  0.62702220955E+01  0.14078639898E+02  0.00000000000E+00 0. -1.
</event>
<event>
 7    1  0.9930326E-013  0.5052879E+02  0.7816164E-02  0.1300439E+00
        -11   -1    0    0    0    0  0.00000000000E+00  0.00000000000E+00  0.45593999997E+02  0.45594000000E+02  0.51100000000E-03 0.  1.
         11   -1    0    0    0    0 -0.00000000000E+00 -0.00000000000E+00 -0.45593999997E+02  0.45594000000E+02  0.51100000000E-03 0. -1.
    9900012    2    1    2    0    0 -0.37602181800E+02  0.12015622290E+02 -0.97402189332E+01  0.50528792925E+02  0.29999796574E+02 0.  0.
        -12    1    1    2    0    0  0.37602181800E+02 -0.12015622290E+02  0.97402189332E+01  0.40659207075E+02  0.00000000000E+00 0.  1.
         11    1    3    3    0    0 -0.26763070138E+02  0.91389393109E+01 -0.77275529650E+00  0.28290975344E+02  0.51100000000E-03 0. -1.
        -11    1    3    3    0    0  0.94713160604E+00 -0.15997039519E+01  0.38398116589E+01  0.42661768423E+01  0.51100000000E-03 0.  1.
         12    1    3    3    0    0 -0.11786243268E+02  0.44763869308E+01 -0.12807275296E+02  0.17971640738E+02  0.00000000000E+00 0. -1.
</event>
<event>
 7    1  0.9930326E-013  0.5052883E+02  0.7816164E-02  0.1300439E+00
        -11   -1    0    0    0    0  0.00000000000E+00  0.00000000000E+00  0.45593999997E+02  0.45594000000E+02  0.51100000000E-03 0.  1.
         11   -1    0    0    0    0 -0.00000000000E+00 -0.00000000000E+00 -0.45593999997E+02  0.45594000000E+02  0.51100000000E-03 0. -1.
    9900012    2    1    2    0    0 -0.21263607371E+02 -0.82932414724E+01 -0.33648915517E+02  0.50528826767E+02  0.29999899440E+02 0.  0.
        -12    1    1    2    0    0  0.21263607371E+02  0.82932414724E+01  0.33648915517E+02  0.40659173233E+02  0.00000000000E+00 0.  1.
         11    1    3    3    0    0 -0.35142382389E+01 -0.45112609849E+00 -0.40116782933E+01  0.53522843858E+01  0.51100000000E-03 0. -1.
        -11    1    3    3    0    0 -0.20730012156E+02 -0.31007489863E+01 -0.73743092570E+01  0.22220001925E+02  0.51100000000E-03 0.  1.
        -12    1    3    3    0    0  0.29806430240E+01 -0.47413663876E+01 -0.22262927966E+02  0.22956540456E+02  0.00000000000E+00 0.  1.
</event>
<event>
 7    1  0.9930326E-013  0.5052886E+02  0.7816164E-02  0.1300439E+00
        -11   -1    0    0    0    0  0.00000000000E+00  0.00000000000E+00  0.45593999997E+02  0.45594000000E+02  0.51100000000E-03 0.  1.
         11   -1    0    0    0    0 -0.00000000000E+00 -0.00000000000E+00 -0.45593999997E+02  0.45594000000E+02  0.51100000000E-03 0. -1.
    9900012    2    1    2    0    0  0.36655051700E+02 -0.78080114658E+00 -0.17577338779E+02  0.50528864445E+02  0.30000013967E+02 0.  0.
        -12    1    1    2    0    0 -0.36655051700E+02  0.78080114658E+00  0.17577338779E+02  0.40659135555E+02  0.00000000000E+00 0.  1.
         11    1    3    3    0    0  0.33308979022E+02  0.44644296332E+00 -0.12854148820E+02  0.35705973407E+02  0.51100000000E-03 0. -1.
        -11    1    3    3    0    0 -0.36193627142E+01  0.39019812938E+00  0.26873867173E+01  0.45248302362E+01  0.51100000000E-03 0.  1.
        -12    1    3    3    0    0  0.69654353920E+01 -0.16174422393E+01 -0.74105766765E+01  0.10298060802E+02  0.00000000000E+00 0.  1.
</event>
<event>
 7    1  0.9930326E-013  0.5052884E+02  0.7816164E-02  0.1300439E+00
        -11   -1    0    0    0    0  0.00000000000E+00  0.00000000000E+00  0.45593999997E+02  0.45594000000E+02  0.51100000000E-03 0.  1.
         11   -1    0    0    0    0 -0.00000000000E+00 -0.00000000000E+00 -0.45593999997E+02  0.45594000000E+02  0.51100000000E-03 0. -1.
    9900012    2    1    2    0    0  0.60446613692E+01 -0.40204160073E+02  0.50462898815E+00  0.50528842745E+02  0.29999948008E+02 0.  0.
        -12    1    1    2    0    0 -0.60446613692E+01  0.40204160073E+02 -0.50462898815E+00  0.40659157255E+02  0.00000000000E+00 0.  1.
         11    1    3    3    0    0 -0.88166124055E+01 -0.25982742231E+02  0.18217416628E+01  0.27498259783E+02  0.51100000000E-03 0. -1.
        -11    1    3    3    0    0  0.73077063532E+01 -0.58640250884E+00  0.43985766919E+00  0.73443798293E+01  0.51100000000E-03 0.  1.
         12    1    3    3    0    0  0.75535674215E+01 -0.13635015333E+02 -0.17569703439E+01  0.15686203133E+02  0.00000000000E+00 0. -1.
</event>
<event>
 7    1  0.9930326E-013  0.5052880E+02  0.7816164E-02  0.1300439E+00
        -11   -1    0    0    0    0  0.00000000000E+00  0.00000000000E+00  0.45593999997E+02  0.45594000000E+02  0.51100000000E-03 0. -1.
         11   -1    0    0    0    0 -0.00000000000E+00 -0.00000000000E+00 -0.45593999997E+02  0.45594000000E+02  0.51100000000E-03 0.  1.
    9900012    2    1    2    0    0  0.25810961604E+02 -0.76832342809E+01  0.30461982571E+02  0.50528804114E+02  0.29999830585E+02 0.  0.
        -12    1    1    2    0    0 -0.25810961604E+02  0.76832342809E+01 -0.30461982571E+02  0.40659195886E+02  0.00000000000E+00 0.  1.
         11    1    3    3    0    0  0.12054803071E+02 -0.88403915294E+01  0.28985788114E+02  0.32613597047E+02  0.51100000000E-03 0. -1.
        -11    1    3    3    0    0  0.65391417959E+01 -0.40086030970E+01 -0.26670167138E+01  0.81204835219E+01  0.51100000000E-03 0.  1.
        -12    1    3    3    0    0  0.72170167369E+01  0.51657603455E+01  0.41432111710E+01  0.97947235456E+01  0.00000000000E+00 0.  1.
</event>
<event>
 7    1  0.9930326E-013  0.5052886E+02  0.7816164E-02  0.1300439E+00
        -11   -1    0    0    0    0  0.00000000000E+00  0.00000000000E+00  0.45593999997E+02  0.45594000000E+02  0.51100000000E-03 0.  1.
         11   -1    0    0    0    0 -0.00000000000E+00 -0.00000000000E+00 -0.45593999997E+02  0.45594000000E+02  0.51100000000E-03 0. -1.
    9900012    2    1    2    0    0  0.22340813608E+02 -0.28201461423E+02 -0.18940201355E+02  0.50528860727E+02  0.30000002667E+02 0.  0.
        -12    1    1    2    0    0 -0.22340813608E+02  0.28201461423E+02  0.18940201355E+02  0.40659139273E+02  0.00000000000E+00 0.  1.
         11    1    3    3    0    0 -0.14037051540E+01 -0.13496386593E+02 -0.67509441580E+01  0.15155793826E+02  0.51100000000E-03 0. -1.
        -11    1    3    3    0    0  0.17729394133E+02 -0.16878069728E+02 -0.37190407688E+01  0.24759481387E+02  0.51100000000E-03 0.  1.
        -12    1    3    3    0    0  0.60151246295E+01  0.21729948979E+01 -0.84702164276E+01  0.10613585514E+02  0.00000000000E+00 0.  1.
</event>
<event>
 7    1  0.9930326E-013  0.5052888E+02  0.7816164E-02  0.1300439E+00
        -11   -1    0    0    0    0  0.00000000000E+00  0.00000000000E+00  0.45593999997E+02  0.45594000000E+02  0.51100000000E-03 0.  1.
         11   -1    0    0    0    0 -0.00000000000E+00 -0.00000000000E+00 -0.45593999997E+02  0.45594000000E+02  0.51100000000E-03 0. -1.
    9900012    2    1    2    0    0 -0.28480880090E+02 -0.13717321864E+02 -0.25570270643E+02  0.50528878138E+02  0.30000055590E+02 0.  0.
        -12    1    1    2    0    0  0.28480880090E+02  0.13717321864E+02  0.25570270643E+02  0.40659121862E+02  0.00000000000E+00 0.  1.
         11    1    3    3    0    0  0.76170747102E+00 -0.62928344577E+01 -0.15458153843E+02  0.16707318285E+02  0.51100000000E-03 0. -1.
        -11    1    3    3    0    0 -0.12068869205E+02 -0.67876377913E+01 -0.91749190273E+01  0.16610501801E+02  0.51100000000E-03 0.  1.
         12    1    3    3    0    0 -0.17173718356E+02 -0.63684961453E+00 -0.93719777223E+00  0.17211058052E+02  0.00000000000E+00 0. -1.
</event>
<event>
 7    1  0.9930326E-013  0.5052887E+02  0.7816164E-02  0.1300439E+00
        -11   -1    0    0    0    0  0.00000000000E+00  0.00000000000E+00  0.45593999997E+02  0.45594000000E+02  0.51100000000E-03 0. -1.
         11   -1    0    0    0    0 -0.00000000000E+00 -0.00000000000E+00 -0.45593999997E+02  0.45594000000E+02  0.51100000000E-03 0.  1.
    9900012    2    1    2    0    0 -0.11756708354E+01  0.37736579867E+02  0.15090820639E+02  0.50528873970E+02  0.30000042919E+02 0.  0.
        -12    1    1    2    0    0  0.11756708354E+01 -0.37736579867E+02 -0.15090820639E+02  0.40659126030E+02  0.00000000000E+00 0.  1.
         11    1    3    3    0    0 -0.25844254856E+01 -0.30795784897E+00 -0.37475689936E+01  0.45627148443E+01  0.51100000000E-03 0. -1.
        -11    1    3    3    0    0  0.78123424336E+01  0.28263082093E+02  0.89625047077E+01  0.30662044853E+02  0.51100000000E-03 0.  1.
         12    1    3    3    0    0 -0.64035877834E+01  0.97814556230E+01  0.98758849254E+01  0.15304114272E+02  0.00000000000E+00 0. -1.
</event>
<event>
 7    1  0.9930326E-013  0.5052889E+02  0.7816164E-02  0.1300439E+00
        -11   -1    0    0    0    0  0.00000000000E+00  0.00000000000E+00  0.45593999997E+02  0.45594000000E+02  0.51100000000E-03 0.  1.
         11   -1    0    0    0    0 -0.00000000000E+00 -0.00000000000E+00 -0.45593999997E+02  0.45594000000E+02  0.51100000000E-03 0. -1.
    9900012    2    1    2    0    0  0.31777083610E+02  0.28559875588E+01 -0.25203635405E+02  0.50528893451E+02  0.30000102134E+02 0.  0.
        -12    1    1    2    0    0 -0.31777083610E+02 -0.28559875588E+01  0.25203635405E+02  0.40659106549E+02  0.00000000000E+00 0.  1.
         11    1    3    3    0    0 -0.49727815343E+01 -0.24754117515E+01 -0.15679655180E+01  0.57718918610E+01  0.51100000000E-03 0. -1.
        -11    1    3    3    0    0  0.64010279340E+01  0.48143108349E+00 -0.80146316523E+00  0.64689472070E+01  0.51100000000E-03 0.  1.
         12    1    3    3    0    0  0.30348837211E+02  0.48499682268E+01 -0.22834206722E+02  0.38288054383E+02  0.00000000000E+00 0. -1.
</event>
<event>
 7    1  0.9930326E-013  0.5052886E+02  0.7816164E-02  0.1300439E+00
        -11   -1    0    0    0    0  0.00000000000E+00  0.00000000000E+00  0.45593999997E+02  0.45594000000E+02  0.51100000000E-03 0.  1.
         11   -1    0    0    0    0 -0.00000000000E+00 -0.00000000000E+00 -0.45593999997E+02  0.45594000000E+02  0.51100000000E-03 0. -1.
    9900012    2    1    2    0    0  0.18914611595E+02 -0.34867397450E+02 -0.89256683562E+01  0.50528862130E+02  0.30000006930E+02 0.  0.
        -12    1    1    2    0    0 -0.18914611595E+02  0.34867397450E+02  0.89256683562E+01  0.40659137870E+02  0.00000000000E+00 0.  1.
         11    1    3    3    0    0  0.81642830991E+01 -0.20389731892E+02 -0.10129874773E+02  0.24187001640E+02  0.51100000000E-03 0. -1.
        -11    1    3    3    0    0  0.45861979426E+01 -0.63152285235E+01  0.10115150780E+02  0.12776212210E+02  0.51100000000E-03 0.  1.
        -12    1    3    3    0    0  0.61641305531E+01 -0.81624370349E+01 -0.89109443628E+01  0.13565648280E+02  0.00000000000E+00 0.  1.
</event>
<event>
 7    1  0.9930326E-013  0.5052884E+02  0.7816164E-02  0.1300439E+00
        -11   -1    0    0    0    0  0.00000000000E+00  0.00000000000E+00  0.45593999997E+02  0.45594000000E+02  0.51100000000E-03 0.  1.
         11   -1    0    0    0    0 -0.00000000000E+00 -0.00000000000E+00 -0.45593999997E+02  0.45594000000E+02  0.51100000000E-03 0. -1.
    9900012    2    1    2    0    0  0.36590421399E+02  0.16768925891E+02 -0.57542230107E+01  0.50528844867E+02  0.29999954457E+02 0.  0.
        -12    1    1    2    0    0 -0.36590421399E+02 -0.16768925891E+02  0.57542230107E+01  0.40659155133E+02  0.00000000000E+00 0.  1.
         11    1    3    3    0    0  0.46225729702E+01  0.33859478275E+00 -0.96016044269E+01  0.10661783862E+02  0.51100000000E-03 0. -1.
        -11    1    3    3    0    0  0.22587332323E+02  0.19375153245E+02  0.17251080497E+01  0.29808725950E+02  0.51100000000E-03 0.  1.
        -12    1    3    3    0    0  0.93805161054E+01 -0.29448221366E+01  0.21222733665E+01  0.10058335054E+02  0.00000000000E+00 0.  1.
</event>
<event>
 7    1  0.9930326E-013  0.5052886E+02  0.7816164E-02  0.1300439E+00
        -11   -1    0    0    0    0  0.00000000000E+00  0.00000000000E+00  0.45593999997E+02  0.45594000000E+02  0.51100000000E-03 0.  1.
         11   -1    0    0    0    0 -0.00000000000E+00 -0.00000000000E+00 -0.45593999997E+02  0.45594000000E+02  0.51100000000E-03 0. -1.
    9900012    2    1    2    0    0 -0.15663448613E+02 -0.72360472552E+01 -0.36816596016E+02  0.50528859028E+02  0.29999997502E+02 0.  0.
        -12    1    1    2    0    0  0.15663448613E+02  0.72360472552E+01  0.36816596016E+02  0.40659140972E+02  0.00000000000E+00 0.  1.
         11    1    3    3    0    0 -0.15401398412E+02 -0.15623424721E+01 -0.10622738979E+02  0.18774625714E+02  0.51100000000E-03 0. -1.
        -11    1    3    3    0    0  0.38798300107E+01 -0.59006060046E+01 -0.21886506265E+01  0.73932688277E+01  0.51100000000E-03 0.  1.
         12    1    3    3    0    0 -0.41418802112E+01  0.22690122148E+00 -0.24005206411E+02  0.24360964486E+02  0.00000000000E+00 0. -1.
</event>
<event>
 7    1  0.9930326E-013  0.5052897E+02  0.7816164E-02  0.1300438E+00
        -11   -1    0    0    0    0  0.00000000000E+00  0.00000000000E+00  0.45593999997E+02  0.45594000000E+02  0.51100000000E-03 0. -1.
         11   -1    0    0    0    0 -0.00000000000E+00 -0.00000000000E+00 -0.45593999997E+02  0.45594000000E+02  0.51100000000E-03 0.  1.
    9900012    2    1    2    0    0  0.21599519677E+02 -0.13217846718E+02  0.31810473881E+02  0.50528966924E+02  0.30000325459E+02 0.  0.
        -12    1    1    2    0    0 -0.21599519677E+02  0.13217846718E+02 -0.31810473881E+02  0.40659033076E+02  0.00000000000E+00 0.  1.
         11    1    3    3    0    0  0.67028289806E+01 -0.39931210809E-01  0.22112370168E+01  0.70582632602E+01  0.51100000000E-03 0. -1.
        -11    1    3    3    0    0  0.53027468918E+01 -0.18915172903E+02  0.23855485888E+02  0.30902865527E+02  0.51100000000E-03 0.  1.
        -12    1    3    3    0    0  0.95939438051E+01  0.57372573955E+01  0.57437509763E+01  0.12567838137E+02  0.00000000000E+00 0.  1.
</event>
<event>
 7    1  0.9930326E-013  0.5052886E+02  0.7816164E-02  0.1300439E+00
        -11   -1    0    0    0    0  0.00000000000E+00  0.00000000000E+00  0.45593999997E+02  0.45594000000E+02  0.51100000000E-03 0.  1.
         11   -1    0    0    0    0 -0.00000000000E+00 -0.00000000000E+00 -0.45593999997E+02  0.45594000000E+02  0.51100000000E-03 0. -1.
    9900012    2    1    2    0    0 -0.30858011941E+02  0.26390124463E+02 -0.21236336691E+01  0.50528863388E+02  0.30000010754E+02 0.  0.
        -12    1    1    2    0    0  0.30858011941E+02 -0.26390124463E+02  0.21236336691E+01  0.40659136612E+02  0.00000000000E+00 0.  1.
         11    1    3    3    0    0 -0.44074628602E+01 -0.13859752787E+01 -0.57906523344E+01  0.74079896771E+01  0.51100000000E-03 0. -1.
        -11    1    3    3    0    0 -0.13153001433E+02  0.24860827788E+02 -0.23770508650E+01  0.28226097429E+02  0.51100000000E-03 0.  1.
        -12    1    3    3    0    0 -0.13297547647E+02  0.29152719538E+01  0.60440695303E+01  0.14894776282E+02  0.00000000000E+00 0.  1.
</event>
<event>
 7    1  0.9930326E-013  0.5052886E+02  0.7816164E-02  0.1300439E+00
        -11   -1    0    0    0    0  0.00000000000E+00  0.00000000000E+00  0.45593999997E+02  0.45594000000E+02  0.51100000000E-03 0.  1.
         11   -1    0    0    0    0 -0.00000000000E+00 -0.00000000000E+00 -0.45593999997E+02  0.45594000000E+02  0.51100000000E-03 0. -1.
    9900012    2    1    2    0    0  0.76307278793E+01 -0.67018767185E+01 -0.39370329807E+02  0.50528855535E+02  0.29999986885E+02 0.  0.
        -12    1    1    2    0    0 -0.76307278793E+01  0.67018767185E+01  0.39370329807E+02  0.40659144465E+02  0.00000000000E+00 0.  1.
         11    1    3    3    0    0  0.14301028230E+02  0.17072770829E+01 -0.21950315240E+02  0.26253581525E+02  0.51100000000E-03 0. -1.
        -11    1    3    3    0    0 -0.13109179355E+01 -0.17172643452E+00  0.20651590489E+01  0.24521170364E+01  0.51100000000E-03 0.  1.
         12    1    3    3    0    0 -0.53593824152E+01 -0.82374273669E+01 -0.19485173615E+02  0.21823156974E+02  0.00000000000E+00 0. -1.
</event>
<event>
 7    1  0.9930326E-013  0.5052891E+02  0.7816164E-02  0.1300439E+00
        -11   -1    0    0    0    0  0.00000000000E+00  0.00000000000E+00  0.45593999997E+02  0.45594000000E+02  0.51100000000E-03 0.  1.
         11   -1    0    0    0    0 -0.00000000000E+00 -0.00000000000E+00 -0.45593999997E+02  0.45594000000E+02  0.51100000000E-03 0. -1.
    9900012    2    1    2    0    0 -0.87866456666E+01 -0.25762586144E+02 -0.30203406608E+02  0.50528908057E+02  0.30000146531E+02 0.  0.
        -12    1    1    2    0    0  0.87866456666E+01  0.25762586144E+02  0.30203406608E+02  0.40659091943E+02  0.00000000000E+00 0.  1.
         11    1    3    3    0    0  0.76375639533E+01 -0.12002518759E+02 -0.22186826867E+02  0.26356178144E+02  0.51100000000E-03 0. -1.
        -11    1    3    3    0    0 -0.13030638176E+02 -0.65060923992E+01 -0.35032095286E+01  0.14979961510E+02  0.51100000000E-03 0.  1.
         12    1    3    3    0    0 -0.33935714437E+01 -0.72539749857E+01 -0.45133702123E+01  0.91927684029E+01  0.00000000000E+00 0. -1.
</event>
<event>
 7    1  0.9930326E-013  0.5052886E+02  0.7816164E-02  0.1300439E+00
        -11   -1    0    0    0    0  0.00000000000E+00  0.00000000000E+00  0.45593999997E+02  0.45594000000E+02  0.51100000000E-03 0. -1.
         11   -1    0    0    0    0 -0.00000000000E+00 -0.00000000000E+00 -0.45593999997E+02  0.45594000000E+02  0.51100000000E-03 0.  1.
    9900012    2    1    2    0    0 -0.37331410158E+02 -0.12245761753E+02  0.10467707145E+02  0.50528858861E+02  0.29999996993E+02 0.  0.
        -12    1    1    2    0    0  0.37331410158E+02  0.12245761753E+02 -0.10467707145E+02  0.40659141139E+02  0.00000000000E+00 0.  1.
         11    1    3    3    0    0 -0.27317753389E+02  0.26851107303E+01  0.82739017219E+01  0.28669267863E+02  0.51100000000E-03 0. -1.
        -11    1    3    3    0    0 -0.70681770394E+01 -0.16822398511E+02  0.17395777871E+01  0.18329712203E+02  0.51100000000E-03 0.  1.
        -12    1    3    3    0    0 -0.29454797302E+01  0.18915260279E+01  0.45422763609E+00  0.35298787940E+01  0.00000000000E+00 0.  1.
</event>
<event>
 7    1  0.9930326E-013  0.5052886E+02  0.7816164E-02  0.1300439E+00
        -11   -1    0    0    0    0  0.00000000000E+00  0.00000000000E+00  0.45593999997E+02  0.45594000000E+02  0.51100000000E-03 0.  1.
         11   -1    0    0    0    0 -0.00000000000E+00 -0.00000000000E+00 -0.45593999997E+02  0.45594000000E+02  0.51100000000E-03 0. -1.
    9900012    2    1    2    0    0 -0.25645893925E+02 -0.30168743090E+02  0.92358350059E+01  0.50528861013E+02  0.30000003536E+02 0.  0.
        -12    1    1    2    0    0  0.25645893925E+02  0.30168743090E+02 -0.92358350059E+01  0.40659138987E+02  0.00000000000E+00 0.  1.
         11    1    3    3    0    0 -0.28711620517E+01 -0.13006344345E+02 -0.29275006090E+01  0.13637405356E+02  0.51100000000E-03 0. -1.
        -11    1    3    3    0    0 -0.10710277911E+02  0.49368228647E+00  0.11171655759E+02  0.15484174753E+02  0.51100000000E-03 0.  1.
        -12    1    3    3    0    0 -0.12064453962E+02 -0.17656081032E+02  0.99167985631E+00  0.21407280905E+02  0.00000000000E+00 0.  1.
</event>
<event>
 7    1  0.9930326E-013  0.5052886E+02  0.7816164E-02  0.1300439E+00
        -11   -1    0    0    0    0  0.00000000000E+00  0.00000000000E+00  0.45593999997E+02  0.45594000000E+02  0.51100000000E-03 0.  1.
         11   -1    0    0    0    0 -0.00000000000E+00 -0.00000000000E+00 -0.45593999997E+02  0.45594000000E+02  0.51100000000E-03 0. -1.
    9900012    2    1    2    0    0  0.25351197580E+02 -0.15461284787E+02 -0.27774643652E+02  0.50528863560E+02  0.30000011278E+02 0.  0.
        -12    1    1    2    0    0 -0.25351197580E+02  0.15461284787E+02  0.27774643652E+02  0.40659136440E+02  0.00000000000E+00 0.  1.
         11    1    3    3    0    0  0.22333134437E+01  0.22755048652E+01 -0.20029438968E+02  0.20281618204E+02  0.51100000000E-03 0. -1.
        -11    1    3    3    0    0  0.18581628220E+02 -0.13042483914E+02 -0.63232549443E+01  0.23566222593E+02  0.51100000000E-03 0.  1.
         12    1    3    3    0    0  0.45362559160E+01 -0.46943057380E+01 -0.14219497401E+01  0.66810227631E+01  0.00000000000E+00 0. -1.
</event>
<event>
 7    1  0.9930326E-013  0.5052887E+02  0.7816164E-02  0.1300439E+00
        -11   -1    0    0    0    0  0.00000000000E+00  0.00000000000E+00  0.45593999997E+02  0.45594000000E+02  0.51100000000E-03 0.  1.
         11   -1    0    0    0    0 -0.00000000000E+00 -0.00000000000E+00 -0.45593999997E+02  0.45594000000E+02  0.51100000000E-03 0. -1.
    9900012    2    1    2    0    0  0.21025804603E+01 -0.41437116312E+01 -0.40392746228E+02  0.50528866481E+02  0.30000020154E+02 0.  0.
        -12    1    1    2    0    0 -0.21025804603E+01  0.41437116312E+01  0.40392746228E+02  0.40659133519E+02  0.00000000000E+00 0.  1.
         11    1    3    3    0    0  0.19764658661E+00 -0.10084150815E+02 -0.24277273309E+02  0.26289069238E+02  0.51100000000E-03 0. -1.
        -11    1    3    3    0    0 -0.24205202595E+01 -0.16487634819E+01  0.23874487674E+01  0.37785250065E+01  0.51100000000E-03 0.  1.
         12    1    3    3    0    0  0.43254541332E+01  0.75892026656E+01 -0.18502921687E+02  0.20461272236E+02  0.00000000000E+00 0. -1.
</event>
<event>
 7    1  0.9930326E-013  0.5052883E+02  0.7816164E-02  0.1300439E+00
        -11   -1    0    0    0    0  0.00000000000E+00  0.00000000000E+00  0.45593999997E+02  0.45594000000E+02  0.51100000000E-03 0.  1.
         11   -1    0    0    0    0 -0.00000000000E+00 -0.00000000000E+00 -0.45593999997E+02  0.45594000000E+02  0.51100000000E-03 0. -1.
    9900012    2    1    2    0    0  0.27466630942E+02 -0.29438154550E+02 -0.56698368020E+01  0.50528833654E+02  0.29999920375E+02 0.  0.
        -12    1    1    2    0    0 -0.27466630942E+02  0.29438154550E+02  0.56698368020E+01  0.40659166346E+02  0.00000000000E+00 0.  1.
         11    1    3    3    0    0  0.42481514561E+01 -0.72030373846E+01 -0.34042868500E+01  0.90288264783E+01  0.51100000000E-03 0. -1.
        -11    1    3    3    0    0  0.12617514047E+02  0.38226750126E+01 -0.22130306448E+01  0.13368321132E+02  0.51100000000E-03 0.  1.
        -12    1    3    3    0    0  0.10600965439E+02 -0.26057792178E+02 -0.52519307284E-01  0.28131686044E+02  0.00000000000E+00 0.  1.
</event>
<event>
 7    1  0.9930326E-013  0.5052885E+02  0.7816164E-02  0.1300439E+00
        -11   -1    0    0    0    0  0.00000000000E+00  0.00000000000E+00  0.45593999997E+02  0.45594000000E+02  0.51100000000E-03 0. -1.
         11   -1    0    0    0    0 -0.00000000000E+00 -0.00000000000E+00 -0.45593999997E+02  0.45594000000E+02  0.51100000000E-03 0.  1.
    9900012    2    1    2    0    0 -0.34080488323E+02 -0.19005598487E+02  0.11422533063E+02  0.50528847036E+02  0.29999961050E+02 0.  0.
        -12    1    1    2    0    0  0.34080488323E+02  0.19005598487E+02 -0.11422533063E+02  0.40659152964E+02  0.00000000000E+00 0.  1.
         11    1    3    3    0    0 -0.27456289286E+02 -0.18553391052E+02  0.43240463395E+01  0.33418161497E+02  0.51100000000E-03 0. -1.
        -11    1    3    3    0    0 -0.72862049145E+01  0.25943800036E+01 -0.15757377835E+01  0.78931957712E+01  0.51100000000E-03 0.  1.
         12    1    3    3    0    0  0.66200587711E+00 -0.30465874388E+01  0.86742245073E+01  0.92174897671E+01  0.00000000000E+00 0. -1.
</event>
<event>
 7    1  0.9930326E-013  0.5052888E+02  0.7816164E-02  0.1300439E+00
        -11   -1    0    0    0    0  0.00000000000E+00  0.00000000000E+00  0.45593999997E+02  0.45594000000E+02  0.51100000000E-03 0.  1.
         11   -1    0    0    0    0 -0.00000000000E+00 -0.00000000000E+00 -0.45593999997E+02  0.45594000000E+02  0.51100000000E-03 0. -1.
    9900012    2    1    2    0    0 -0.33343455801E+02 -0.46282373521E+01 -0.22802581827E+02  0.50528876009E+02  0.30000049117E+02 0.  0.
        -12    1    1    2    0    0  0.33343455801E+02  0.46282373521E+01  0.22802581827E+02  0.40659123991E+02  0.00000000000E+00 0.  1.
         11    1    3    3    0    0 -0.59853211319E+01 -0.76961390360E+01 -0.17248540936E+02  0.19813298307E+02  0.51100000000E-03 0. -1.
        -11    1    3    3    0    0 -0.17878434952E+02 -0.11570989157E+01  0.17846258709E+01  0.18004505102E+02  0.51100000000E-03 0.  1.
         12    1    3    3    0    0 -0.94796997172E+01  0.42250005997E+01 -0.73386667622E+01  0.12711072600E+02  0.00000000000E+00 0. -1.
</event>
<event>
 7    1  0.9930326E-013  0.5052886E+02  0.7816164E-02  0.1300439E+00
        -11   -1    0    0    0    0  0.00000000000E+00  0.00000000000E+00  0.45593999997E+02  0.45594000000E+02  0.51100000000E-03 0. -1.
         11   -1    0    0    0    0 -0.00000000000E+00 -0.00000000000E+00 -0.45593999997E+02  0.45594000000E+02  0.51100000000E-03 0.  1.
    9900012    2    1    2    0    0 -0.15763691735E+02  0.32982828046E+02  0.17799009814E+02  0.50528859903E+02  0.30000000162E+02 0.  0.
        -12    1    1    2    0    0  0.15763691735E+02 -0.32982828046E+02 -0.17799009814E+02  0.40659140097E+02  0.00000000000E+00 0.  1.
         11    1    3    3    0    0 -0.20994728877E+02  0.16081294044E+02  0.91862267442E+01  0.27995953651E+02  0.51100000000E-03 0. -1.
        -11    1    3    3    0    0  0.66410064493E+01  0.93091162173E+01  0.66967685784E+00  0.11454740449E+02  0.51100000000E-03 0.  1.
        -12    1    3    3    0    0 -0.14099693070E+01  0.75924177850E+01  0.79431062118E+01  0.11078165803E+02  0.00000000000E+00 0.  1.
</event>
<event>
 7    1  0.9930326E-013  0.5052886E+02  0.7816164E-02  0.1300439E+00
        -11   -1    0    0    0    0  0.00000000000E+00  0.00000000000E+00  0.45593999997E+02  0.45594000000E+02  0.51100000000E-03 0. -1.
         11   -1    0    0    0    0 -0.00000000000E+00 -0.00000000000E+00 -0.45593999997E+02  0.45594000000E+02  0.51100000000E-03 0.  1.
    9900012    2    1    2    0    0  0.15132396787E+02 -0.27753641410E+02 -0.25571699312E+02  0.50528857734E+02  0.29999993569E+02 0.  0.
        -12    1    1    2    0    0 -0.15132396787E+02  0.27753641410E+02  0.25571699312E+02  0.40659142266E+02  0.00000000000E+00 0.  1.
         11    1    3    3    0    0  0.91193825376E+01  0.26570443117E+01 -0.54958978275E+01  0.10973965351E+02  0.51100000000E-03 0. -1.
        -11    1    3    3    0    0  0.54178050940E+01 -0.27776753636E+02 -0.11471483775E+02  0.30536790841E+02  0.51100000000E-03 0.  1.
        -12    1    3    3    0    0  0.59520915516E+00 -0.26339320863E+01 -0.86043177101E+01  0.90181015425E+01  0.00000000000E+00 0.  1.
</event>
<event>
 7    1  0.9930326E-013  0.5052885E+02  0.7816164E-02  0.1300439E+00
        -11   -1    0    0    0    0  0.00000000000E+00  0.00000000000E+00  0.45593999997E+02  0.45594000000E+02  0.51100000000E-03 0. -1.
         11   -1    0    0    0    0 -0.00000000000E+00 -0.00000000000E+00 -0.45593999997E+02  0.45594000000E+02  0.51100000000E-03 0.  1.
    9900012    2    1    2    0    0  0.10256525079E+02  0.34811828900E+02 -0.18333218112E+02  0.50528848208E+02  0.29999964614E+02 0.  0.
        -12    1    1    2    0    0 -0.10256525079E+02 -0.34811828900E+02  0.18333218112E+02  0.40659151792E+02  0.00000000000E+00 0.  1.
         11    1    3    3    0    0  0.88058523276E+01  0.25714653721E+02 -0.57463546094E+01  0.27781415420E+02  0.51100000000E-03 0. -1.
        -11    1    3    3    0    0  0.83984116134E+01  0.34071718310E+01 -0.97910386058E+01  0.13341910461E+02  0.51100000000E-03 0.  1.
         12    1    3    3    0    0 -0.69477388615E+01  0.56900033481E+01 -0.27958248968E+01  0.94055223269E+01  0.00000000000E+00 0. -1.
</event>
<event>
 7    1  0.9930326E-013  0.5052882E+02  0.7816164E-02  0.1300439E+00
        -11   -1    0    0    0    0  0.00000000000E+00  0.00000000000E+00  0.45593999997E+02  0.45594000000E+02  0.51100000000E-03 0.  1.
         11   -1    0    0    0    0 -0.00000000000E+00 -0.00000000000E+00 -0.45593999997E+02  0.45594000000E+02  0.51100000000E-03 0. -1.
    9900012    2    1    2    0    0 -0.68585751691E+01 -0.11892584686E+02 -0.38271336158E+02  0.50528821513E+02  0.29999883472E+02 0.  0.
        -12    1    1    2    0    0  0.68585751691E+01  0.11892584686E+02  0.38271336158E+02  0.40659178487E+02  0.00000000000E+00 0.  1.
         11    1    3    3    0    0  0.89815537170E+00 -0.13731298270E+02 -0.43376160785E+01  0.14428102742E+02  0.51100000000E-03 0. -1.
        -11    1    3    3    0    0 -0.91486223008E+01  0.36835070093E+01 -0.25054881938E+02  0.26926058439E+02  0.51100000000E-03 0.  1.
        -12    1    3    3    0    0  0.13918917600E+01 -0.18447934255E+01 -0.88788381417E+01  0.91746603316E+01  0.00000000000E+00 0.  1.
</event>
<event>
 7    1  0.9930326E-013  0.5052886E+02  0.7816164E-02  0.1300439E+00
        -11   -1    0    0    0    0  0.00000000000E+00  0.00000000000E+00  0.45593999997E+02  0.45594000000E+02  0.51100000000E-03 0.  1.
         11   -1    0    0    0    0 -0.00000000000E+00 -0.00000000000E+00 -0.45593999997E+02  0.45594000000E+02  0.51100000000E-03 0. -1.
    9900012    2    1    2    0    0  0.22966707385E+02  0.58928007656E+01 -0.33029849081E+02  0.50528859831E+02  0.29999999942E+02 0.  0.
        -12    1    1    2    0    0 -0.22966707385E+02 -0.58928007656E+01  0.33029849081E+02  0.40659140169E+02  0.00000000000E+00 0.  1.
         11    1    3    3    0    0  0.21272774934E+02  0.34519268126E+01 -0.30816924903E+02  0.37604914743E+02  0.51100000000E-03 0. -1.
        -11    1    3    3    0    0 -0.11404821577E+01  0.54834526621E+01 -0.53264862265E+01  0.77291919650E+01  0.51100000000E-03 0.  1.
         12    1    3    3    0    0  0.28344146091E+01 -0.30425787092E+01  0.31135620482E+01  0.51947531227E+01  0.00000000000E+00 0. -1.
</event>
<event>
 7    1  0.9930326E-013  0.5052887E+02  0.7816164E-02  0.1300439E+00
        -11   -1    0    0    0    0  0.00000000000E+00  0.00000000000E+00  0.45593999997E+02  0.45594000000E+02  0.51100000000E-03 0.  1.
         11   -1    0    0    0    0 -0.00000000000E+00 -0.00000000000E+00 -0.45593999997E+02  0.45594000000E+02  0.51100000000E-03 0. -1.
    9900012    2    1    2    0    0 -0.84715792603E+01 -0.35310917919E+02 -0.18290333810E+02  0.50528869533E+02  0.30000029433E+02 0.  0.
        -12    1    1    2    0    0  0.84715792603E+01  0.35310917919E+02  0.18290333810E+02  0.40659130467E+02  0.00000000000E+00 0.  1.
         11    1    3    3    0    0  0.63397971497E+00  0.85215161644E+00 -0.10923550912E+02  0.10975065259E+02  0.51100000000E-03 0. -1.
        -11    1    3    3    0    0 -0.79860693029E+01 -0.33603613771E+02 -0.97418084914E+01  0.35887086735E+02  0.51100000000E-03 0.  1.
        -12    1    3    3    0    0 -0.11194896724E+01 -0.25594557647E+01  0.23750255939E+01  0.36667175388E+01  0.00000000000E+00 0.  1.
</event>
<event>
 7    1  0.9930326E-013  0.5052886E+02  0.7816164E-02  0.1300439E+00
        -11   -1    0    0    0    0  0.00000000000E+00  0.00000000000E+00  0.45593999997E+02  0.45594000000E+02  0.51100000000E-03 0. -1.
         11   -1    0    0    0    0 -0.00000000000E+00 -0.00000000000E+00 -0.45593999997E+02  0.45594000000E+02  0.51100000000E-03 0.  1.
    9900012    2    1    2    0    0  0.26117746909E+02 -0.15989839999E+02  0.26746099755E+02  0.50528861558E+02  0.30000005190E+02 0.  0.
        -12    1    1    2    0    0 -0.26117746909E+02  0.15989839999E+02 -0.26746099755E+02  0.40659138442E+02  0.00000000000E+00 0.  1.
         11    1    3    3    0    0  0.11290571795E+02 -0.87788657336E+01  0.33000354618E+01  0.14677729025E+02  0.51100000000E-03 0. -1.
        -11    1    3    3    0    0 -0.38108674115E+01 -0.69730532452E+01  0.10450234671E+02  0.13128350503E+02  0.51100000000E-03 0.  1.
         12    1    3    3    0    0  0.18638042525E+02 -0.23792102023E+00  0.12995829622E+02  0.22722782029E+02  0.00000000000E+00 0. -1.
</event>
<event>
 7    1  0.9930326E-013  0.5052890E+02  0.7816164E-02  0.1300439E+00
        -11   -1    0    0    0    0  0.00000000000E+00  0.00000000000E+00  0.45593999997E+02  0.45594000000E+02  0.51100000000E-03 0.  1.
         11   -1    0    0    0    0 -0.00000000000E+00 -0.00000000000E+00 -0.45593999997E+02  0.45594000000E+02  0.51100000000E-03 0. -1.
    9900012    2    1    2    0    0 -0.21883204327E+02  0.52673664736E+01 -0.33860640142E+02  0.50528896074E+02  0.30000110107E+02 0.  0.
        -12    1    1    2    0    0  0.21883204327E+02 -0.52673664736E+01  0.33860640142E+02  0.40659103926E+02  0.00000000000E+00 0.  1.
         11    1    3    3    0    0 -0.13157892531E+02  0.43547890168E+01 -0.11874964934E+02  0.18251277098E+02  0.51100000000E-03 0. -1.
        -11    1    3    3    0    0  0.29168289074E+01 -0.82431328278E+01 -0.94385344353E+01  0.12866353883E+02  0.51100000000E-03 0.  1.
        -12    1    3    3    0    0 -0.11642140703E+02  0.91557102847E+01 -0.12547140773E+02  0.19411265094E+02  0.00000000000E+00 0.  1.
</event>
<event>
 7    1  0.9930326E-013  0.5052885E+02  0.7816164E-02  0.1300439E+00
        -11   -1    0    0    0    0  0.00000000000E+00  0.00000000000E+00  0.45593999997E+02  0.45594000000E+02  0.51100000000E-03 0. -1.
         11   -1    0    0    0    0 -0.00000000000E+00 -0.00000000000E+00 -0.45593999997E+02  0.45594000000E+02  0.51100000000E-03 0.  1.
    9900012    2    1    2    0    0  0.38043958794E+01  0.26088681370E+02  0.30952772526E+02  0.50528845426E+02  0.29999956156E+02 0.  0.
        -12    1    1    2    0    0 -0.38043958794E+01 -0.26088681370E+02 -0.30952772526E+02  0.40659154574E+02  0.00000000000E+00 0.  1.
         11    1    3    3    0    0 -0.63694143030E+01 -0.95539825042E+00  0.62724759129E+01  0.89903380759E+01  0.51100000000E-03 0. -1.
        -11    1    3    3    0    0  0.12511808377E+01  0.23676568391E+02  0.15682044688E+02  0.28426604970E+02  0.51100000000E-03 0.  1.
        -12    1    3    3    0    0  0.89226293447E+01  0.33675112292E+01  0.89982519251E+01  0.13111902380E+02  0.00000000000E+00 0.  1.
</event>
<event>
 7    1  0.9930326E-013  0.5052886E+02  0.7816164E-02  0.1300439E+00
        -11   -1    0    0    0    0  0.00000000000E+00  0.00000000000E+00  0.45593999997E+02  0.45594000000E+02  0.51100000000E-03 0. -1.
         11   -1    0    0    0    0 -0.00000000000E+00 -0.00000000000E+00 -0.45593999997E+02  0.45594000000E+02  0.51100000000E-03 0.  1.
    9900012    2    1    2    0    0  0.33988442871E+02  0.20983805007E+02  0.75915530529E+01  0.50528855898E+02  0.29999987988E+02 0.  0.
        -12    1    1    2    0    0 -0.33988442871E+02 -0.20983805007E+02 -0.75915530529E+01  0.40659144102E+02  0.00000000000E+00 0.  1.
         11    1    3    3    0    0  0.24304743854E+02  0.11021865474E+02  0.59740376063E+01  0.27347599857E+02  0.51100000000E-03 0. -1.
        -11    1    3    3    0    0  0.14774770196E+01  0.13902883704E+02  0.16461318661E+01  0.14077743570E+02  0.51100000000E-03 0.  1.
        -12    1    3    3    0    0  0.82062219965E+01 -0.39409441709E+01 -0.28616419477E-01  0.91035124712E+01  0.00000000000E+00 0.  1.
</event>
<event>
 7    1  0.9930326E-013  0.5052886E+02  0.7816164E-02  0.1300439E+00
        -11   -1    0    0    0    0  0.00000000000E+00  0.00000000000E+00  0.45593999997E+02  0.45594000000E+02  0.51100000000E-03 0. -1.
         11   -1    0    0    0    0 -0.00000000000E+00 -0.00000000000E+00 -0.45593999997E+02  0.45594000000E+02  0.51100000000E-03 0.  1.
    9900012    2    1    2    0    0  0.17316671295E+01  0.40622235238E+02  0.25227127782E-01  0.50528864456E+02  0.30000014000E+02 0.  0.
        -12    1    1    2    0    0 -0.17316671295E+01 -0.40622235238E+02 -0.25227127782E-01  0.40659135544E+02  0.00000000000E+00 0.  1.
         11    1    3    3    0    0  0.39668276733E+01  0.21916446302E+01  0.86999379238E+01  0.98095845026E+01  0.51100000000E-03 0. -1.
        -11    1    3    3    0    0 -0.26728052583E+01  0.31357586629E+02 -0.10877825231E+02  0.33298186274E+02  0.51100000000E-03 0.  1.
         12    1    3    3    0    0  0.43764471452E+00  0.70730039790E+01  0.22031144348E+01  0.74210936792E+01  0.00000000000E+00 0. -1.
</event>
<event>
 7    1  0.9930326E-013  0.5052887E+02  0.7816164E-02  0.1300439E+00
        -11   -1    0    0    0    0  0.00000000000E+00  0.00000000000E+00  0.45593999997E+02  0.45594000000E+02  0.51100000000E-03 0.  1.
         11   -1    0    0    0    0 -0.00000000000E+00 -0.00000000000E+00 -0.45593999997E+02  0.45594000000E+02  0.51100000000E-03 0. -1.
    9900012    2    1    2    0    0 -0.30911368127E+02  0.16355142554E+01 -0.26362426833E+02  0.50528866526E+02  0.30000020291E+02 0.  0.
        -12    1    1    2    0    0  0.30911368127E+02 -0.16355142554E+01  0.26362426833E+02  0.40659133474E+02  0.00000000000E+00 0.  1.
         11    1    3    3    0    0  0.15480790533E+00 -0.30414215302E+01  0.32359529243E+01  0.44436023676E+01  0.51100000000E-03 0.  1.
        -11    1    3    3    0    0 -0.25989364316E+02 -0.28845438717E+01 -0.23171310436E+02  0.34938192262E+02  0.51100000000E-03 0. -1.
         12    1    3    3    0    0 -0.50768117158E+01  0.75614796573E+01 -0.64270693212E+01  0.11147071896E+02  0.00000000000E+00 0. -1.
</event>
<event>
 7    1  0.9930326E-013  0.5052884E+02  0.7816164E-02  0.1300439E+00
        -11   -1    0    0    0    0  0.00000000000E+00  0.00000000000E+00  0.45593999997E+02  0.45594000000E+02  0.51100000000E-03 0.  1.
         11   -1    0    0    0    0 -0.00000000000E+00 -0.00000000000E+00 -0.45593999997E+02  0.45594000000E+02  0.51100000000E-03 0. -1.
    9900012    2    1    2    0    0  0.18332316184E+02 -0.97840589676E+01 -0.34948040103E+02  0.50528841947E+02  0.29999945583E+02 0.  0.
        -12    1    1    2    0    0 -0.18332316184E+02  0.97840589676E+01  0.34948040103E+02  0.40659158053E+02  0.00000000000E+00 0.  1.
         11    1    3    3    0    0  0.68670729317E+01 -0.10588636825E+02  0.10004310663E+00  0.12620852956E+02  0.51100000000E-03 0. -1.
        -11    1    3    3    0    0  0.68698411157E+00 -0.15382911774E+01 -0.68599916742E+00  0.18190332693E+01  0.51100000000E-03 0.  1.
         12    1    3    3    0    0  0.10778259140E+02  0.23428690344E+01 -0.34362084042E+02  0.36088955722E+02  0.00000000000E+00 0. -1.
</event>
<event>
 7    1  0.9930326E-013  0.5052886E+02  0.7816164E-02  0.1300439E+00
        -11   -1    0    0    0    0  0.00000000000E+00  0.00000000000E+00  0.45593999997E+02  0.45594000000E+02  0.51100000000E-03 0.  1.
         11   -1    0    0    0    0 -0.00000000000E+00 -0.00000000000E+00 -0.45593999997E+02  0.45594000000E+02  0.51100000000E-03 0. -1.
    9900012    2    1    2    0    0  0.62646630282E+01  0.20466180944E+02 -0.34569568526E+02  0.50528860396E+02  0.30000001659E+02 0.  0.
        -12    1    1    2    0    0 -0.62646630282E+01 -0.20466180944E+02  0.34569568526E+02  0.40659139604E+02  0.00000000000E+00 0.  1.
         11    1    3    3    0    0 -0.37159170128E+01 -0.14243751157E+01 -0.12332753683E+02  0.12958923465E+02  0.51100000000E-03 0. -1.
        -11    1    3    3    0    0  0.27988561525E+01  0.21687665299E+02 -0.20925683051E+02  0.30266691813E+02  0.51100000000E-03 0.  1.
        -12    1    3    3    0    0  0.71817238885E+01  0.20289076054E+00 -0.13111317924E+01  0.73032451176E+01  0.00000000000E+00 0.  1.
</event>
<event>
 7    1  0.9930326E-013  0.5052886E+02  0.7816164E-02  0.1300439E+00
        -11   -1    0    0    0    0  0.00000000000E+00  0.00000000000E+00  0.45593999997E+02  0.45594000000E+02  0.51100000000E-03 0.  1.
         11   -1    0    0    0    0 -0.00000000000E+00 -0.00000000000E+00 -0.45593999997E+02  0.45594000000E+02  0.51100000000E-03 0. -1.
    9900012    2    1    2    0    0  0.20949570711E+02 -0.27019322746E+02 -0.22005394974E+02  0.50528859299E+02  0.29999998324E+02 0.  0.
        -12    1    1    2    0    0 -0.20949570711E+02  0.27019322746E+02  0.22005394974E+02  0.40659140701E+02  0.00000000000E+00 0.  1.
         11    1    3    3    0    0  0.20568059380E+01 -0.92915797107E+01 -0.11822491982E+02  0.15176798776E+02  0.51100000000E-03 0. -1.
        -11    1    3    3    0    0  0.38004312928E+01 -0.76229749948E+01  0.64810101085E+01  0.10703107870E+02  0.51100000000E-03 0.  1.
        -12    1    3    3    0    0  0.15092333480E+02 -0.10104768040E+02 -0.16663913101E+02  0.24648952652E+02  0.00000000000E+00 0.  1.
</event>
<event>
 7    1  0.9930326E-013  0.5052886E+02  0.7816164E-02  0.1300439E+00
        -11   -1    0    0    0    0  0.00000000000E+00  0.00000000000E+00  0.45593999997E+02  0.45594000000E+02  0.51100000000E-03 0.  1.
         11   -1    0    0    0    0 -0.00000000000E+00 -0.00000000000E+00 -0.45593999997E+02  0.45594000000E+02  0.51100000000E-03 0. -1.
    9900012    2    1    2    0    0  0.27934399411E+02 -0.79520864177E+01 -0.28453461337E+02  0.50528858213E+02  0.29999995024E+02 0.  0.
        -12    1    1    2    0    0 -0.27934399411E+02  0.79520864177E+01  0.28453461337E+02  0.40659141787E+02  0.00000000000E+00 0.  1.
         11    1    3    3    0    0  0.24791999192E+02  0.12693263604E+01 -0.17824640319E+02  0.30560959018E+02  0.51100000000E-03 0. -1.
        -11    1    3    3    0    0  0.35117613308E+01 -0.10765941081E+02 -0.23851793656E+01  0.11572684903E+02  0.51100000000E-03 0.  1.
        -12    1    3    3    0    0 -0.36936111234E+00  0.15445283030E+01 -0.82436416522E+01  0.83952142915E+01  0.00000000000E+00 0.  1.
</event>
<event>
 7    1  0.1030565E-012  0.5052886E+02  0.7816164E-02  0.1300439E+00
        -11   -1    0    0    0    0  0.00000000000E+00  0.00000000000E+00  0.45593999997E+02  0.45594000000E+02  0.51100000000E-03 0.  1.
         11   -1    0    0    0    0 -0.00000000000E+00 -0.00000000000E+00 -0.45593999997E+02  0.45594000000E+02  0.51100000000E-03 0. -1.
    9900012    2    1    2    0    0  0.40225834139E+02  0.38970001064E+00  0.59072611008E+01  0.50528864102E+02  0.30000012925E+02 0.  0.
        -12    1    1    2    0    0 -0.40225834139E+02 -0.38970001064E+00 -0.59072611008E+01  0.40659135898E+02  0.00000000000E+00 0.  1.
         11    1    3    3    0    0  0.24772115722E+02  0.90224601561E+00 -0.64225412177E+01  0.25607045928E+02  0.51100000000E-03 0. -1.
        -11    1    3    3    0    0 -0.13423280675E+01 -0.29768097464E+01  0.59491405944E+01  0.67864213677E+01  0.51100000000E-03 0.  1.
        -12    1    3    3    0    0  0.16796046485E+02  0.24642637414E+01  0.63806617241E+01  0.18135396807E+02  0.00000000000E+00 0.  1.
</event>
<event>
 7    1  0.9930326E-013  0.5052887E+02  0.7816164E-02  0.1300439E+00
        -11   -1    0    0    0    0  0.00000000000E+00  0.00000000000E+00  0.45593999997E+02  0.45594000000E+02  0.51100000000E-03 0.  1.
         11   -1    0    0    0    0 -0.00000000000E+00 -0.00000000000E+00 -0.45593999997E+02  0.45594000000E+02  0.51100000000E-03 0. -1.
    9900012    2    1    2    0    0 -0.11753218052E+02 -0.25424437224E+02 -0.29472443138E+02  0.50528867603E+02  0.30000023567E+02 0.  0.
        -12    1    1    2    0    0  0.11753218052E+02  0.25424437224E+02  0.29472443138E+02  0.40659132397E+02  0.00000000000E+00 0.  1.
         11    1    3    3    0    0 -0.48147065689E+01 -0.11744628274E+02 -0.13622622993E+02  0.18619708647E+02  0.51100000000E-03 0. -1.
        -11    1    3    3    0    0  0.65332371761E+01  0.70450471005E+00 -0.87907638498E+01  0.10975292443E+02  0.51100000000E-03 0.  1.
        -12    1    3    3    0    0 -0.13471748659E+02 -0.14384313660E+02 -0.70590562954E+01  0.20933866513E+02  0.00000000000E+00 0.  1.
</event>
<event>
 7    1  0.9930326E-013  0.5052886E+02  0.7816164E-02  0.1300439E+00
        -11   -1    0    0    0    0  0.00000000000E+00  0.00000000000E+00  0.45593999997E+02  0.45594000000E+02  0.51100000000E-03 0.  1.
         11   -1    0    0    0    0 -0.00000000000E+00 -0.00000000000E+00 -0.45593999997E+02  0.45594000000E+02  0.51100000000E-03 0. -1.
    9900012    2    1    2    0    0 -0.67099502570E+01 -0.35422891724E+02 -0.18797897973E+02  0.50528860083E+02  0.30000000709E+02 0.  0.
        -12    1    1    2    0    0  0.67099502570E+01  0.35422891724E+02  0.18797897973E+02  0.40659139917E+02  0.00000000000E+00 0.  1.
         11    1    3    3    0    0 -0.57258686808E+01 -0.11116691332E+02 -0.14992890585E+02  0.19523144385E+02  0.51100000000E-03 0. -1.
        -11    1    3    3    0    0  0.80983954801E+01 -0.17919411382E+02 -0.26618667954E+01  0.19843760952E+02  0.51100000000E-03 0.  1.
        -12    1    3    3    0    0 -0.90824770563E+01 -0.63867890101E+01 -0.11431405929E+01  0.11161954746E+02  0.00000000000E+00 0.  1.
</event>
<event>
 7    1  0.9930326E-013  0.5052885E+02  0.7816164E-02  0.1300439E+00
        -11   -1    0    0    0    0  0.00000000000E+00  0.00000000000E+00  0.45593999997E+02  0.45594000000E+02  0.51100000000E-03 0. -1.
         11   -1    0    0    0    0 -0.00000000000E+00 -0.00000000000E+00 -0.45593999997E+02  0.45594000000E+02  0.51100000000E-03 0.  1.
    9900012    2    1    2    0    0  0.54457186808E+00 -0.40198180275E+02  0.60808137225E+01  0.50528849105E+02  0.29999967341E+02 0.  0.
        -12    1    1    2    0    0 -0.54457186808E+00  0.40198180275E+02 -0.60808137225E+01  0.40659150895E+02  0.00000000000E+00 0.  1.
         11    1    3    3    0    0  0.20024457579E+01 -0.35443856088E+02  0.24460886054E+01  0.35584548235E+02  0.51100000000E-03 0.  1.
        -11    1    3    3    0    0  0.15536516654E+01  0.36856673456E+01 -0.18827787592E+01  0.44207276999E+01  0.51100000000E-03 0. -1.
         12    1    3    3    0    0 -0.30115255552E+01 -0.84399915328E+01  0.55175038763E+01  0.10523573170E+02  0.00000000000E+00 0. -1.
</event>
<event>
 7    1  0.9930326E-013  0.5052886E+02  0.7816164E-02  0.1300439E+00
        -11   -1    0    0    0    0  0.00000000000E+00  0.00000000000E+00  0.45593999997E+02  0.45594000000E+02  0.51100000000E-03 0.  1.
         11   -1    0    0    0    0 -0.00000000000E+00 -0.00000000000E+00 -0.45593999997E+02  0.45594000000E+02  0.51100000000E-03 0. -1.
    9900012    2    1    2    0    0 -0.12393434505E+02 -0.22572112629E+02 -0.31465353910E+02  0.50528856084E+02  0.29999988552E+02 0.  0.
        -12    1    1    2    0    0  0.12393434505E+02  0.22572112629E+02  0.31465353910E+02  0.40659143916E+02  0.00000000000E+00 0.  1.
         11    1    3    3    0    0 -0.16514206732E+02 -0.27183053681E+02 -0.26302153497E+02  0.41272759906E+02  0.51100000000E-03 0. -1.
        -11    1    3    3    0    0  0.23271354222E+01  0.40454774103E+01 -0.56354143081E+01  0.73170582501E+01  0.51100000000E-03 0.  1.
         12    1    3    3    0    0  0.17936368051E+01  0.56546364191E+00  0.47221389591E+00  0.19390379270E+01  0.00000000000E+00 0. -1.
</event>
<event>
 7    1  0.9930326E-013  0.5052885E+02  0.7816164E-02  0.1300439E+00
        -11   -1    0    0    0    0  0.00000000000E+00  0.00000000000E+00  0.45593999997E+02  0.45594000000E+02  0.51100000000E-03 0. -1.
         11   -1    0    0    0    0 -0.00000000000E+00 -0.00000000000E+00 -0.45593999997E+02  0.45594000000E+02  0.51100000000E-03 0.  1.
    9900012    2    1    2    0    0  0.30872557796E+02 -0.10861895692E+02 -0.24126139227E+02  0.50528853466E+02  0.29999980595E+02 0.  0.
        -12    1    1    2    0    0 -0.30872557796E+02  0.10861895692E+02  0.24126139227E+02  0.40659146534E+02  0.00000000000E+00 0.  1.
         11    1    3    3    0    0  0.39254903678E+01 -0.46627043720E+01  0.14466023602E+01  0.62644189945E+01  0.51100000000E-03 0. -1.
        -11    1    3    3    0    0  0.16351442010E+02  0.81678107428E+01 -0.12822318943E+02  0.22326993785E+02  0.51100000000E-03 0.  1.
        -12    1    3    3    0    0  0.10595625418E+02 -0.14367002063E+02 -0.12750422644E+02  0.21937440687E+02  0.00000000000E+00 0.  1.
</event>
<event>
 7    1  0.9930326E-013  0.5052887E+02  0.7816164E-02  0.1300439E+00
        -11   -1    0    0    0    0  0.00000000000E+00  0.00000000000E+00  0.45593999997E+02  0.45594000000E+02  0.51100000000E-03 0.  1.
         11   -1    0    0    0    0 -0.00000000000E+00 -0.00000000000E+00 -0.45593999997E+02  0.45594000000E+02  0.51100000000E-03 0. -1.
    9900012    2    1    2    0    0  0.35122461521E+02 -0.65745697078E+01 -0.19399818125E+02  0.50528865560E+02  0.30000017356E+02 0.  0.
        -12    1    1    2    0    0 -0.35122461521E+02  0.65745697078E+01  0.19399818125E+02  0.40659134440E+02  0.00000000000E+00 0.  1.
         11    1    3    3    0    0  0.84319258957E+01 -0.97421809009E+01 -0.10665511907E+02  0.16726045782E+02  0.51100000000E-03 0. -1.
        -11    1    3    3    0    0  0.15445843464E+02  0.73179201817E+01 -0.12571772370E+02  0.21217339534E+02  0.51100000000E-03 0.  1.
         12    1    3    3    0    0  0.11244692161E+02 -0.41503089887E+01  0.38374661519E+01  0.12585480244E+02  0.00000000000E+00 0. -1.
</event>
<event>
 7    1  0.9930326E-013  0.5052886E+02  0.7816164E-02  0.1300439E+00
        -11   -1    0    0    0    0  0.00000000000E+00  0.00000000000E+00  0.45593999997E+02  0.45594000000E+02  0.51100000000E-03 0. -1.
         11   -1    0    0    0    0 -0.00000000000E+00 -0.00000000000E+00 -0.45593999997E+02  0.45594000000E+02  0.51100000000E-03 0.  1.
    9900012    2    1    2    0    0  0.20861876857E+02  0.24428215028E+02  0.24924085832E+02  0.50528860191E+02  0.30000001036E+02 0.  0.
        -12    1    1    2    0    0 -0.20861876857E+02 -0.24428215028E+02 -0.24924085832E+02  0.40659139809E+02  0.00000000000E+00 0.  1.
         11    1    3    3    0    0  0.48212666614E+01 -0.45037700022E+01 -0.52284602914E+00  0.66183022509E+01  0.51100000000E-03 0. -1.
        -11    1    3    3    0    0  0.16500607138E+02  0.26018576933E+02  0.17497557010E+02  0.35431636755E+02  0.51100000000E-03 0.  1.
        -12    1    3    3    0    0 -0.45999694245E+00  0.29134080972E+01  0.79493748517E+01  0.84789211849E+01  0.00000000000E+00 0.  1.
</event>
<event>
 7    1  0.1224702E-012  0.5052894E+02  0.7816164E-02  0.1300439E+00
        -11   -1    0    0    0    0  0.00000000000E+00  0.00000000000E+00  0.45593999997E+02  0.45594000000E+02  0.51100000000E-03 0. -1.
         11   -1    0    0    0    0 -0.00000000000E+00 -0.00000000000E+00 -0.45593999997E+02  0.45594000000E+02  0.51100000000E-03 0.  1.
    9900012    2    1    2    0    0 -0.38613936309E+02 -0.11578598871E+02 -0.52970967685E+01  0.50528938731E+02  0.30000239767E+02 0.  0.
        -12    1    1    2    0    0  0.38613936309E+02  0.11578598871E+02  0.52970967685E+01  0.40659061269E+02  0.00000000000E+00 0.  1.
         11    1    3    3    0    0 -0.22072241436E+02  0.13690525718E+01 -0.93087023021E+01  0.23993959360E+02  0.51100000000E-03 0.  1.
        -11    1    3    3    0    0  0.21147869428E+00  0.15737465934E+00  0.52238699601E+01  0.52305169575E+01  0.51100000000E-03 0. -1.
         12    1    3    3    0    0 -0.16753173567E+02 -0.13105026102E+02 -0.12122644264E+01  0.21304462414E+02  0.00000000000E+00 0. -1.
</event>
<event>
 7    1  0.9930326E-013  0.5052886E+02  0.7816164E-02  0.1300439E+00
        -11   -1    0    0    0    0  0.00000000000E+00  0.00000000000E+00  0.45593999997E+02  0.45594000000E+02  0.51100000000E-03 0.  1.
         11   -1    0    0    0    0 -0.00000000000E+00 -0.00000000000E+00 -0.45593999997E+02  0.45594000000E+02  0.51100000000E-03 0. -1.
    9900012    2    1    2    0    0  0.61577984151E+01 -0.33332111082E+02 -0.22454794739E+02  0.50528856905E+02  0.29999991048E+02 0.  0.
        -12    1    1    2    0    0 -0.61577984151E+01  0.33332111082E+02  0.22454794739E+02  0.40659143095E+02  0.00000000000E+00 0.  1.
         11    1    3    3    0    0  0.88180258398E+01 -0.30356648825E+02 -0.10225891623E+02  0.33224276777E+02  0.51100000000E-03 0. -1.
        -11    1    3    3    0    0 -0.57850848741E+01 -0.48475815656E+01 -0.11224135230E+02  0.13525807405E+02  0.51100000000E-03 0.  1.
         12    1    3    3    0    0  0.31248574494E+01  0.18721193092E+01 -0.10047678854E+01  0.37787727228E+01  0.00000000000E+00 0. -1.
</event>
<event>
 7    1  0.9930326E-013  0.5052886E+02  0.7816164E-02  0.1300439E+00
        -11   -1    0    0    0    0  0.00000000000E+00  0.00000000000E+00  0.45593999997E+02  0.45594000000E+02  0.51100000000E-03 0.  1.
         11   -1    0    0    0    0 -0.00000000000E+00 -0.00000000000E+00 -0.45593999997E+02  0.45594000000E+02  0.51100000000E-03 0. -1.
    9900012    2    1    2    0    0 -0.19695083354E+02 -0.27569781469E+02 -0.22476132089E+02  0.50528859917E+02  0.30000000204E+02 0.  0.
        -12    1    1    2    0    0  0.19695083354E+02  0.27569781469E+02  0.22476132089E+02  0.40659140083E+02  0.00000000000E+00 0.  1.
         11    1    3    3    0    0 -0.45026619303E+01 -0.65039466157E+01 -0.15567830221E+02  0.17462320124E+02  0.51100000000E-03 0. -1.
        -11    1    3    3    0    0 -0.14329062348E+02 -0.44437894332E+01  0.11052439650E+00  0.15002716694E+02  0.51100000000E-03 0.  1.
        -12    1    3    3    0    0 -0.86335907619E+00 -0.16622045420E+02 -0.70188262644E+01  0.18063823100E+02  0.00000000000E+00 0.  1.
</event>
<event>
 7    1  0.9930326E-013  0.5052890E+02  0.7816164E-02  0.1300439E+00
        -11   -1    0    0    0    0  0.00000000000E+00  0.00000000000E+00  0.45593999997E+02  0.45594000000E+02  0.51100000000E-03 0.  1.
         11   -1    0    0    0    0 -0.00000000000E+00 -0.00000000000E+00 -0.45593999997E+02  0.45594000000E+02  0.51100000000E-03 0. -1.
    9900012    2    1    2    0    0  0.17176846181E+02  0.78250454898E+00 -0.36844351499E+02  0.50528897754E+02  0.30000115212E+02 0.  0.
        -12    1    1    2    0    0 -0.17176846181E+02 -0.78250454898E+00  0.36844351499E+02  0.40659102246E+02  0.00000000000E+00 0.  1.
         11    1    3    3    0    0 -0.62417937002E+00  0.38514440163E+01 -0.15241665538E+02  0.15733136672E+02  0.51100000000E-03 0. -1.
        -11    1    3    3    0    0  0.12170757754E+02 -0.98998247844E+01 -0.58837967119E+01  0.16755683784E+02  0.51100000000E-03 0.  1.
        -12    1    3    3    0    0  0.56302677970E+01  0.68308853171E+01 -0.15718889249E+02  0.18040077297E+02  0.00000000000E+00 0.  1.
</event>
<event>
 7    1  0.9930326E-013  0.5052887E+02  0.7816164E-02  0.1300439E+00
        -11   -1    0    0    0    0  0.00000000000E+00  0.00000000000E+00  0.45593999997E+02  0.45594000000E+02  0.51100000000E-03 0.  1.
         11   -1    0    0    0    0 -0.00000000000E+00 -0.00000000000E+00 -0.45593999997E+02  0.45594000000E+02  0.51100000000E-03 0. -1.
    9900012    2    1    2    0    0  0.18316837165E+02 -0.10107299316E+01 -0.36285493355E+02  0.50528866626E+02  0.30000020597E+02 0.  0.
        -12    1    1    2    0    0 -0.18316837165E+02  0.10107299316E+01  0.36285493355E+02  0.40659133374E+02  0.00000000000E+00 0.  1.
         11    1    3    3    0    0  0.81479393039E+01  0.28110813718E+01 -0.86352923480E+01  0.12200793727E+02  0.51100000000E-03 0. -1.
        -11    1    3    3    0    0 -0.57981099616E+01 -0.92984558650E+00  0.43913878556E+00  0.58885936416E+01  0.51100000000E-03 0.  1.
        -12    1    3    3    0    0  0.15967007823E+02 -0.28919657169E+01 -0.28089339792E+02  0.32439479257E+02  0.00000000000E+00 0.  1.
</event>
<event>
 7    1  0.9930326E-013  0.5052888E+02  0.7816164E-02  0.1300439E+00
        -11   -1    0    0    0    0  0.00000000000E+00  0.00000000000E+00  0.45593999997E+02  0.45594000000E+02  0.51100000000E-03 0. -1.
         11   -1    0    0    0    0 -0.00000000000E+00 -0.00000000000E+00 -0.45593999997E+02  0.45594000000E+02  0.51100000000E-03 0.  1.
    9900012    2    1    2    0    0 -0.26416902239E+02  0.28602872970E+02  0.11712680614E+02  0.50528881057E+02  0.30000064461E+02 0.  0.
        -12    1    1    2    0    0  0.26416902239E+02 -0.28602872970E+02 -0.11712680614E+02  0.40659118943E+02  0.00000000000E+00 0.  1.
         11    1    3    3    0    0  0.15801678132E-01  0.18407430391E+02  0.56764515292E+00  0.18416187569E+02  0.51100000000E-03 0. -1.
        -11    1    3    3    0    0 -0.57921018872E+01  0.23294448927E+01  0.74453098420E+01  0.97163468796E+01  0.51100000000E-03 0.  1.
         12    1    3    3    0    0 -0.20640602030E+02  0.78659976861E+01  0.36997256194E+01  0.22396346609E+02  0.00000000000E+00 0. -1.
</event>
<event>
 7    1  0.9930326E-013  0.5052887E+02  0.7816164E-02  0.1300439E+00
        -11   -1    0    0    0    0  0.00000000000E+00  0.00000000000E+00  0.45593999997E+02  0.45594000000E+02  0.51100000000E-03 0.  1.
         11   -1    0    0    0    0 -0.00000000000E+00 -0.00000000000E+00 -0.45593999997E+02  0.45594000000E+02  0.51100000000E-03 0. -1.
    9900012    2    1    2    0    0  0.32089703024E+02  0.19409517870E+02 -0.15706263025E+02  0.50528866680E+02  0.30000020759E+02 0.  0.
        -12    1    1    2    0    0 -0.32089703024E+02 -0.19409517870E+02  0.15706263025E+02  0.40659133320E+02  0.00000000000E+00 0.  1.
         11    1    3    3    0    0 -0.26514564255E+01  0.69505114277E+01 -0.91649342550E+01  0.11804060761E+02  0.51100000000E-03 0. -1.
        -11    1    3    3    0    0  0.31466582271E+02  0.13456052191E+02 -0.39883078148E+01  0.34454575021E+02  0.51100000000E-03 0.  1.
        -12    1    3    3    0    0  0.32745771790E+01 -0.99704574845E+00 -0.25530209550E+01  0.42702308980E+01  0.00000000000E+00 0.  1.
</event>
<event>
 7    1  0.9930326E-013  0.5052886E+02  0.7816164E-02  0.1300439E+00
        -11   -1    0    0    0    0  0.00000000000E+00  0.00000000000E+00  0.45593999997E+02  0.45594000000E+02  0.51100000000E-03 0.  1.
         11   -1    0    0    0    0 -0.00000000000E+00 -0.00000000000E+00 -0.45593999997E+02  0.45594000000E+02  0.51100000000E-03 0. -1.
    9900012    2    1    2    0    0  0.14393521269E+02  0.97151568051E+01 -0.36764217344E+02  0.50528863227E+02  0.30000010264E+02 0.  0.
        -12    1    1    2    0    0 -0.14393521269E+02 -0.97151568051E+01  0.36764217344E+02  0.40659136773E+02  0.00000000000E+00 0.  1.
         11    1    3    3    0    0  0.22600970139E+01  0.17065658271E+02 -0.25851562889E+02  0.31058783537E+02  0.51100000000E-03 0. -1.
        -11    1    3    3    0    0  0.74814647304E-01 -0.20989880258E+01  0.38043798710E+00  0.21344979004E+01  0.51100000000E-03 0.  1.
         12    1    3    3    0    0  0.12058609608E+02 -0.52515134398E+01 -0.11293092441E+02  0.17335581789E+02  0.00000000000E+00 0. -1.
</event>
<event>
 7    1  0.9930326E-013  0.5052890E+02  0.7816164E-02  0.1300439E+00
        -11   -1    0    0    0    0  0.00000000000E+00  0.00000000000E+00  0.45593999997E+02  0.45594000000E+02  0.51100000000E-03 0.  1.
         11   -1    0    0    0    0 -0.00000000000E+00 -0.00000000000E+00 -0.45593999997E+02  0.45594000000E+02  0.51100000000E-03 0. -1.
    9900012    2    1    2    0    0 -0.15132514417E+02  0.39514809112E+01 -0.37530726652E+02  0.50528897243E+02  0.30000113659E+02 0.  0.
        -12    1    1    2    0    0  0.15132514417E+02 -0.39514809112E+01  0.37530726652E+02  0.40659102757E+02  0.00000000000E+00 0.  1.
         11    1    3    3    0    0  0.74106617744E+00  0.21179976689E+01 -0.17108181898E+02  0.17254708960E+02  0.51100000000E-03 0. -1.
        -11    1    3    3    0    0 -0.10607940508E+02  0.96704460087E+01 -0.50174734805E+01  0.15205951736E+02  0.51100000000E-03 0.  1.
        -12    1    3    3    0    0 -0.52656400870E+01 -0.78369627663E+01 -0.15405071274E+02  0.18068236546E+02  0.00000000000E+00 0.  1.
</event>
<event>
 7    1  0.9930326E-013  0.5052887E+02  0.7816164E-02  0.1300439E+00
        -11   -1    0    0    0    0  0.00000000000E+00  0.00000000000E+00  0.45593999997E+02  0.45594000000E+02  0.51100000000E-03 0. -1.
         11   -1    0    0    0    0 -0.00000000000E+00 -0.00000000000E+00 -0.45593999997E+02  0.45594000000E+02  0.51100000000E-03 0.  1.
    9900012    2    1    2    0    0 -0.11488324469E+02  0.38571668684E+02  0.57801230479E+01  0.50528867611E+02  0.30000023589E+02 0.  0.
        -12    1    1    2    0    0  0.11488324469E+02 -0.38571668684E+02 -0.57801230479E+01  0.40659132389E+02  0.00000000000E+00 0.  1.
         11    1    3    3    0    0 -0.50845500711E+01  0.24788800558E+02  0.13264820244E+02  0.28570837211E+02  0.51100000000E-03 0. -1.
        -11    1    3    3    0    0 -0.10811626987E+02  0.90669242968E+01 -0.60079208374E+01  0.15336085138E+02  0.51100000000E-03 0.  1.
         12    1    3    3    0    0  0.44078525885E+01  0.47159438293E+01 -0.14767763586E+01  0.66219452623E+01  0.00000000000E+00 0. -1.
</event>
<event>
 7    1  0.9930326E-013  0.5052885E+02  0.7816164E-02  0.1300439E+00
        -11   -1    0    0    0    0  0.00000000000E+00  0.00000000000E+00  0.45593999997E+02  0.45594000000E+02  0.51100000000E-03 0. -1.
         11   -1    0    0    0    0 -0.00000000000E+00 -0.00000000000E+00 -0.45593999997E+02  0.45594000000E+02  0.51100000000E-03 0.  1.
    9900012    2    1    2    0    0 -0.18264668613E+01 -0.40611554458E+02  0.72965051356E+00  0.50528846952E+02  0.29999960796E+02 0.  0.
        -12    1    1    2    0    0  0.18264668613E+01  0.40611554458E+02 -0.72965051356E+00  0.40659153048E+02  0.00000000000E+00 0.  1.
         11    1    3    3    0    0  0.10369288861E+01 -0.23050004846E+02  0.18450863566E+01  0.23146971483E+02  0.51100000000E-03 0. -1.
        -11    1    3    3    0    0 -0.21260044837E+01  0.43145527903E+01  0.21184103428E+01  0.52557514673E+01  0.51100000000E-03 0.  1.
        -12    1    3    3    0    0 -0.73739126372E+00 -0.21876102403E+02 -0.32338461858E+01  0.22126124002E+02  0.00000000000E+00 0.  1.
</event>
<event>
 7    1  0.9930326E-013  0.5052886E+02  0.7816164E-02  0.1300439E+00
        -11   -1    0    0    0    0  0.00000000000E+00  0.00000000000E+00  0.45593999997E+02  0.45594000000E+02  0.51100000000E-03 0.  1.
         11   -1    0    0    0    0 -0.00000000000E+00 -0.00000000000E+00 -0.45593999997E+02  0.45594000000E+02  0.51100000000E-03 0. -1.
    9900012    2    1    2    0    0 -0.14849511286E+02  0.72519236047E+01 -0.37149258914E+02  0.50528858110E+02  0.29999994710E+02 0.  0.
        -12    1    1    2    0    0  0.14849511286E+02 -0.72519236047E+01  0.37149258914E+02  0.40659141890E+02  0.00000000000E+00 0.  1.
         11    1    3    3    0    0 -0.90985345946E+01 -0.64514088069E+01 -0.58644603191E+01  0.12601424620E+02  0.51100000000E-03 0.  1.
        -11    1    3    3    0    0 -0.84988124671E+01  0.14799268552E+02 -0.30360171626E+02  0.34827979908E+02  0.51100000000E-03 0. -1.
        -12    1    3    3    0    0  0.27478357758E+01 -0.10959361400E+01 -0.92462696844E+00  0.30994535816E+01  0.00000000000E+00 0.  1.
</event>
<event>
 7    1  0.9930326E-013  0.5052886E+02  0.7816164E-02  0.1300439E+00
        -11   -1    0    0    0    0  0.00000000000E+00  0.00000000000E+00  0.45593999997E+02  0.45594000000E+02  0.51100000000E-03 0. -1.
         11   -1    0    0    0    0 -0.00000000000E+00 -0.00000000000E+00 -0.45593999997E+02  0.45594000000E+02  0.51100000000E-03 0.  1.
    9900012    2    1    2    0    0 -0.51738601605E+01  0.34788169688E+02  0.20400497474E+02  0.50528857407E+02  0.29999992575E+02 0.  0.
        -12    1    1    2    0    0  0.51738601605E+01 -0.34788169688E+02 -0.20400497474E+02  0.40659142593E+02  0.00000000000E+00 0.  1.
         11    1    3    3    0    0 -0.43039973236E+01  0.37369937973E+01 -0.62005881685E+01  0.84223992721E+01  0.51100000000E-03 0. -1.
        -11    1    3    3    0    0  0.35489338442E+01  0.24290909586E+02  0.19470779420E+02  0.31332961421E+02  0.51100000000E-03 0.  1.
         12    1    3    3    0    0 -0.44187966811E+01  0.67602663049E+01  0.71303062223E+01  0.10773496714E+02  0.00000000000E+00 0. -1.
</event>
<event>
 7    1  0.9930326E-013  0.5052886E+02  0.7816164E-02  0.1300439E+00
        -11   -1    0    0    0    0  0.00000000000E+00  0.00000000000E+00  0.45593999997E+02  0.45594000000E+02  0.51100000000E-03 0.  1.
         11   -1    0    0    0    0 -0.00000000000E+00 -0.00000000000E+00 -0.45593999997E+02  0.45594000000E+02  0.51100000000E-03 0. -1.
    9900012    2    1    2    0    0 -0.27802317766E+02 -0.25614809184E+02  0.14969250771E+02  0.50528858453E+02  0.29999995754E+02 0.  0.
        -12    1    1    2    0    0  0.27802317766E+02  0.25614809184E+02 -0.14969250771E+02  0.40659141547E+02  0.00000000000E+00 0.  1.
         11    1    3    3    0    0 -0.18127857097E+02 -0.36475792534E+01  0.10539118963E+02  0.21283727731E+02  0.51100000000E-03 0. -1.
        -11    1    3    3    0    0  0.40933377762E+01 -0.18502271323E+01  0.12402466387E+01  0.46601466262E+01  0.51100000000E-03 0.  1.
         12    1    3    3    0    0 -0.13767798445E+02 -0.20117002799E+02  0.31898851689E+01  0.24584984096E+02  0.00000000000E+00 0. -1.
</event>
<event>
 7    1  0.9930326E-013  0.5052887E+02  0.7816164E-02  0.1300439E+00
        -11   -1    0    0    0    0  0.00000000000E+00  0.00000000000E+00  0.45593999997E+02  0.45594000000E+02  0.51100000000E-03 0.  1.
         11   -1    0    0    0    0 -0.00000000000E+00 -0.00000000000E+00 -0.45593999997E+02  0.45594000000E+02  0.51100000000E-03 0. -1.
    9900012    2    1    2    0    0  0.25114959408E+02  0.25638703928E+02  0.19106554648E+02  0.50528871189E+02  0.30000034466E+02 0.  0.
        -12    1    1    2    0    0 -0.25114959408E+02 -0.25638703928E+02 -0.19106554648E+02  0.40659128811E+02  0.00000000000E+00 0.  1.
         11    1    3    3    0    0  0.27594060124E+02  0.15520401155E+02  0.22472824834E+02  0.38824513679E+02  0.51100000000E-03 0. -1.
        -11    1    3    3    0    0 -0.41963153323E+00  0.75730956624E+01 -0.36514546426E+01  0.84178969941E+01  0.51100000000E-03 0.  1.
         12    1    3    3    0    0 -0.20594691826E+01  0.25452071106E+01  0.28518445690E+00  0.32864605162E+01  0.00000000000E+00 0. -1.
</event>
<event>
 7    1  0.9930326E-013  0.5052887E+02  0.7816164E-02  0.1300439E+00
        -11   -1    0    0    0    0  0.00000000000E+00  0.00000000000E+00  0.45593999997E+02  0.45594000000E+02  0.51100000000E-03 0.  1.
         11   -1    0    0    0    0 -0.00000000000E+00 -0.00000000000E+00 -0.45593999997E+02  0.45594000000E+02  0.51100000000E-03 0. -1.
    9900012    2    1    2    0    0 -0.34380136510E+01 -0.36134424265E+02 -0.18320705846E+02  0.50528870429E+02  0.30000032155E+02 0.  0.
        -12    1    1    2    0    0  0.34380136510E+01  0.36134424265E+02  0.18320705846E+02  0.40659129571E+02  0.00000000000E+00 0.  1.
         11    1    3    3    0    0  0.15995090331E+01  0.11928215292E+00 -0.30247500210E+00  0.16322220336E+01  0.51100000000E-03 0. -1.
        -11    1    3    3    0    0 -0.14698479094E+02 -0.25341201357E+02 -0.57685486854E+01  0.29857962558E+02  0.51100000000E-03 0.  1.
        -12    1    3    3    0    0  0.96609564095E+01 -0.10912505060E+02 -0.12249682158E+02  0.19038685837E+02  0.00000000000E+00 0.  1.
</event>
<event>
 7    1  0.9930326E-013  0.5052887E+02  0.7816164E-02  0.1300439E+00
        -11   -1    0    0    0    0  0.00000000000E+00  0.00000000000E+00  0.45593999997E+02  0.45594000000E+02  0.51100000000E-03 0.  1.
         11   -1    0    0    0    0 -0.00000000000E+00 -0.00000000000E+00 -0.45593999997E+02  0.45594000000E+02  0.51100000000E-03 0. -1.
    9900012    2    1    2    0    0  0.18591712035E+00  0.38169888910E+02 -0.14006791102E+02  0.50528865951E+02  0.30000018546E+02 0.  0.
        -12    1    1    2    0    0 -0.18591712035E+00 -0.38169888910E+02  0.14006791102E+02  0.40659134049E+02  0.00000000000E+00 0.  1.
         11    1    3    3    0    0 -0.18532971731E+01  0.13397836901E+02 -0.15156007817E+02  0.20313574703E+02  0.51100000000E-03 0. -1.
        -11    1    3    3    0    0 -0.29975077243E+01  0.24823206353E+02 -0.18644816029E+00  0.25004227431E+02  0.51100000000E-03 0.  1.
        -12    1    3    3    0    0  0.50367220177E+01 -0.51154344021E-01  0.13356648744E+01  0.52110638173E+01  0.00000000000E+00 0.  1.
</event>
<event>
 7    1  0.9930326E-013  0.5052885E+02  0.7816164E-02  0.1300439E+00
        -11   -1    0    0    0    0  0.00000000000E+00  0.00000000000E+00  0.45593999997E+02  0.45594000000E+02  0.51100000000E-03 0.  1.
         11   -1    0    0    0    0 -0.00000000000E+00 -0.00000000000E+00 -0.45593999997E+02  0.45594000000E+02  0.51100000000E-03 0. -1.
    9900012    2    1    2    0    0  0.47576662368E+01 -0.19855017051E+02 -0.35161188187E+02  0.50528852876E+02  0.29999978802E+02 0.  0.
        -12    1    1    2    0    0 -0.47576662368E+01  0.19855017051E+02  0.35161188187E+02  0.40659147124E+02  0.00000000000E+00 0.  1.
         11    1    3    3    0    0  0.52424459268E-01 -0.19790648929E+02 -0.21546806644E+02  0.29256408019E+02  0.51100000000E-03 0. -1.
        -11    1    3    3    0    0  0.85024692663E+01  0.49567997511E+01 -0.99166653174E+01  0.13971474463E+02  0.51100000000E-03 0.  1.
        -12    1    3    3    0    0 -0.37972274888E+01 -0.50211678723E+01 -0.36977162259E+01  0.73009703938E+01  0.00000000000E+00 0.  1.
</event>
<event>
 7    1  0.9930326E-013  0.5052886E+02  0.7816164E-02  0.1300439E+00
        -11   -1    0    0    0    0  0.00000000000E+00  0.00000000000E+00  0.45593999997E+02  0.45594000000E+02  0.51100000000E-03 0.  1.
         11   -1    0    0    0    0 -0.00000000000E+00 -0.00000000000E+00 -0.45593999997E+02  0.45594000000E+02  0.51100000000E-03 0. -1.
    9900012    2    1    2    0    0 -0.18496703691E+02 -0.13851964343E+02 -0.33453863061E+02  0.50528856904E+02  0.29999991045E+02 0.  0.
        -12    1    1    2    0    0  0.18496703691E+02  0.13851964343E+02  0.33453863061E+02  0.40659143096E+02  0.00000000000E+00 0.  1.
         11    1    3    3    0    0  0.44647608271E+01 -0.98961046546E+01 -0.34915386560E+01  0.11404289501E+02  0.51100000000E-03 0. -1.
        -11    1    3    3    0    0  0.93004040016E+00  0.38474459671E-02 -0.13483623401E+01  0.16380083059E+01  0.51100000000E-03 0.  1.
         12    1    3    3    0    0 -0.23891504919E+02 -0.39597071343E+01 -0.28613962065E+02  0.37486559097E+02  0.00000000000E+00 0. -1.
</event>
<event>
 7    1  0.9930326E-013  0.5052888E+02  0.7816164E-02  0.1300439E+00
        -11   -1    0    0    0    0  0.00000000000E+00  0.00000000000E+00  0.45593999997E+02  0.45594000000E+02  0.51100000000E-03 0.  1.
         11   -1    0    0    0    0 -0.00000000000E+00 -0.00000000000E+00 -0.45593999997E+02  0.45594000000E+02  0.51100000000E-03 0. -1.
    9900012    2    1    2    0    0 -0.28471533671E+02 -0.20561596097E+02 -0.20487967112E+02  0.50528877284E+02  0.30000052993E+02 0.  0.
        -12    1    1    2    0    0  0.28471533671E+02  0.20561596097E+02  0.20487967112E+02  0.40659122716E+02  0.00000000000E+00 0.  1.
         11    1    3    3    0    0 -0.92272322639E+01 -0.18719743934E+02 -0.12267647023E+02  0.24208795756E+02  0.51100000000E-03 0. -1.
        -11    1    3    3    0    0 -0.16968691371E+02  0.22037575093E+01 -0.26927006823E+00  0.17113314718E+02  0.51100000000E-03 0.  1.
        -12    1    3    3    0    0 -0.22756100351E+01 -0.40456096722E+01 -0.79510500210E+01  0.92067668097E+01  0.00000000000E+00 0.  1.
</event>
<event>
 7    1  0.9930326E-013  0.5052886E+02  0.7816164E-02  0.1300439E+00
        -11   -1    0    0    0    0  0.00000000000E+00  0.00000000000E+00  0.45593999997E+02  0.45594000000E+02  0.51100000000E-03 0.  1.
         11   -1    0    0    0    0 -0.00000000000E+00 -0.00000000000E+00 -0.45593999997E+02  0.45594000000E+02  0.51100000000E-03 0. -1.
    9900012    2    1    2    0    0 -0.94614150639E+01  0.28318732897E+02 -0.27598847851E+02  0.50528863135E+02  0.30000009985E+02 0.  0.
        -12    1    1    2    0    0  0.94614150639E+01 -0.28318732897E+02  0.27598847851E+02  0.40659136865E+02  0.00000000000E+00 0.  1.
         11    1    3    3    0    0 -0.15981471606E+02  0.18103512557E+02 -0.18518026776E+02  0.30431265461E+02  0.51100000000E-03 0. -1.
        -11    1    3    3    0    0 -0.16624456311E+01  0.58250783805E+00  0.24308106561E+01  0.30019796077E+01  0.51100000000E-03 0.  1.
         12    1    3    3    0    0  0.81825021733E+01  0.96327125021E+01 -0.11511631731E+02  0.17095618067E+02  0.00000000000E+00 0. -1.
</event>
<event>
 7    1  0.9930326E-013  0.5052886E+02  0.7816164E-02  0.1300439E+00
        -11   -1    0    0    0    0  0.00000000000E+00  0.00000000000E+00  0.45593999997E+02  0.45594000000E+02  0.51100000000E-03 0. -1.
         11   -1    0    0    0    0 -0.00000000000E+00 -0.00000000000E+00 -0.45593999997E+02  0.45594000000E+02  0.51100000000E-03 0.  1.
    9900012    2    1    2    0    0 -0.22698358580E+02 -0.27466483420E+02 -0.19584240621E+02  0.50528859891E+02  0.30000000124E+02 0.  0.
        -12    1    1    2    0    0  0.22698358580E+02  0.27466483420E+02  0.19584240621E+02  0.40659140109E+02  0.00000000000E+00 0.  1.
         11    1    3    3    0    0  0.36815232487E+01 -0.16282533811E+02 -0.56529280953E+01  0.17624701899E+02  0.51100000000E-03 0. -1.
        -11    1    3    3    0    0 -0.14596391242E+01 -0.91475847813E+00  0.10991048918E+01  0.20433700767E+01  0.51100000000E-03 0.  1.
         12    1    3    3    0    0 -0.24920242705E+02 -0.10269191131E+02 -0.15030417418E+02  0.30860787915E+02  0.00000000000E+00 0. -1.
</event>
<event>
 7    1  0.9930326E-013  0.5052887E+02  0.7816164E-02  0.1300439E+00
        -11   -1    0    0    0    0  0.00000000000E+00  0.00000000000E+00  0.45593999997E+02  0.45594000000E+02  0.51100000000E-03 0.  1.
         11   -1    0    0    0    0 -0.00000000000E+00 -0.00000000000E+00 -0.45593999997E+02  0.45594000000E+02  0.51100000000E-03 0. -1.
    9900012    2    1    2    0    0 -0.22833008411E+02  0.26342848541E+02 -0.20925405548E+02  0.50528873844E+02  0.30000042537E+02 0.  0.
        -12    1    1    2    0    0  0.22833008411E+02 -0.26342848541E+02  0.20925405548E+02  0.40659126156E+02  0.00000000000E+00 0.  1.
         11    1    3    3    0    0  0.15843059955E+01  0.71572623273E+01  0.44199977168E-01  0.73306468615E+01  0.51100000000E-03 0. -1.
        -11    1    3    3    0    0 -0.25967707866E+02  0.15938531418E+02 -0.23765551916E+02  0.38641429758E+02  0.51100000000E-03 0.  1.
        -12    1    3    3    0    0  0.15503934595E+01  0.32470547958E+01  0.27959463910E+01  0.45567972248E+01  0.00000000000E+00 0.  1.
</event>
<event>
 7    1  0.9930326E-013  0.5052882E+02  0.7816164E-02  0.1300439E+00
        -11   -1    0    0    0    0  0.00000000000E+00  0.00000000000E+00  0.45593999997E+02  0.45594000000E+02  0.51100000000E-03 0.  1.
         11   -1    0    0    0    0 -0.00000000000E+00 -0.00000000000E+00 -0.45593999997E+02  0.45594000000E+02  0.51100000000E-03 0. -1.
    9900012    2    1    2    0    0  0.79457811852E+00 -0.39235468669E+02 -0.10635561808E+02  0.50528824762E+02  0.29999893346E+02 0.  0.
        -12    1    1    2    0    0 -0.79457811852E+00  0.39235468669E+02  0.10635561808E+02  0.40659175238E+02  0.00000000000E+00 0.  1.
         11    1    3    3    0    0  0.85927795848E+01 -0.18684891761E+02 -0.16623858514E+02  0.26444540330E+02  0.51100000000E-03 0. -1.
        -11    1    3    3    0    0 -0.40825118731E+01 -0.27075606293E+01  0.26008439144E+01  0.55463661152E+01  0.51100000000E-03 0.  1.
         12    1    3    3    0    0 -0.37156895932E+01 -0.17843016279E+02  0.33874527917E+01  0.18537918316E+02  0.00000000000E+00 0. -1.
</event>
<event>
 7    1  0.9930326E-013  0.5052886E+02  0.7816164E-02  0.1300439E+00
        -11   -1    0    0    0    0  0.00000000000E+00  0.00000000000E+00  0.45593999997E+02  0.45594000000E+02  0.51100000000E-03 0.  1.
         11   -1    0    0    0    0 -0.00000000000E+00 -0.00000000000E+00 -0.45593999997E+02  0.45594000000E+02  0.51100000000E-03 0. -1.
    9900012    2    1    2    0    0  0.39151528604E+01  0.36964097709E+02 -0.16477037006E+02  0.50528859700E+02  0.29999999545E+02 0.  0.
        -12    1    1    2    0    0 -0.39151528604E+01 -0.36964097709E+02  0.16477037006E+02  0.40659140300E+02  0.00000000000E+00 0.  1.
         11    1    3    3    0    0  0.20748336751E+01 -0.19618427397E+01 -0.42779885255E+01  0.51434373526E+01  0.51100000000E-03 0. -1.
        -11    1    3    3    0    0 -0.64447507841E+00  0.30095429773E+02 -0.17471015750E+02  0.34804980002E+02  0.51100000000E-03 0.  1.
        -12    1    3    3    0    0  0.24847942637E+01  0.88305106764E+01  0.52719672695E+01  0.10580442346E+02  0.00000000000E+00 0.  1.
</event>
<event>
 7    1  0.9930326E-013  0.5052887E+02  0.7816164E-02  0.1300439E+00
        -11   -1    0    0    0    0  0.00000000000E+00  0.00000000000E+00  0.45593999997E+02  0.45594000000E+02  0.51100000000E-03 0.  1.
         11   -1    0    0    0    0 -0.00000000000E+00 -0.00000000000E+00 -0.45593999997E+02  0.45594000000E+02  0.51100000000E-03 0. -1.
    9900012    2    1    2    0    0 -0.25163585861E+02 -0.31901026522E+02 -0.15110863828E+01  0.50528869062E+02  0.30000028002E+02 0.  0.
        -12    1    1    2    0    0  0.25163585861E+02  0.31901026522E+02  0.15110863828E+01  0.40659130938E+02  0.00000000000E+00 0.  1.
         11    1    3    3    0    0 -0.76379061811E+01 -0.20784131400E+02 -0.11485184602E+02  0.24944482245E+02  0.51100000000E-03 0. -1.
        -11    1    3    3    0    0 -0.14033990693E+02 -0.12368667971E+02  0.11044590645E+02  0.21723715726E+02  0.51100000000E-03 0.  1.
        -12    1    3    3    0    0 -0.34916889870E+01  0.12517728483E+01 -0.10704924263E+01  0.38606710919E+01  0.00000000000E+00 0.  1.
</event>
<event>
 7    1  0.9930326E-013  0.5052886E+02  0.7816164E-02  0.1300439E+00
        -11   -1    0    0    0    0  0.00000000000E+00  0.00000000000E+00  0.45593999997E+02  0.45594000000E+02  0.51100000000E-03 0. -1.
         11   -1    0    0    0    0 -0.00000000000E+00 -0.00000000000E+00 -0.45593999997E+02  0.45594000000E+02  0.51100000000E-03 0.  1.
    9900012    2    1    2    0    0  0.86535389442E+01  0.37325581763E+02  0.13604508111E+02  0.50528862882E+02  0.30000009217E+02 0.  0.
        -12    1    1    2    0    0 -0.86535389442E+01 -0.37325581763E+02 -0.13604508111E+02  0.40659137118E+02  0.00000000000E+00 0.  1.
         11    1    3    3    0    0  0.49157928255E+01  0.16375841660E+02  0.21018582901E+02  0.27094538870E+02  0.51100000000E-03 0. -1.
        -11    1    3    3    0    0  0.30346859800E+01  0.53865495571E+01 -0.43428116684E+01  0.75554118734E+01  0.51100000000E-03 0.  1.
         12    1    3    3    0    0  0.70306013857E+00  0.15563190547E+02 -0.30712631215E+01  0.15878912139E+02  0.00000000000E+00 0. -1.
</event>
<event>
 7    1  0.9930326E-013  0.5052885E+02  0.7816164E-02  0.1300439E+00
        -11   -1    0    0    0    0  0.00000000000E+00  0.00000000000E+00  0.45593999997E+02  0.45594000000E+02  0.51100000000E-03 0. -1.
         11   -1    0    0    0    0 -0.00000000000E+00 -0.00000000000E+00 -0.45593999997E+02  0.45594000000E+02  0.51100000000E-03 0.  1.
    9900012    2    1    2    0    0  0.31369637499E+02  0.14992076834E+01  0.25823717022E+02  0.50528854149E+02  0.29999982673E+02 0.  0.
        -12    1    1    2    0    0 -0.31369637499E+02 -0.14992076834E+01 -0.25823717022E+02  0.40659145851E+02  0.00000000000E+00 0.  1.
         11    1    3    3    0    0  0.12350909454E+02  0.10683303420E+02  0.78238124116E+01  0.18107732526E+02  0.51100000000E-03 0. -1.
        -11    1    3    3    0    0  0.69871590968E+01 -0.12636942914E+02  0.10040361542E+02  0.17587540437E+02  0.51100000000E-03 0.  1.
        -12    1    3    3    0    0  0.12031568948E+02  0.34528471780E+01  0.79595430679E+01  0.14833581187E+02  0.00000000000E+00 0.  1.
</event>
<event>
 7    1  0.1946166E-012  0.5052885E+02  0.7816164E-02  0.1300439E+00
        -11   -1    0    0    0    0  0.00000000000E+00  0.00000000000E+00  0.45593999997E+02  0.45594000000E+02  0.51100000000E-03 0. -1.
         11   -1    0    0    0    0 -0.00000000000E+00 -0.00000000000E+00 -0.45593999997E+02  0.45594000000E+02  0.51100000000E-03 0.  1.
    9900012    2    1    2    0    0 -0.14199238335E+02  0.10082644734E+02  0.36740825241E+02  0.50528851785E+02  0.29999975486E+02 0.  0.
        -12    1    1    2    0    0  0.14199238335E+02 -0.10082644734E+02 -0.36740825241E+02  0.40659148215E+02  0.00000000000E+00 0.  1.
         11    1    3    3    0    0 -0.37823510513E+01 -0.44195981170E+01  0.15429154047E+02  0.16489324482E+02  0.51100000000E-03 0. -1.
        -11    1    3    3    0    0 -0.16065193421E+02  0.87166145076E+01  0.12896444576E+02  0.22369356072E+02  0.51100000000E-03 0.  1.
        -12    1    3    3    0    0  0.56483061364E+01  0.57856283432E+01  0.84152266182E+01  0.11670171231E+02  0.00000000000E+00 0.  1.
</event>
<event>
 7    1  0.9930326E-013  0.5052890E+02  0.7816164E-02  0.1300439E+00
        -11   -1    0    0    0    0  0.00000000000E+00  0.00000000000E+00  0.45593999997E+02  0.45594000000E+02  0.51100000000E-03 0.  1.
         11   -1    0    0    0    0 -0.00000000000E+00 -0.00000000000E+00 -0.45593999997E+02  0.45594000000E+02  0.51100000000E-03 0. -1.
    9900012    2    1    2    0    0 -0.10032137315E+01 -0.22365176964E+02 -0.33940458313E+02  0.50528901523E+02  0.30000126671E+02 0.  0.
        -12    1    1    2    0    0  0.10032137315E+01  0.22365176964E+02  0.33940458313E+02  0.40659098477E+02  0.00000000000E+00 0.  1.
         11    1    3    3    0    0  0.12756438994E+01  0.11563323593E+00 -0.11357280599E+02  0.11429280873E+02  0.51100000000E-03 0. -1.
        -11    1    3    3    0    0  0.48716183085E+01 -0.20904146745E+02 -0.82326275916E+01  0.22988957640E+02  0.51100000000E-03 0.  1.
        -12    1    3    3    0    0 -0.71504759394E+01 -0.15766634550E+01 -0.14350550122E+02  0.16110663010E+02  0.00000000000E+00 0.  1.
</event>
<event>
 7    1  0.9930326E-013  0.5052888E+02  0.7816164E-02  0.1300439E+00
        -11   -1    0    0    0    0  0.00000000000E+00  0.00000000000E+00  0.45593999997E+02  0.45594000000E+02  0.51100000000E-03 0.  1.
         11   -1    0    0    0    0 -0.00000000000E+00 -0.00000000000E+00 -0.45593999997E+02  0.45594000000E+02  0.51100000000E-03 0. -1.
    9900012    2    1    2    0    0  0.14310672706E+02  0.41052220511E+00 -0.38055224844E+02  0.50528880240E+02  0.30000061976E+02 0.  0.
        -12    1    1    2    0    0 -0.14310672706E+02 -0.41052220511E+00  0.38055224844E+02  0.40659119760E+02  0.00000000000E+00 0.  1.
         11    1    3    3    0    0  0.21517950158E+02  0.36464057452E+01 -0.36377206762E+02  0.42421923883E+02  0.51100000000E-03 0. -1.
        -11    1    3    3    0    0 -0.18829224879E+01 -0.85208717983E+00 -0.12694371904E+00  0.20706435295E+01  0.51100000000E-03 0.  1.
         12    1    3    3    0    0 -0.53243549638E+01 -0.23837963602E+01 -0.15510743625E+01  0.60363128270E+01  0.00000000000E+00 0. -1.
</event>
<event>
 7    1  0.9930326E-013  0.5052887E+02  0.7816164E-02  0.1300439E+00
        -11   -1    0    0    0    0  0.00000000000E+00  0.00000000000E+00  0.45593999997E+02  0.45594000000E+02  0.51100000000E-03 0.  1.
         11   -1    0    0    0    0 -0.00000000000E+00 -0.00000000000E+00 -0.45593999997E+02  0.45594000000E+02  0.51100000000E-03 0. -1.
    9900012    2    1    2    0    0  0.20514488283E+01  0.38129249679E+02 -0.13968424534E+02  0.50528868094E+02  0.30000025060E+02 0.  0.
        -12    1    1    2    0    0 -0.20514488283E+01 -0.38129249679E+02  0.13968424534E+02  0.40659131906E+02  0.00000000000E+00 0.  1.
         11    1    3    3    0    0  0.53996102515E+01  0.10835492528E+02  0.61879131506E+01  0.13596100861E+02  0.51100000000E-03 0. -1.
        -11    1    3    3    0    0 -0.63015473393E+01  0.10160701117E+02 -0.14181575333E+02  0.18549027609E+02  0.51100000000E-03 0.  1.
        -12    1    3    3    0    0  0.29533859161E+01  0.17133056034E+02 -0.59747623510E+01  0.18383739624E+02  0.00000000000E+00 0.  1.
</event>
<event>
 7    1  0.9930326E-013  0.5052886E+02  0.7816164E-02  0.1300439E+00
        -11   -1    0    0    0    0  0.00000000000E+00  0.00000000000E+00  0.45593999997E+02  0.45594000000E+02  0.51100000000E-03 0.  1.
         11   -1    0    0    0    0 -0.00000000000E+00 -0.00000000000E+00 -0.45593999997E+02  0.45594000000E+02  0.51100000000E-03 0. -1.
    9900012    2    1    2    0    0 -0.37719142951E+02  0.77921321268E+01 -0.13027462561E+02  0.50528857746E+02  0.29999993604E+02 0.  0.
        -12    1    1    2    0    0  0.37719142951E+02 -0.77921321268E+01  0.13027462561E+02  0.40659142254E+02  0.00000000000E+00 0.  1.
         11    1    3    3    0    0 -0.10154893274E+02  0.65742288825E+01  0.13166426113E+01  0.12168643755E+02  0.51100000000E-03 0. -1.
        -11    1    3    3    0    0 -0.30087390550E+02  0.42270486041E+01 -0.15707876619E+02  0.34203163569E+02  0.51100000000E-03 0.  1.
        -12    1    3    3    0    0  0.25231408720E+01 -0.30091453597E+01  0.13637714465E+01  0.41570504224E+01  0.00000000000E+00 0.  1.
</event>
<event>
 7    1  0.9930326E-013  0.5052886E+02  0.7816164E-02  0.1300439E+00
        -11   -1    0    0    0    0  0.00000000000E+00  0.00000000000E+00  0.45593999997E+02  0.45594000000E+02  0.51100000000E-03 0.  1.
         11   -1    0    0    0    0 -0.00000000000E+00 -0.00000000000E+00 -0.45593999997E+02  0.45594000000E+02  0.51100000000E-03 0. -1.
    9900012    2    1    2    0    0  0.11183274169E+01  0.37634443813E+02  0.15348089309E+02  0.50528857575E+02  0.29999993085E+02 0.  0.
        -12    1    1    2    0    0 -0.11183274169E+01 -0.37634443813E+02 -0.15348089309E+02  0.40659142425E+02  0.00000000000E+00 0.  1.
         11    1    3    3    0    0  0.13572922609E+01  0.12891267428E+02  0.68403420530E+01  0.14656646883E+02  0.51100000000E-03 0. -1.
        -11    1    3    3    0    0 -0.20111850060E+01 -0.43814102593E+00 -0.62851021627E+01  0.66135725704E+01  0.51100000000E-03 0.  1.
        -12    1    3    3    0    0  0.17722201619E+01  0.25181317410E+02  0.14792849419E+02  0.29258638122E+02  0.00000000000E+00 0.  1.
</event>
<event>
 7    1  0.9930326E-013  0.5052886E+02  0.7816164E-02  0.1300439E+00
        -11   -1    0    0    0    0  0.00000000000E+00  0.00000000000E+00  0.45593999997E+02  0.45594000000E+02  0.51100000000E-03 0.  1.
         11   -1    0    0    0    0 -0.00000000000E+00 -0.00000000000E+00 -0.45593999997E+02  0.45594000000E+02  0.51100000000E-03 0. -1.
    9900012    2    1    2    0    0  0.32688266126E+02 -0.23285812290E+02 -0.65126111366E+01  0.50528857115E+02  0.29999991688E+02 0.  0.
        -12    1    1    2    0    0 -0.32688266126E+02  0.23285812290E+02  0.65126111366E+01  0.40659142885E+02  0.00000000000E+00 0.  1.
         11    1    3    3    0    0  0.18110236365E+02 -0.17443862035E+02  0.45840568783E+00  0.25149137558E+02  0.51100000000E-03 0. -1.
        -11    1    3    3    0    0 -0.20903299627E+01 -0.32810427670E+01 -0.75635097205E+01  0.85053748033E+01  0.51100000000E-03 0.  1.
        -12    1    3    3    0    0  0.16668359724E+02 -0.25609074878E+01  0.59249289602E+00  0.16874344754E+02  0.00000000000E+00 0.  1.
</event>
<event>
 7    1  0.9930326E-013  0.5052886E+02  0.7816164E-02  0.1300439E+00
        -11   -1    0    0    0    0  0.00000000000E+00  0.00000000000E+00  0.45593999997E+02  0.45594000000E+02  0.51100000000E-03 0.  1.
         11   -1    0    0    0    0 -0.00000000000E+00 -0.00000000000E+00 -0.45593999997E+02  0.45594000000E+02  0.51100000000E-03 0. -1.
    9900012    2    1    2    0    0  0.75525371866E+00  0.85841385307E+00 -0.40643060525E+02  0.50528860175E+02  0.30000000987E+02 0.  0.
        -12    1    1    2    0    0 -0.75525371866E+00 -0.85841385307E+00  0.40643060525E+02  0.40659139825E+02  0.00000000000E+00 0.  1.
         11    1    3    3    0    0 -0.69752853062E+01 -0.63776835882E+01 -0.12067892134E+02  0.15328518320E+02  0.51100000000E-03 0. -1.
        -11    1    3    3    0    0  0.15296704246E+01  0.12391744081E+02 -0.16967087943E+02  0.21066022085E+02  0.51100000000E-03 0.  1.
        -12    1    3    3    0    0  0.62008686003E+01 -0.51556466400E+01 -0.11608080448E+02  0.14134319770E+02  0.00000000000E+00 0.  1.
</event>
<event>
 7    1  0.9930326E-013  0.5052886E+02  0.7816164E-02  0.1300439E+00
        -11   -1    0    0    0    0  0.00000000000E+00  0.00000000000E+00  0.45593999997E+02  0.45594000000E+02  0.51100000000E-03 0.  1.
         11   -1    0    0    0    0 -0.00000000000E+00 -0.00000000000E+00 -0.45593999997E+02  0.45594000000E+02  0.51100000000E-03 0. -1.
    9900012    2    1    2    0    0  0.21946368344E+02 -0.33998698304E+02  0.39510750568E+01  0.50528861250E+02  0.30000004254E+02 0.  0.
        -12    1    1    2    0    0 -0.21946368344E+02  0.33998698304E+02 -0.39510750568E+01  0.40659138750E+02  0.00000000000E+00 0.  1.
         11    1    3    3    0    0  0.41926209924E+01 -0.18234659849E+02 -0.11013236848E+02  0.21711109524E+02  0.51100000000E-03 0. -1.
        -11    1    3    3    0    0  0.90958333412E+01 -0.43785419373E+01  0.81493902570E+01  0.12973757185E+02  0.51100000000E-03 0.  1.
         12    1    3    3    0    0  0.86579140102E+01 -0.11385496517E+02  0.68149216481E+01  0.15843994541E+02  0.00000000000E+00 0. -1.
</event>
<event>
 7    1  0.9930326E-013  0.5052886E+02  0.7816164E-02  0.1300439E+00
        -11   -1    0    0    0    0  0.00000000000E+00  0.00000000000E+00  0.45593999997E+02  0.45594000000E+02  0.51100000000E-03 0.  1.
         11   -1    0    0    0    0 -0.00000000000E+00 -0.00000000000E+00 -0.45593999997E+02  0.45594000000E+02  0.51100000000E-03 0. -1.
    9900012    2    1    2    0    0  0.21887412134E+02  0.20836833197E+02 -0.27201716653E+02  0.50528858144E+02  0.29999994814E+02 0.  0.
        -12    1    1    2    0    0 -0.21887412134E+02 -0.20836833197E+02  0.27201716653E+02  0.40659141856E+02  0.00000000000E+00 0.  1.
         11    1    3    3    0    0  0.83138233795E+01  0.82336161056E+01  0.23435890786E+01  0.11933335803E+02  0.51100000000E-03 0. -1.
        -11    1    3    3    0    0  0.14421725595E+02  0.25583255414E+01 -0.15729061033E+02  0.21492662933E+02  0.51100000000E-03 0.  1.
         12    1    3    3    0    0 -0.84813684060E+00  0.10044891550E+02 -0.13816244699E+02  0.17102859408E+02  0.00000000000E+00 0. -1.
</event>
<event>
 7    1  0.9930326E-013  0.5052887E+02  0.7816164E-02  0.1300439E+00
        -11   -1    0    0    0    0  0.00000000000E+00  0.00000000000E+00  0.45593999997E+02  0.45594000000E+02  0.51100000000E-03 0. -1.
         11   -1    0    0    0    0 -0.00000000000E+00 -0.00000000000E+00 -0.45593999997E+02  0.45594000000E+02  0.51100000000E-03 0.  1.
    9900012    2    1    2    0    0  0.16533285138E+02 -0.32605736014E+02 -0.17795544309E+02  0.50528868975E+02  0.30000027735E+02 0.  0.
        -12    1    1    2    0    0 -0.16533285138E+02  0.32605736014E+02  0.17795544309E+02  0.40659131025E+02  0.00000000000E+00 0.  1.
         11    1    3    3    0    0  0.98325885291E+01 -0.19267619016E+02 -0.11007654727E+02  0.24271164014E+02  0.51100000000E-03 0. -1.
        -11    1    3    3    0    0 -0.48915901651E+01 -0.19623342874E+00 -0.72260623111E+01  0.87282380059E+01  0.51100000000E-03 0.  1.
        -12    1    3    3    0    0  0.11592286774E+02 -0.13141883569E+02  0.43817272831E+00  0.17529466955E+02  0.00000000000E+00 0.  1.
</event>
<event>
 7    1  0.9930326E-013  0.5052886E+02  0.7816164E-02  0.1300439E+00
        -11   -1    0    0    0    0  0.00000000000E+00  0.00000000000E+00  0.45593999997E+02  0.45594000000E+02  0.51100000000E-03 0. -1.
         11   -1    0    0    0    0 -0.00000000000E+00 -0.00000000000E+00 -0.45593999997E+02  0.45594000000E+02  0.51100000000E-03 0.  1.
    9900012    2    1    2    0    0  0.28948871686E+02  0.20081383858E+02  0.20294497630E+02  0.50528858548E+02  0.29999996044E+02 0.  0.
        -12    1    1    2    0    0 -0.28948871686E+02 -0.20081383858E+02 -0.20294497630E+02  0.40659141452E+02  0.00000000000E+00 0.  1.
         11    1    3    3    0    0  0.30305197603E+01  0.63121918905E+01  0.75528237719E+01  0.10299172961E+02  0.51100000000E-03 0. -1.
        -11    1    3    3    0    0  0.14499807254E+02  0.13570733200E+02 -0.37094043092E+01  0.20203190109E+02  0.51100000000E-03 0.  1.
        -12    1    3    3    0    0  0.11418544671E+02  0.19845876720E+00  0.16451078167E+02  0.20026495478E+02  0.00000000000E+00 0.  1.
</event>
<event>
 7    1  0.9930326E-013  0.5052887E+02  0.7816164E-02  0.1300439E+00
        -11   -1    0    0    0    0  0.00000000000E+00  0.00000000000E+00  0.45593999997E+02  0.45594000000E+02  0.51100000000E-03 0. -1.
         11   -1    0    0    0    0 -0.00000000000E+00 -0.00000000000E+00 -0.45593999997E+02  0.45594000000E+02  0.51100000000E-03 0.  1.
    9900012    2    1    2    0    0  0.12666205032E+01  0.40006082711E+02  0.71465938489E+01  0.50528870828E+02  0.30000033368E+02 0.  0.
        -12    1    1    2    0    0 -0.12666205032E+01 -0.40006082711E+02 -0.71465938489E+01  0.40659129172E+02  0.00000000000E+00 0.  1.
         11    1    3    3    0    0  0.73206342894E+00 -0.93819155341E+00 -0.62011682918E+01  0.63143177541E+01  0.51100000000E-03 0.  1.
        -11    1    3    3    0    0  0.40851034739E+01  0.22893810322E+02  0.40620634029E+01  0.23607519582E+02  0.51100000000E-03 0. -1.
        -12    1    3    3    0    0 -0.35505463997E+01  0.18050463943E+02  0.92856987378E+01  0.20607033492E+02  0.00000000000E+00 0.  1.
</event>
<event>
 7    1  0.9930326E-013  0.5052880E+02  0.7816164E-02  0.1300439E+00
        -11   -1    0    0    0    0  0.00000000000E+00  0.00000000000E+00  0.45593999997E+02  0.45594000000E+02  0.51100000000E-03 0. -1.
         11   -1    0    0    0    0 -0.00000000000E+00 -0.00000000000E+00 -0.45593999997E+02  0.45594000000E+02  0.51100000000E-03 0.  1.
    9900012    2    1    2    0    0 -0.71219225862E+01 -0.29382230232E+02  0.27187002929E+02  0.50528802234E+02  0.29999824869E+02 0.  0.
        -12    1    1    2    0    0  0.71219225862E+01  0.29382230232E+02 -0.27187002929E+02  0.40659197766E+02  0.00000000000E+00 0.  1.
         11    1    3    3    0    0 -0.90417461343E+01 -0.28163368471E+02  0.30087256682E+02  0.42192078779E+02  0.51100000000E-03 0. -1.
        -11    1    3    3    0    0 -0.73459720136E+00  0.28284944311E+01 -0.15687247448E+01  0.33167621834E+01  0.51100000000E-03 0.  1.
         12    1    3    3    0    0  0.26544207495E+01 -0.40473561919E+01 -0.13315290082E+01  0.50199612707E+01  0.00000000000E+00 0. -1.
</event>
<event>
 7    1  0.9930326E-013  0.5052886E+02  0.7816164E-02  0.1300439E+00
        -11   -1    0    0    0    0  0.00000000000E+00  0.00000000000E+00  0.45593999997E+02  0.45594000000E+02  0.51100000000E-03 0. -1.
         11   -1    0    0    0    0 -0.00000000000E+00 -0.00000000000E+00 -0.45593999997E+02  0.45594000000E+02  0.51100000000E-03 0.  1.
    9900012    2    1    2    0    0 -0.21924604654E+00 -0.13752230287E+02  0.38262174965E+02  0.50528856628E+02  0.29999990206E+02 0.  0.
        -12    1    1    2    0    0  0.21924604654E+00  0.13752230287E+02 -0.38262174965E+02  0.40659143372E+02  0.00000000000E+00 0.  1.
         11    1    3    3    0    0  0.16696651940E+01  0.23110334713E+00  0.62270234428E+01  0.64511248504E+01  0.51100000000E-03 0. -1.
        -11    1    3    3    0    0  0.65632872108E+01 -0.18898748612E+02  0.17617650682E+02  0.26657476511E+02  0.51100000000E-03 0.  1.
        -12    1    3    3    0    0 -0.84521984513E+01  0.49154149784E+01  0.14417500840E+02  0.17420255266E+02  0.00000000000E+00 0.  1.
</event>
<event>
 7    1  0.9930326E-013  0.5052887E+02  0.7816164E-02  0.1300439E+00
        -11   -1    0    0    0    0  0.00000000000E+00  0.00000000000E+00  0.45593999997E+02  0.45594000000E+02  0.51100000000E-03 0. -1.
         11   -1    0    0    0    0 -0.00000000000E+00 -0.00000000000E+00 -0.45593999997E+02  0.45594000000E+02  0.51100000000E-03 0.  1.
    9900012    2    1    2    0    0  0.21044535892E+02 -0.33628818319E+02  0.89103811838E+01  0.50528870579E+02  0.30000032611E+02 0.  0.
        -12    1    1    2    0    0 -0.21044535892E+02  0.33628818319E+02 -0.89103811838E+01  0.40659129421E+02  0.00000000000E+00 0.  1.
         11    1    3    3    0    0  0.52138520057E+01 -0.18753726055E+02 -0.21064244458E+01  0.19578649542E+02  0.51100000000E-03 0. -1.
        -11    1    3    3    0    0  0.47957520976E+01  0.44844068214E+01  0.15956073046E+01  0.67568561960E+01  0.51100000000E-03 0.  1.
        -12    1    3    3    0    0  0.11034931789E+02 -0.19359499086E+02  0.94211983250E+01  0.24193364841E+02  0.00000000000E+00 0.  1.
</event>
<event>
 7    1  0.9930326E-013  0.5052887E+02  0.7816164E-02  0.1300439E+00
        -11   -1    0    0    0    0  0.00000000000E+00  0.00000000000E+00  0.45593999997E+02  0.45594000000E+02  0.51100000000E-03 0. -1.
         11   -1    0    0    0    0 -0.00000000000E+00 -0.00000000000E+00 -0.45593999997E+02  0.45594000000E+02  0.51100000000E-03 0.  1.
    9900012    2    1    2    0    0 -0.11407281576E+02  0.20137045713E+02  0.33429605050E+02  0.50528866010E+02  0.30000018724E+02 0.  0.
        -12    1    1    2    0    0  0.11407281576E+02 -0.20137045713E+02 -0.33429605050E+02  0.40659133990E+02  0.00000000000E+00 0.  1.
         11    1    3    3    0    0  0.29754592092E+00 -0.20790756359E-01  0.22002685078E+02  0.22004706695E+02  0.51100000000E-03 0. -1.
        -11    1    3    3    0    0 -0.82162722042E+01  0.14773826919E+02  0.18621038611E+01  0.17007072700E+02  0.51100000000E-03 0.  1.
        -12    1    3    3    0    0 -0.34885552927E+01  0.53840095508E+01  0.95648161104E+01  0.11517086615E+02  0.00000000000E+00 0.  1.
</event>
<event>
 7    1  0.9930326E-013  0.5052886E+02  0.7816164E-02  0.1300439E+00
        -11   -1    0    0    0    0  0.00000000000E+00  0.00000000000E+00  0.45593999997E+02  0.45594000000E+02  0.51100000000E-03 0. -1.
         11   -1    0    0    0    0 -0.00000000000E+00 -0.00000000000E+00 -0.45593999997E+02  0.45594000000E+02  0.51100000000E-03 0.  1.
    9900012    2    1    2    0    0 -0.24047736022E+02 -0.14372775416E+02  0.29466850850E+02  0.50528861053E+02  0.30000003656E+02 0.  0.
        -12    1    1    2    0    0  0.24047736022E+02  0.14372775416E+02 -0.29466850850E+02  0.40659138947E+02  0.00000000000E+00 0.  1.
         11    1    3    3    0    0 -0.62588731387E+01 -0.67903028671E+01  0.18278080504E+02  0.20478523706E+02  0.51100000000E-03 0. -1.
        -11    1    3    3    0    0 -0.16740989702E+02 -0.35267002133E+01 -0.10240899317E+01  0.17139052221E+02  0.51100000000E-03 0.  1.
        -12    1    3    3    0    0 -0.10478731810E+01 -0.40557723352E+01  0.12212860278E+02  0.12911285126E+02  0.00000000000E+00 0.  1.
</event>
<event>
 7    1  0.9930326E-013  0.5052894E+02  0.7816164E-02  0.1300439E+00
        -11   -1    0    0    0    0  0.00000000000E+00  0.00000000000E+00  0.45593999997E+02  0.45594000000E+02  0.51100000000E-03 0.  1.
         11   -1    0    0    0    0 -0.00000000000E+00 -0.00000000000E+00 -0.45593999997E+02  0.45594000000E+02  0.51100000000E-03 0. -1.
    9900012    2    1    2    0    0  0.20125385748E+02 -0.35079321452E+02 -0.41915397267E+01  0.50528942579E+02  0.30000251463E+02 0.  0.
        -12    1    1    2    0    0 -0.20125385748E+02  0.35079321452E+02  0.41915397267E+01  0.40659057421E+02  0.00000000000E+00 0.  1.
         11    1    3    3    0    0  0.52546315853E+01 -0.49456809426E+01 -0.21419822266E+01  0.75272173613E+01  0.51100000000E-03 0. -1.
        -11    1    3    3    0    0  0.37989052568E+01  0.30830206233E+01 -0.60274426064E+01  0.77631670051E+01  0.51100000000E-03 0.  1.
        -12    1    3    3    0    0  0.11071848906E+02 -0.33216661133E+02  0.39778851063E+01  0.35238558213E+02  0.00000000000E+00 0.  1.
</event>
<event>
 7    1  0.9930326E-013  0.5052886E+02  0.7816164E-02  0.1300439E+00
        -11   -1    0    0    0    0  0.00000000000E+00  0.00000000000E+00  0.45593999997E+02  0.45594000000E+02  0.51100000000E-03 0. -1.
         11   -1    0    0    0    0 -0.00000000000E+00 -0.00000000000E+00 -0.45593999997E+02  0.45594000000E+02  0.51100000000E-03 0.  1.
    9900012    2    1    2    0    0 -0.32156595695E+02 -0.23843337870E+02  0.71143885668E+01  0.50528856722E+02  0.29999990491E+02 0.  0.
        -12    1    1    2    0    0  0.32156595695E+02  0.23843337870E+02 -0.71143885668E+01  0.40659143278E+02  0.00000000000E+00 0.  1.
         11    1    3    3    0    0 -0.25306514524E+02 -0.92501933051E+01  0.11861279953E+02  0.29439356581E+02  0.51100000000E-03 0. -1.
        -11    1    3    3    0    0 -0.46605611253E+01 -0.16363291922E+02 -0.19577405706E+01  0.17126321874E+02  0.51100000000E-03 0.  1.
         12    1    3    3    0    0 -0.21895200455E+01  0.17701473574E+01 -0.27891508157E+01  0.39631782661E+01  0.00000000000E+00 0. -1.
</event>
<event>
 7    1  0.9930326E-013  0.5052883E+02  0.7816164E-02  0.1300439E+00
        -11   -1    0    0    0    0  0.00000000000E+00  0.00000000000E+00  0.45593999997E+02  0.45594000000E+02  0.51100000000E-03 0. -1.
         11   -1    0    0    0    0 -0.00000000000E+00 -0.00000000000E+00 -0.45593999997E+02  0.45594000000E+02  0.51100000000E-03 0.  1.
    9900012    2    1    2    0    0  0.87941382651E+01 -0.29109200470E+02  0.26990471500E+02  0.50528831641E+02  0.29999914256E+02 0.  0.
        -12    1    1    2    0    0 -0.87941382651E+01  0.29109200470E+02 -0.26990471500E+02  0.40659168359E+02  0.00000000000E+00 0.  1.
         11    1    3    3    0    0  0.77123684227E+01 -0.11500204258E+02  0.29444324142E+02  0.32537725014E+02  0.51100000000E-03 0. -1.
        -11    1    3    3    0    0  0.53932679005E+00 -0.73742118287E+01  0.22612990919E+00  0.73973649686E+01  0.51100000000E-03 0.  1.
         12    1    3    3    0    0  0.54244305236E+00 -0.10234784384E+02 -0.26799825510E+01  0.10593741658E+02  0.00000000000E+00 0. -1.
</event>
<event>
 7    1  0.9930326E-013  0.5052886E+02  0.7816164E-02  0.1300439E+00
        -11   -1    0    0    0    0  0.00000000000E+00  0.00000000000E+00  0.45593999997E+02  0.45594000000E+02  0.51100000000E-03 0.  1.
         11   -1    0    0    0    0 -0.00000000000E+00 -0.00000000000E+00 -0.45593999997E+02  0.45594000000E+02  0.51100000000E-03 0. -1.
    9900012    2    1    2    0    0 -0.12338945307E+02  0.28152657157E+02 -0.26614730886E+02  0.50528861096E+02  0.30000003788E+02 0.  0.
        -12    1    1    2    0    0  0.12338945307E+02 -0.28152657157E+02  0.26614730886E+02  0.40659138904E+02  0.00000000000E+00 0.  1.
         11    1    3    3    0    0  0.73775270753E+01  0.84601093005E+01 -0.15065578761E+02  0.18787576182E+02  0.51100000000E-03 0. -1.
        -11    1    3    3    0    0 -0.10898726159E+02  0.46296098342E+01 -0.67904867797E+01  0.13650136632E+02  0.51100000000E-03 0.  1.
         12    1    3    3    0    0 -0.88177462228E+01  0.15062938022E+02 -0.47586653452E+01  0.18091148282E+02  0.00000000000E+00 0. -1.
</event>
<event>
 7    1  0.1073522E-012  0.5052887E+02  0.7816164E-02  0.1300439E+00
        -11   -1    0    0    0    0  0.00000000000E+00  0.00000000000E+00  0.45593999997E+02  0.45594000000E+02  0.51100000000E-03 0.  1.
         11   -1    0    0    0    0 -0.00000000000E+00 -0.00000000000E+00 -0.45593999997E+02  0.45594000000E+02  0.51100000000E-03 0. -1.
    9900012    2    1    2    0    0 -0.27421875805E+02 -0.29957182158E+02 -0.19422954790E+01  0.50528873752E+02  0.30000042256E+02 0.  0.
        -12    1    1    2    0    0  0.27421875805E+02  0.29957182158E+02  0.19422954790E+01  0.40659126248E+02  0.00000000000E+00 0.  1.
         11    1    3    3    0    0 -0.13266563472E+02 -0.17262342099E+02 -0.85970121811E+01  0.23407237765E+02  0.51100000000E-03 0. -1.
        -11    1    3    3    0    0 -0.18233248792E+02 -0.77374797016E+01  0.58460660454E+01  0.20651790288E+02  0.51100000000E-03 0.  1.
        -12    1    3    3    0    0  0.40779364585E+01 -0.49573603575E+01  0.80865065681E+00  0.64698456982E+01  0.00000000000E+00 0.  1.
</event>
<event>
 7    1  0.9930326E-013  0.5052886E+02  0.7816164E-02  0.1300439E+00
        -11   -1    0    0    0    0  0.00000000000E+00  0.00000000000E+00  0.45593999997E+02  0.45594000000E+02  0.51100000000E-03 0.  1.
         11   -1    0    0    0    0 -0.00000000000E+00 -0.00000000000E+00 -0.45593999997E+02  0.45594000000E+02  0.51100000000E-03 0. -1.
    9900012    2    1    2    0    0  0.39693614126E+02 -0.86046660590E+01 -0.18821223918E+01  0.50528860006E+02  0.30000000473E+02 0.  0.
        -12    1    1    2    0    0 -0.39693614126E+02  0.86046660590E+01  0.18821223918E+01  0.40659139994E+02  0.00000000000E+00 0.  1.
         11    1    3    3    0    0  0.24728264028E+02 -0.15903645985E+02 -0.13612122550E+01  0.29432395358E+02  0.51100000000E-03 0. -1.
        -11    1    3    3    0    0  0.16120448458E+02  0.50902526616E+01  0.25984794597E+01  0.17103555958E+02  0.51100000000E-03 0.  1.
         12    1    3    3    0    0 -0.11550983597E+01  0.22087272643E+01 -0.31193895966E+01  0.39929086897E+01  0.00000000000E+00 0. -1.
</event>
<event>
 7    1  0.9930326E-013  0.5052886E+02  0.7816164E-02  0.1300439E+00
        -11   -1    0    0    0    0  0.00000000000E+00  0.00000000000E+00  0.45593999997E+02  0.45594000000E+02  0.51100000000E-03 0.  1.
         11   -1    0    0    0    0 -0.00000000000E+00 -0.00000000000E+00 -0.45593999997E+02  0.45594000000E+02  0.51100000000E-03 0. -1.
    9900012    2    1    2    0    0 -0.15363814897E+02  0.27658731742E+02 -0.25536506263E+02  0.50528863242E+02  0.30000010311E+02 0.  0.
        -12    1    1    2    0    0  0.15363814897E+02 -0.27658731742E+02  0.25536506263E+02  0.40659136758E+02  0.00000000000E+00 0.  1.
         11    1    3    3    0    0 -0.58516325449E+01  0.93042716167E+01 -0.37506762972E+01  0.11613726650E+02  0.51100000000E-03 0. -1.
        -11    1    3    3    0    0 -0.44411065315E+01 -0.44673565397E+01  0.87111719343E+00  0.63592096288E+01  0.51100000000E-03 0.  1.
        -12    1    3    3    0    0 -0.50710758205E+01  0.22821816665E+02 -0.22656947159E+02  0.32555926963E+02  0.00000000000E+00 0.  1.
</event>
<event>
 7    1  0.9930326E-013  0.5052886E+02  0.7816164E-02  0.1300439E+00
        -11   -1    0    0    0    0  0.00000000000E+00  0.00000000000E+00  0.45593999997E+02  0.45594000000E+02  0.51100000000E-03 0.  1.
         11   -1    0    0    0    0 -0.00000000000E+00 -0.00000000000E+00 -0.45593999997E+02  0.45594000000E+02  0.51100000000E-03 0. -1.
    9900012    2    1    2    0    0 -0.15791733504E+01  0.52508289309E+01 -0.40287727226E+02  0.50528856404E+02  0.29999989525E+02 0.  0.
        -12    1    1    2    0    0  0.15791733504E+01 -0.52508289309E+01  0.40287727226E+02  0.40659143596E+02  0.00000000000E+00 0.  1.
         11    1    3    3    0    0 -0.41257685656E+01  0.14371149723E+02 -0.27925181370E+02  0.31675979313E+02  0.51100000000E-03 0. -1.
        -11    1    3    3    0    0 -0.21575666810E+01 -0.61864453721E+01 -0.15971131445E+01  0.67437356845E+01  0.51100000000E-03 0.  1.
        -12    1    3    3    0    0  0.47041618962E+01 -0.29338754202E+01 -0.10765432712E+02  0.12109141406E+02  0.00000000000E+00 0.  1.
</event>
<event>
 7    1  0.9930326E-013  0.5052886E+02  0.7816164E-02  0.1300439E+00
        -11   -1    0    0    0    0  0.00000000000E+00  0.00000000000E+00  0.45593999997E+02  0.45594000000E+02  0.51100000000E-03 0.  1.
         11   -1    0    0    0    0 -0.00000000000E+00 -0.00000000000E+00 -0.45593999997E+02  0.45594000000E+02  0.51100000000E-03 0. -1.
    9900012    2    1    2    0    0  0.29147506848E+02  0.18856583936E+02 -0.21166432102E+02  0.50528858825E+02  0.29999996884E+02 0.  0.
        -12    1    1    2    0    0 -0.29147506848E+02 -0.18856583936E+02  0.21166432102E+02  0.40659141175E+02  0.00000000000E+00 0.  1.
         11    1    3    3    0    0  0.16784129618E+02  0.67864701213E+01 -0.10151180412E+02  0.20755954513E+02  0.51100000000E-03 0. -1.
        -11    1    3    3    0    0 -0.59574347706E+01  0.30189455352E+01 -0.53782197094E+01  0.85749815565E+01  0.51100000000E-03 0.  1.
        -12    1    3    3    0    0  0.18320812001E+02  0.90511682792E+01 -0.56370319804E+01  0.21197922755E+02  0.00000000000E+00 0.  1.
</event>
<event>
 7    1  0.9930326E-013  0.5052888E+02  0.7816164E-02  0.1300439E+00
        -11   -1    0    0    0    0  0.00000000000E+00  0.00000000000E+00  0.45593999997E+02  0.45594000000E+02  0.51100000000E-03 0.  1.
         11   -1    0    0    0    0 -0.00000000000E+00 -0.00000000000E+00 -0.45593999997E+02  0.45594000000E+02  0.51100000000E-03 0. -1.
    9900012    2    1    2    0    0  0.39166659130E+02 -0.81154314815E+01  0.72991104274E+01  0.50528875211E+02  0.30000046693E+02 0.  0.
        -12    1    1    2    0    0 -0.39166659130E+02  0.81154314815E+01 -0.72991104274E+01  0.40659124789E+02  0.00000000000E+00 0.  1.
         11    1    3    3    0    0  0.99050706088E+01  0.61098009355E+01 -0.58550188013E+01  0.13027714176E+02  0.51100000000E-03 0. -1.
        -11    1    3    3    0    0  0.19303291730E+02 -0.15376623920E+02  0.11900206047E+02  0.27398403950E+02  0.51100000000E-03 0.  1.
        -12    1    3    3    0    0  0.99582967909E+01  0.11513915026E+01  0.12539231814E+01  0.10102757085E+02  0.00000000000E+00 0.  1.
</event>
<event>
 7    1  0.9930326E-013  0.5052885E+02  0.7816164E-02  0.1300439E+00
        -11   -1    0    0    0    0  0.00000000000E+00  0.00000000000E+00  0.45593999997E+02  0.45594000000E+02  0.51100000000E-03 0.  1.
         11   -1    0    0    0    0 -0.00000000000E+00 -0.00000000000E+00 -0.45593999997E+02  0.45594000000E+02  0.51100000000E-03 0. -1.
    9900012    2    1    2    0    0  0.45208252097E+01  0.39960647340E+02  0.59896190138E+01  0.50528846881E+02  0.29999960580E+02 0.  0.
        -12    1    1    2    0    0 -0.45208252097E+01 -0.39960647340E+02 -0.59896190138E+01  0.40659153119E+02  0.00000000000E+00 0.  1.
         11    1    3    3    0    0  0.14962053310E+02  0.18733811951E+02  0.44079619483E+01  0.24377220478E+02  0.51100000000E-03 0.  1.
        -11    1    3    3    0    0 -0.67617506934E+01  0.17696957580E+02 -0.31389660266E+01  0.19203038509E+02  0.51100000000E-03 0. -1.
        -12    1    3    3    0    0 -0.36794774065E+01  0.35298778094E+01  0.47206230922E+01  0.69485878934E+01  0.00000000000E+00 0.  1.
</event>
<event>
 7    1  0.9930326E-013  0.5052886E+02  0.7816164E-02  0.1300439E+00
        -11   -1    0    0    0    0  0.00000000000E+00  0.00000000000E+00  0.45593999997E+02  0.45594000000E+02  0.51100000000E-03 0. -1.
         11   -1    0    0    0    0 -0.00000000000E+00 -0.00000000000E+00 -0.45593999997E+02  0.45594000000E+02  0.51100000000E-03 0.  1.
    9900012    2    1    2    0    0 -0.29101594813E+02  0.20959937699E+02  0.19155787391E+02  0.50528855892E+02  0.29999987970E+02 0.  0.
        -12    1    1    2    0    0  0.29101594813E+02 -0.20959937699E+02 -0.19155787391E+02  0.40659144108E+02  0.00000000000E+00 0.  1.
         11    1    3    3    0    0 -0.10778316821E+02  0.18385878050E+02  0.17954448562E+02  0.27867092575E+02  0.51100000000E-03 0. -1.
        -11    1    3    3    0    0  0.15270519703E+00 -0.26223936874E+01 -0.18703625834E+01  0.32246742445E+01  0.51100000000E-03 0.  1.
         12    1    3    3    0    0 -0.18475983188E+02  0.51964533367E+01  0.30717014128E+01  0.19437089073E+02  0.00000000000E+00 0. -1.
</event>
<event>
 7    1  0.9930326E-013  0.5052885E+02  0.7816164E-02  0.1300439E+00
        -11   -1    0    0    0    0  0.00000000000E+00  0.00000000000E+00  0.45593999997E+02  0.45594000000E+02  0.51100000000E-03 0.  1.
         11   -1    0    0    0    0 -0.00000000000E+00 -0.00000000000E+00 -0.45593999997E+02  0.45594000000E+02  0.51100000000E-03 0. -1.
    9900012    2    1    2    0    0  0.14660364576E+02  0.17602240020E+02 -0.33591680337E+02  0.50528854276E+02  0.29999983056E+02 0.  0.
        -12    1    1    2    0    0 -0.14660364576E+02 -0.17602240020E+02  0.33591680337E+02  0.40659145724E+02  0.00000000000E+00 0.  1.
         11    1    3    3    0    0  0.99772234927E+01  0.12668459089E+02 -0.67786066494E+01  0.17492408430E+02  0.51100000000E-03 0.  1.
        -11    1    3    3    0    0  0.38006105564E+01  0.45038883937E+01 -0.29548377942E+02  0.30130321779E+02  0.51100000000E-03 0. -1.
        -12    1    3    3    0    0  0.88253052656E+00  0.42989253691E+00  0.27353042545E+01  0.29061240663E+01  0.00000000000E+00 0.  1.
</event>
<event>
 7    1  0.9930326E-013  0.5052886E+02  0.7816164E-02  0.1300439E+00
        -11   -1    0    0    0    0  0.00000000000E+00  0.00000000000E+00  0.45593999997E+02  0.45594000000E+02  0.51100000000E-03 0. -1.
         11   -1    0    0    0    0 -0.00000000000E+00 -0.00000000000E+00 -0.45593999997E+02  0.45594000000E+02  0.51100000000E-03 0.  1.
    9900012    2    1    2    0    0  0.57368080988E+01 -0.21951181658E+02  0.33740187353E+02  0.50528860979E+02  0.30000003431E+02 0.  0.
        -12    1    1    2    0    0 -0.57368080988E+01  0.21951181658E+02 -0.33740187353E+02  0.40659139021E+02  0.00000000000E+00 0.  1.
         11    1    3    3    0    0 -0.19205611945E+01 -0.11099985260E+01  0.15024168238E+02  0.15187043278E+02  0.51100000000E-03 0. -1.
        -11    1    3    3    0    0  0.10205344459E+02 -0.23640188682E+02  0.18177361906E+02  0.31518630405E+02  0.51100000000E-03 0.  1.
        -12    1    3    3    0    0 -0.25479751656E+01  0.27990055504E+01  0.53865720906E+00  0.38231872965E+01  0.00000000000E+00 0.  1.
</event>
<event>
 7    1  0.9930326E-013  0.5052880E+02  0.7816164E-02  0.1300439E+00
        -11   -1    0    0    0    0  0.00000000000E+00  0.00000000000E+00  0.45593999997E+02  0.45594000000E+02  0.51100000000E-03 0.  1.
         11   -1    0    0    0    0 -0.00000000000E+00 -0.00000000000E+00 -0.45593999997E+02  0.45594000000E+02  0.51100000000E-03 0. -1.
    9900012    2    1    2    0    0 -0.11460855071E+02  0.38926735137E+02 -0.25550437390E+01  0.50528804781E+02  0.29999832611E+02 0.  0.
        -12    1    1    2    0    0  0.11460855071E+02 -0.38926735137E+02  0.25550437390E+01  0.40659195219E+02  0.00000000000E+00 0.  1.
         11    1    3    3    0    0 -0.70651557296E+01  0.16325322768E+02 -0.13159228606E+02  0.22126858944E+02  0.51100000000E-03 0. -1.
        -11    1    3    3    0    0 -0.66095276363E+01  0.10405306118E+02  0.10200117132E+02  0.15999957523E+02  0.51100000000E-03 0.  1.
         12    1    3    3    0    0  0.22138282951E+01  0.12196106251E+02  0.40406773504E+00  0.12401988314E+02  0.00000000000E+00 0. -1.
</event>
<event>
 7    1  0.9930326E-013  0.5052886E+02  0.7816164E-02  0.1300439E+00
        -11   -1    0    0    0    0  0.00000000000E+00  0.00000000000E+00  0.45593999997E+02  0.45594000000E+02  0.51100000000E-03 0. -1.
         11   -1    0    0    0    0 -0.00000000000E+00 -0.00000000000E+00 -0.45593999997E+02  0.45594000000E+02  0.51100000000E-03 0.  1.
    9900012    2    1    2    0    0  0.26751487211E+01 -0.18400394930E+02  0.36158471218E+02  0.50528855947E+02  0.29999988138E+02 0.  0.
        -12    1    1    2    0    0 -0.26751487211E+01  0.18400394930E+02 -0.36158471218E+02  0.40659144053E+02  0.00000000000E+00 0.  1.
         11    1    3    3    0    0  0.48110297760E+01  0.42518426096E+01  0.20630907122E+01  0.67439244235E+01  0.51100000000E-03 0.  1.
        -11    1    3    3    0    0 -0.82944969837E+01 -0.14092425203E+02  0.24924408433E+02  0.29809751161E+02  0.51100000000E-03 0. -1.
        -12    1    3    3    0    0  0.61586159288E+01 -0.85598123366E+01  0.91709720732E+01  0.13975180362E+02  0.00000000000E+00 0.  1.
</event>
<event>
 7    1  0.9930326E-013  0.5052885E+02  0.7816164E-02  0.1300439E+00
        -11   -1    0    0    0    0  0.00000000000E+00  0.00000000000E+00  0.45593999997E+02  0.45594000000E+02  0.51100000000E-03 0.  1.
         11   -1    0    0    0    0 -0.00000000000E+00 -0.00000000000E+00 -0.45593999997E+02  0.45594000000E+02  0.51100000000E-03 0. -1.
    9900012    2    1    2    0    0 -0.31799869392E+02 -0.24420868278E+02 -0.67495158447E+01  0.50528850170E+02  0.29999970575E+02 0.  0.
        -12    1    1    2    0    0  0.31799869392E+02  0.24420868278E+02  0.67495158447E+01  0.40659149830E+02  0.00000000000E+00 0.  1.
         11    1    3    3    0    0 -0.37360094622E+02 -0.20241628581E+02 -0.71727389674E+01  0.43092323937E+02  0.51100000000E-03 0. -1.
        -11    1    3    3    0    0  0.37558014492E+01 -0.32594437884E+01  0.14304367449E+01  0.51745693423E+01  0.51100000000E-03 0.  1.
         12    1    3    3    0    0  0.18044237803E+01 -0.91979590850E+00 -0.10072136221E+01  0.22619568902E+01  0.00000000000E+00 0. -1.
</event>
<event>
 7    1  0.9930326E-013  0.5052887E+02  0.7816164E-02  0.1300439E+00
        -11   -1    0    0    0    0  0.00000000000E+00  0.00000000000E+00  0.45593999997E+02  0.45594000000E+02  0.51100000000E-03 0. -1.
         11   -1    0    0    0    0 -0.00000000000E+00 -0.00000000000E+00 -0.45593999997E+02  0.45594000000E+02  0.51100000000E-03 0.  1.
    9900012    2    1    2    0    0 -0.21893477241E+02  0.27250073081E+02  0.20767135852E+02  0.50528871135E+02  0.30000034302E+02 0.  0.
        -12    1    1    2    0    0  0.21893477241E+02 -0.27250073081E+02 -0.20767135852E+02  0.40659128865E+02  0.00000000000E+00 0.  1.
         11    1    3    3    0    0 -0.13105482824E+02  0.15664893608E+02  0.19578374388E+02  0.28292319024E+02  0.51100000000E-03 0. -1.
        -11    1    3    3    0    0 -0.13568300493E+02  0.98309268509E+01 -0.78872439187E+00  0.16774027168E+02  0.51100000000E-03 0.  1.
         12    1    3    3    0    0  0.47803060764E+01  0.17542526211E+01  0.19774858555E+01  0.54625249429E+01  0.00000000000E+00 0. -1.
</event>
<event>
 7    1  0.9930326E-013  0.5052886E+02  0.7816164E-02  0.1300439E+00
        -11   -1    0    0    0    0  0.00000000000E+00  0.00000000000E+00  0.45593999997E+02  0.45594000000E+02  0.51100000000E-03 0. -1.
         11   -1    0    0    0    0 -0.00000000000E+00 -0.00000000000E+00 -0.45593999997E+02  0.45594000000E+02  0.51100000000E-03 0.  1.
    9900012    2    1    2    0    0  0.26310484820E+02 -0.21225145777E+02  0.22592411883E+02  0.50528862043E+02  0.30000006666E+02 0.  0.
        -12    1    1    2    0    0 -0.26310484820E+02  0.21225145777E+02 -0.22592411883E+02  0.40659137957E+02  0.00000000000E+00 0.  1.
         11    1    3    3    0    0  0.88082216916E+01 -0.12449721631E+02  0.25463147057E+02  0.29680838875E+02  0.51100000000E-03 0. -1.
        -11    1    3    3    0    0  0.12096967437E+02 -0.72171455088E+01  0.83612210096E+00  0.14111091768E+02  0.51100000000E-03 0.  1.
         12    1    3    3    0    0  0.54052956919E+01 -0.15582786374E+01 -0.37068572746E+01  0.67369313996E+01  0.00000000000E+00 0. -1.
</event>
<event>
 7    1  0.9930326E-013  0.5052883E+02  0.7816164E-02  0.1300439E+00
        -11   -1    0    0    0    0  0.00000000000E+00  0.00000000000E+00  0.45593999997E+02  0.45594000000E+02  0.51100000000E-03 0.  1.
         11   -1    0    0    0    0 -0.00000000000E+00 -0.00000000000E+00 -0.45593999997E+02  0.45594000000E+02  0.51100000000E-03 0. -1.
    9900012    2    1    2    0    0 -0.18680098863E+02  0.35723691027E+02 -0.52952449858E+01  0.50528833585E+02  0.29999920165E+02 0.  0.
        -12    1    1    2    0    0  0.18680098863E+02 -0.35723691027E+02  0.52952449858E+01  0.40659166415E+02  0.00000000000E+00 0.  1.
         11    1    3    3    0    0 -0.97387198026E+01  0.24034016126E+02  0.43548840548E+01  0.26295277331E+02  0.51100000000E-03 0. -1.
        -11    1    3    3    0    0  0.35265263818E+01  0.34605360585E+01 -0.77268486102E+01  0.91714714108E+01  0.51100000000E-03 0.  1.
         12    1    3    3    0    0 -0.12467905442E+02  0.82291388428E+01 -0.19232804304E+01  0.15062084843E+02  0.00000000000E+00 0. -1.
</event>
<event>
 7    1  0.9930326E-013  0.5052887E+02  0.7816164E-02  0.1300439E+00
        -11   -1    0    0    0    0  0.00000000000E+00  0.00000000000E+00  0.45593999997E+02  0.45594000000E+02  0.51100000000E-03 0.  1.
         11   -1    0    0    0    0 -0.00000000000E+00 -0.00000000000E+00 -0.45593999997E+02  0.45594000000E+02  0.51100000000E-03 0. -1.
    9900012    2    1    2    0    0 -0.23483957537E+02  0.31414637783E+02 -0.10713975678E+02  0.50528868142E+02  0.30000025203E+02 0.  0.
        -12    1    1    2    0    0  0.23483957537E+02 -0.31414637783E+02  0.10713975678E+02  0.40659131858E+02  0.00000000000E+00 0.  1.
         11    1    3    3    0    0 -0.20999376857E+02  0.11294785743E+02 -0.24806101340E+01  0.23972889693E+02  0.51100000000E-03 0. -1.
        -11    1    3    3    0    0 -0.15897768978E+01  0.19795329846E+02 -0.16757474583E+01  0.19929641344E+02  0.51100000000E-03 0.  1.
        -12    1    3    3    0    0 -0.89480378216E+00  0.32452219486E+00 -0.65576180858E+01  0.66263371046E+01  0.00000000000E+00 0.  1.
</event>
<event>
 7    1  0.9930326E-013  0.5052886E+02  0.7816164E-02  0.1300439E+00
        -11   -1    0    0    0    0  0.00000000000E+00  0.00000000000E+00  0.45593999997E+02  0.45594000000E+02  0.51100000000E-03 0.  1.
         11   -1    0    0    0    0 -0.00000000000E+00 -0.00000000000E+00 -0.45593999997E+02  0.45594000000E+02  0.51100000000E-03 0. -1.
    9900012    2    1    2    0    0  0.21773262631E+01  0.39713018544E+01 -0.40406111071E+02  0.50528858347E+02  0.29999995431E+02 0.  0.
        -12    1    1    2    0    0 -0.21773262631E+01 -0.39713018544E+01  0.40406111071E+02  0.40659141653E+02  0.00000000000E+00 0.  1.
         11    1    3    3    0    0  0.37391046562E+01  0.68379820526E+01 -0.42947964077E+02  0.43649358768E+02  0.51100000000E-03 0. -1.
        -11    1    3    3    0    0 -0.25425638327E+01 -0.25186000638E+01 -0.54668111094E+00  0.36203366726E+01  0.51100000000E-03 0.  1.
         12    1    3    3    0    0  0.98078543957E+00 -0.34808013426E+00  0.30885341171E+01  0.32591629064E+01  0.00000000000E+00 0. -1.
</event>
<event>
 7    1  0.9930326E-013  0.5052885E+02  0.7816164E-02  0.1300439E+00
        -11   -1    0    0    0    0  0.00000000000E+00  0.00000000000E+00  0.45593999997E+02  0.45594000000E+02  0.51100000000E-03 0. -1.
         11   -1    0    0    0    0 -0.00000000000E+00 -0.00000000000E+00 -0.45593999997E+02  0.45594000000E+02  0.51100000000E-03 0.  1.
    9900012    2    1    2    0    0  0.34413717449E+02 -0.20344125245E+02  0.74147710573E+01  0.50528853299E+02  0.29999980086E+02 0.  0.
        -12    1    1    2    0    0 -0.34413717449E+02  0.20344125245E+02 -0.74147710573E+01  0.40659146701E+02  0.00000000000E+00 0.  1.
         11    1    3    3    0    0  0.11530445672E+02 -0.20480470503E+02  0.43807102800E+01  0.23907979259E+02  0.51100000000E-03 0. -1.
        -11    1    3    3    0    0  0.97684231062E+01  0.55823773088E+01 -0.22411925015E+01  0.11472051712E+02  0.51100000000E-03 0.  1.
         12    1    3    3    0    0  0.13114848671E+02 -0.54460320516E+01  0.52752532788E+01  0.15148822328E+02  0.00000000000E+00 0. -1.
</event>
<event>
 7    1  0.9930326E-013  0.5052886E+02  0.7816164E-02  0.1300439E+00
        -11   -1    0    0    0    0  0.00000000000E+00  0.00000000000E+00  0.45593999997E+02  0.45594000000E+02  0.51100000000E-03 0.  1.
         11   -1    0    0    0    0 -0.00000000000E+00 -0.00000000000E+00 -0.45593999997E+02  0.45594000000E+02  0.51100000000E-03 0. -1.
    9900012    2    1    2    0    0 -0.49301826969E+01 -0.30030808431E+02 -0.26963120140E+02  0.50528855836E+02  0.29999987800E+02 0.  0.
        -12    1    1    2    0    0  0.49301826969E+01  0.30030808431E+02  0.26963120140E+02  0.40659144164E+02  0.00000000000E+00 0.  1.
         11    1    3    3    0    0  0.17721588330E+01 -0.18644576351E+02 -0.37316562471E+01  0.19096754511E+02  0.51100000000E-03 0. -1.
        -11    1    3    3    0    0 -0.78600856798E+01  0.13848133714E+01 -0.11845323445E+02  0.14283218921E+02  0.51100000000E-03 0.  1.
        -12    1    3    3    0    0  0.11577441499E+01 -0.12771045452E+02 -0.11386140448E+02  0.17148882405E+02  0.00000000000E+00 0.  1.
</event>
<event>
 7    1  0.9930326E-013  0.5052886E+02  0.7816164E-02  0.1300439E+00
        -11   -1    0    0    0    0  0.00000000000E+00  0.00000000000E+00  0.45593999997E+02  0.45594000000E+02  0.51100000000E-03 0.  1.
         11   -1    0    0    0    0 -0.00000000000E+00 -0.00000000000E+00 -0.45593999997E+02  0.45594000000E+02  0.51100000000E-03 0. -1.
    9900012    2    1    2    0    0 -0.14041317171E+01  0.25576011969E+02 -0.31576289242E+02  0.50528855685E+02  0.29999987340E+02 0.  0.
        -12    1    1    2    0    0  0.14041317171E+01 -0.25576011969E+02  0.31576289242E+02  0.40659144315E+02  0.00000000000E+00 0.  1.
         11    1    3    3    0    0  0.38965819347E+01  0.14985018387E+02 -0.55868831854E+01  0.16460479666E+02  0.51100000000E-03 0. -1.
        -11    1    3    3    0    0 -0.28932570328E+01 -0.47440610262E+01 -0.11776377646E+02  0.13021525333E+02  0.51100000000E-03 0.  1.
         12    1    3    3    0    0 -0.24074566190E+01  0.15335054608E+02 -0.14213028411E+02  0.21046850687E+02  0.00000000000E+00 0. -1.
</event>
<event>
 7    1  0.9930326E-013  0.5052886E+02  0.7816164E-02  0.1300439E+00
        -11   -1    0    0    0    0  0.00000000000E+00  0.00000000000E+00  0.45593999997E+02  0.45594000000E+02  0.51100000000E-03 0. -1.
         11   -1    0    0    0    0 -0.00000000000E+00 -0.00000000000E+00 -0.45593999997E+02  0.45594000000E+02  0.51100000000E-03 0.  1.
    9900012    2    1    2    0    0  0.24999231314E+02  0.27943123027E+02  0.15728502924E+02  0.50528862097E+02  0.30000006829E+02 0.  0.
        -12    1    1    2    0    0 -0.24999231314E+02 -0.27943123027E+02 -0.15728502924E+02  0.40659137903E+02  0.00000000000E+00 0.  1.
         11    1    3    3    0    0  0.20927815514E+02  0.12118304781E+02  0.51542344522E+01  0.24726360549E+02  0.51100000000E-03 0. -1.
        -11    1    3    3    0    0 -0.38871373050E+00  0.16751110451E+02  0.30858769782E+01  0.17037412852E+02  0.51100000000E-03 0.  1.
         12    1    3    3    0    0  0.44601295310E+01 -0.92629220468E+00  0.74883914937E+01  0.87650886958E+01  0.00000000000E+00 0. -1.
</event>
<event>
 7    1  0.9930326E-013  0.5052886E+02  0.7816164E-02  0.1300439E+00
        -11   -1    0    0    0    0  0.00000000000E+00  0.00000000000E+00  0.45593999997E+02  0.45594000000E+02  0.51100000000E-03 0.  1.
         11   -1    0    0    0    0 -0.00000000000E+00 -0.00000000000E+00 -0.45593999997E+02  0.45594000000E+02  0.51100000000E-03 0. -1.
    9900012    2    1    2    0    0 -0.38665966238E+02  0.12564298825E+02 -0.49727179576E+00  0.50528857986E+02  0.29999994333E+02 0.  0.
        -12    1    1    2    0    0  0.38665966238E+02 -0.12564298825E+02  0.49727179576E+00  0.40659142014E+02  0.00000000000E+00 0.  1.
         11    1    3    3    0    0 -0.26868684335E+02  0.24589469917E+01  0.20235521875E+01  0.27056743742E+02  0.51100000000E-03 0. -1.
        -11    1    3    3    0    0  0.34313265028E+00  0.11019885731E+02 -0.24638201554E+01  0.11297169184E+02  0.51100000000E-03 0.  1.
        -12    1    3    3    0    0 -0.12140414554E+02 -0.91453389767E+00 -0.57003827799E-01  0.12174945060E+02  0.00000000000E+00 0.  1.
</event>
<event>
 7    1  0.9930326E-013  0.5052886E+02  0.7816164E-02  0.1300439E+00
        -11   -1    0    0    0    0  0.00000000000E+00  0.00000000000E+00  0.45593999997E+02  0.45594000000E+02  0.51100000000E-03 0.  1.
         11   -1    0    0    0    0 -0.00000000000E+00 -0.00000000000E+00 -0.45593999997E+02  0.45594000000E+02  0.51100000000E-03 0. -1.
    9900012    2    1    2    0    0 -0.11886842121E+01  0.20502862288E+02 -0.35091097037E+02  0.50528862978E+02  0.30000009508E+02 0.  0.
        -12    1    1    2    0    0  0.11886842121E+01 -0.20502862288E+02  0.35091097037E+02  0.40659137022E+02  0.00000000000E+00 0.  1.
         11    1    3    3    0    0 -0.95807347096E+01  0.16412500752E+02 -0.15456743014E+02  0.24496358166E+02  0.51100000000E-03 0. -1.
        -11    1    3    3    0    0  0.66188733555E+01 -0.46838438930E+01 -0.10144824067E+02  0.12987121842E+02  0.51100000000E-03 0.  1.
        -12    1    3    3    0    0  0.17731771420E+01  0.87742054282E+01 -0.94895299551E+01  0.13045382970E+02  0.00000000000E+00 0.  1.
</event>
<event>
 7    1  0.9930326E-013  0.5052889E+02  0.7816164E-02  0.1300439E+00
        -11   -1    0    0    0    0  0.00000000000E+00  0.00000000000E+00  0.45593999997E+02  0.45594000000E+02  0.51100000000E-03 0. -1.
         11   -1    0    0    0    0 -0.00000000000E+00 -0.00000000000E+00 -0.45593999997E+02  0.45594000000E+02  0.51100000000E-03 0.  1.
    9900012    2    1    2    0    0  0.21166856238E+02  0.36195395284E+01  0.34525732810E+02  0.50528891605E+02  0.30000096523E+02 0.  0.
        -12    1    1    2    0    0 -0.21166856238E+02 -0.36195395284E+01 -0.34525732810E+02  0.40659108395E+02  0.00000000000E+00 0.  1.
         11    1    3    3    0    0  0.19400086404E+02 -0.74760611518E+01  0.21411233442E+02  0.29844526476E+02  0.51100000000E-03 0. -1.
        -11    1    3    3    0    0  0.95662718750E+00  0.51431271073E+01 -0.10167426646E+01  0.53292267661E+01  0.51100000000E-03 0.  1.
         12    1    3    3    0    0  0.81014264582E+00  0.59524735728E+01  0.14131242033E+02  0.15355138363E+02  0.00000000000E+00 0. -1.
</event>
<event>
 7    1  0.9930326E-013  0.5052885E+02  0.7816164E-02  0.1300439E+00
        -11   -1    0    0    0    0  0.00000000000E+00  0.00000000000E+00  0.45593999997E+02  0.45594000000E+02  0.51100000000E-03 0.  1.
         11   -1    0    0    0    0 -0.00000000000E+00 -0.00000000000E+00 -0.45593999997E+02  0.45594000000E+02  0.51100000000E-03 0. -1.
    9900012    2    1    2    0    0 -0.29931282990E+02  0.18859797498E+01 -0.27454097947E+02  0.50528854471E+02  0.29999983650E+02 0.  0.
        -12    1    1    2    0    0  0.29931282990E+02 -0.18859797498E+01  0.27454097947E+02  0.40659145529E+02  0.00000000000E+00 0.  1.
         11    1    3    3    0    0 -0.18955604348E+02 -0.18328871403E+01 -0.30179212491E+02  0.35685561202E+02  0.51100000000E-03 0. -1.
        -11    1    3    3    0    0  0.77889565368E+00 -0.15282681501E+01  0.42009272309E+00  0.17660011707E+01  0.51100000000E-03 0.  1.
         12    1    3    3    0    0 -0.11754574296E+02  0.52471350402E+01  0.23050218217E+01  0.13077292098E+02  0.00000000000E+00 0. -1.
</event>
<event>
 7    1  0.9930326E-013  0.5052884E+02  0.7816164E-02  0.1300439E+00
        -11   -1    0    0    0    0  0.00000000000E+00  0.00000000000E+00  0.45593999997E+02  0.45594000000E+02  0.51100000000E-03 0.  1.
         11   -1    0    0    0    0 -0.00000000000E+00 -0.00000000000E+00 -0.45593999997E+02  0.45594000000E+02  0.51100000000E-03 0. -1.
    9900012    2    1    2    0    0  0.35344083434E+02 -0.20098450768E+02 -0.12373136397E+00  0.50528840313E+02  0.29999940614E+02 0.  0.
        -12    1    1    2    0    0 -0.35344083434E+02  0.20098450768E+02  0.12373136397E+00  0.40659159687E+02  0.00000000000E+00 0.  1.
         11    1    3    3    0    0  0.16596325564E+02  0.34183516614E+01 -0.42202264248E+01  0.17462344105E+02  0.51100000000E-03 0. -1.
        -11    1    3    3    0    0  0.14635628636E+02 -0.19247687390E+02 -0.23681151014E+01  0.24295741702E+02  0.51100000000E-03 0.  1.
        -12    1    3    3    0    0  0.41121292335E+01 -0.42691150391E+01  0.64646101623E+01  0.87707545058E+01  0.00000000000E+00 0.  1.
</event>
<event>
 7    1  0.9930326E-013  0.5052886E+02  0.7816164E-02  0.1300439E+00
        -11   -1    0    0    0    0  0.00000000000E+00  0.00000000000E+00  0.45593999997E+02  0.45594000000E+02  0.51100000000E-03 0. -1.
         11   -1    0    0    0    0 -0.00000000000E+00 -0.00000000000E+00 -0.45593999997E+02  0.45594000000E+02  0.51100000000E-03 0.  1.
    9900012    2    1    2    0    0 -0.37892610281E+02  0.30471699115E+01 -0.14423250563E+02  0.50528864309E+02  0.30000013552E+02 0.  0.
        -12    1    1    2    0    0  0.37892610281E+02 -0.30471699115E+01  0.14423250563E+02  0.40659135691E+02  0.00000000000E+00 0.  1.
         11    1    3    3    0    0 -0.65090229936E+01 -0.38476529464E+01  0.48356861506E+01  0.89752812956E+01  0.51100000000E-03 0. -1.
        -11    1    3    3    0    0 -0.16255962574E+01  0.11947558186E+01 -0.95147362583E+01  0.97262639787E+01  0.51100000000E-03 0.  1.
         12    1    3    3    0    0 -0.29757991030E+02  0.57000670394E+01 -0.97442004554E+01  0.31827319034E+02  0.00000000000E+00 0. -1.
</event>
<event>
 7    1  0.9930326E-013  0.5052887E+02  0.7816164E-02  0.1300439E+00
        -11   -1    0    0    0    0  0.00000000000E+00  0.00000000000E+00  0.45593999997E+02  0.45594000000E+02  0.51100000000E-03 0.  1.
         11   -1    0    0    0    0 -0.00000000000E+00 -0.00000000000E+00 -0.45593999997E+02  0.45594000000E+02  0.51100000000E-03 0. -1.
    9900012    2    1    2    0    0  0.53796534031E+01  0.33260268042E+02 -0.22759154746E+02  0.50528865408E+02  0.30000016895E+02 0.  0.
        -12    1    1    2    0    0 -0.53796534031E+01 -0.33260268042E+02  0.22759154746E+02  0.40659134592E+02  0.00000000000E+00 0.  1.
         11    1    3    3    0    0  0.66133294182E+01 -0.85179891984E+00 -0.98836978335E+01  0.11922632701E+02  0.51100000000E-03 0.  1.
        -11    1    3    3    0    0  0.21177802187E+01  0.72538164895E+01  0.18688182487E+01  0.77843001371E+01  0.51100000000E-03 0. -1.
         12    1    3    3    0    0 -0.33514562338E+01  0.26858250473E+02 -0.14744275161E+02  0.30821932570E+02  0.00000000000E+00 0. -1.
</event>
<event>
 7    1  0.9930326E-013  0.5052886E+02  0.7816164E-02  0.1300439E+00
        -11   -1    0    0    0    0  0.00000000000E+00  0.00000000000E+00  0.45593999997E+02  0.45594000000E+02  0.51100000000E-03 0.  1.
         11   -1    0    0    0    0 -0.00000000000E+00 -0.00000000000E+00 -0.45593999997E+02  0.45594000000E+02  0.51100000000E-03 0. -1.
    9900012    2    1    2    0    0 -0.39808193234E+02  0.82599738877E+01  0.49602123819E+00  0.50528862599E+02  0.30000008355E+02 0.  0.
        -12    1    1    2    0    0  0.39808193234E+02 -0.82599738877E+01 -0.49602123819E+00  0.40659137401E+02  0.00000000000E+00 0.  1.
         11    1    3    3    0    0 -0.37368161010E+02  0.10732916351E+02 -0.86412015629E+01  0.39827695331E+02  0.51100000000E-03 0. -1.
        -11    1    3    3    0    0 -0.13831423360E+01  0.11225762445E+01  0.23606749892E+01  0.29573716054E+01  0.51100000000E-03 0.  1.
         12    1    3    3    0    0 -0.10568898877E+01 -0.35955187076E+01  0.67765478119E+01  0.77437956622E+01  0.00000000000E+00 0. -1.
</event>
<event>
 7    1  0.9930326E-013  0.5052884E+02  0.7816164E-02  0.1300439E+00
        -11   -1    0    0    0    0  0.00000000000E+00  0.00000000000E+00  0.45593999997E+02  0.45594000000E+02  0.51100000000E-03 0.  1.
         11   -1    0    0    0    0 -0.00000000000E+00 -0.00000000000E+00 -0.45593999997E+02  0.45594000000E+02  0.51100000000E-03 0. -1.
    9900012    2    1    2    0    0  0.17745269059E+02  0.11686645981E+02 -0.34665467680E+02  0.50528844602E+02  0.29999953651E+02 0.  0.
        -12    1    1    2    0    0 -0.17745269059E+02 -0.11686645981E+02  0.34665467680E+02  0.40659155398E+02  0.00000000000E+00 0.  1.
         11    1    3    3    0    0  0.39377253952E+01  0.66001915563E+01 -0.36832800011E+01  0.85226029883E+01  0.51100000000E-03 0. -1.
        -11    1    3    3    0    0  0.12118203271E+02 -0.80593599825E+01 -0.12043679535E+02  0.18890588949E+02  0.51100000000E-03 0.  1.
        -12    1    3    3    0    0  0.16893403929E+01  0.13145814407E+02 -0.18938508143E+02  0.23115652664E+02  0.00000000000E+00 0.  1.
</event>
<event>
 7    1  0.9930326E-013  0.5052888E+02  0.7816164E-02  0.1300439E+00
        -11   -1    0    0    0    0  0.00000000000E+00  0.00000000000E+00  0.45593999997E+02  0.45594000000E+02  0.51100000000E-03 0.  1.
         11   -1    0    0    0    0 -0.00000000000E+00 -0.00000000000E+00 -0.45593999997E+02  0.45594000000E+02  0.51100000000E-03 0. -1.
    9900012    2    1    2    0    0 -0.16718321711E+02  0.15836196261E+02 -0.33509350129E+02  0.50528881232E+02  0.30000064994E+02 0.  0.
        -12    1    1    2    0    0  0.16718321711E+02 -0.15836196261E+02  0.33509350129E+02  0.40659118768E+02  0.00000000000E+00 0.  1.
         11    1    3    3    0    0  0.23852594217E+01 -0.54847600512E+01 -0.43414968122E+01  0.73905784726E+01  0.51100000000E-03 0. -1.
        -11    1    3    3    0    0 -0.60229686948E+01  0.16952640904E+02 -0.16706320312E+02  0.24551360943E+02  0.51100000000E-03 0.  1.
         12    1    3    3    0    0 -0.13080612438E+02  0.43683154082E+01 -0.12461533005E+02  0.18586941817E+02  0.00000000000E+00 0. -1.
</event>
<event>
 7    1  0.9930326E-013  0.5052885E+02  0.7816164E-02  0.1300439E+00
        -11   -1    0    0    0    0  0.00000000000E+00  0.00000000000E+00  0.45593999997E+02  0.45594000000E+02  0.51100000000E-03 0.  1.
         11   -1    0    0    0    0 -0.00000000000E+00 -0.00000000000E+00 -0.45593999997E+02  0.45594000000E+02  0.51100000000E-03 0. -1.
    9900012    2    1    2    0    0  0.52562439300E+01 -0.40279659478E+02  0.17570156433E+01  0.50528853774E+02  0.29999981530E+02 0.  0.
        -12    1    1    2    0    0 -0.52562439300E+01  0.40279659478E+02 -0.17570156433E+01  0.40659146226E+02  0.00000000000E+00 0.  1.
         11    1    3    3    0    0  0.10704743756E+02 -0.25283875793E+02  0.12151190093E+02  0.30025278266E+02  0.51100000000E-03 0. -1.
        -11    1    3    3    0    0 -0.39330532338E+01 -0.26113742310E+01 -0.51010067125E+01  0.69504282498E+01  0.51100000000E-03 0.  1.
        -12    1    3    3    0    0 -0.15154465922E+01 -0.12384409454E+02 -0.52931677377E+01  0.13553147258E+02  0.00000000000E+00 0.  1.
</event>
<event>
 7    1  0.9930326E-013  0.5052886E+02  0.7816164E-02  0.1300439E+00
        -11   -1    0    0    0    0  0.00000000000E+00  0.00000000000E+00  0.45593999997E+02  0.45594000000E+02  0.51100000000E-03 0.  1.
         11   -1    0    0    0    0 -0.00000000000E+00 -0.00000000000E+00 -0.45593999997E+02  0.45594000000E+02  0.51100000000E-03 0. -1.
    9900012    2    1    2    0    0  0.21642155005E+02 -0.26873060075E+02 -0.21508634575E+02  0.50528860900E+02  0.30000003192E+02 0.  0.
        -12    1    1    2    0    0 -0.21642155005E+02  0.26873060075E+02  0.21508634575E+02  0.40659139100E+02  0.00000000000E+00 0.  1.
         11    1    3    3    0    0  0.12949177308E+02 -0.15252841244E+01 -0.33350210961E+01  0.13458456471E+02  0.51100000000E-03 0.  1.
        -11    1    3    3    0    0 -0.14859636734E+01 -0.16078239735E+02 -0.16692035163E+02  0.23223736116E+02  0.51100000000E-03 0. -1.
         12    1    3    3    0    0  0.10178941371E+02 -0.92695362152E+01 -0.14815783153E+01  0.13846668313E+02  0.00000000000E+00 0. -1.
</event>
<event>
 7    1  0.9930326E-013  0.5052886E+02  0.7816164E-02  0.1300439E+00
        -11   -1    0    0    0    0  0.00000000000E+00  0.00000000000E+00  0.45593999997E+02  0.45594000000E+02  0.51100000000E-03 0.  1.
         11   -1    0    0    0    0 -0.00000000000E+00 -0.00000000000E+00 -0.45593999997E+02  0.45594000000E+02  0.51100000000E-03 0. -1.
    9900012    2    1    2    0    0  0.23907371377E+02  0.31617811577E+02 -0.90508286551E+01  0.50528856940E+02  0.29999991154E+02 0.  0.
        -12    1    1    2    0    0 -0.23907371377E+02 -0.31617811577E+02  0.90508286551E+01  0.40659143060E+02  0.00000000000E+00 0.  1.
         11    1    3    3    0    0  0.87076649842E+01  0.12983204354E+01 -0.63616302636E+01  0.10861832502E+02  0.51100000000E-03 0. -1.
        -11    1    3    3    0    0 -0.37729984938E+01  0.92044353658E+01 -0.50985015917E+01  0.11178187097E+02  0.51100000000E-03 0.  1.
        -12    1    3    3    0    0  0.18972704886E+02  0.21115055776E+02  0.24093032002E+01  0.28488837341E+02  0.00000000000E+00 0.  1.
</event>
<event>
 7    1  0.9930326E-013  0.5052886E+02  0.7816164E-02  0.1300439E+00
        -11   -1    0    0    0    0  0.00000000000E+00  0.00000000000E+00  0.45593999997E+02  0.45594000000E+02  0.51100000000E-03 0.  1.
         11   -1    0    0    0    0 -0.00000000000E+00 -0.00000000000E+00 -0.45593999997E+02  0.45594000000E+02  0.51100000000E-03 0. -1.
    9900012    2    1    2    0    0 -0.15879251643E+02  0.25886165244E+02 -0.27035562074E+02  0.50528858341E+02  0.29999995413E+02 0.  0.
        -12    1    1    2    0    0  0.15879251643E+02 -0.25886165244E+02  0.27035562074E+02  0.40659141659E+02  0.00000000000E+00 0.  1.
         11    1    3    3    0    0 -0.41753473601E+01  0.18690962570E+02 -0.30640972510E+01  0.19395213317E+02  0.51100000000E-03 0.  1.
        -11    1    3    3    0    0 -0.36924134635E+01 -0.97439041219E+00 -0.17655794642E+02  0.18064064840E+02  0.51100000000E-03 0. -1.
         12    1    3    3    0    0 -0.80114908191E+01  0.81695930863E+01 -0.63156701811E+01  0.13069580184E+02  0.00000000000E+00 0. -1.
</event>
<event>
 7    1  0.9930326E-013  0.5052888E+02  0.7816164E-02  0.1300439E+00
        -11   -1    0    0    0    0  0.00000000000E+00  0.00000000000E+00  0.45593999997E+02  0.45594000000E+02  0.51100000000E-03 0.  1.
         11   -1    0    0    0    0 -0.00000000000E+00 -0.00000000000E+00 -0.45593999997E+02  0.45594000000E+02  0.51100000000E-03 0. -1.
    9900012    2    1    2    0    0 -0.38512071092E+02 -0.23098534976E+01 -0.12831556330E+02  0.50528881947E+02  0.30000067167E+02 0.  0.
        -12    1    1    2    0    0  0.38512071092E+02  0.23098534976E+01  0.12831556330E+02  0.40659118053E+02  0.00000000000E+00 0.  1.
         11    1    3    3    0    0 -0.18875532619E+02 -0.15109370765E+02 -0.62131833519E+01  0.24963622818E+02  0.51100000000E-03 0. -1.
        -11    1    3    3    0    0 -0.15490308944E+02  0.11378665022E+02 -0.22069581105E+01  0.19346688431E+02  0.51100000000E-03 0.  1.
         12    1    3    3    0    0 -0.41462295281E+01  0.14208522453E+01 -0.44114148680E+01  0.62185706991E+01  0.00000000000E+00 0. -1.
</event>
<event>
 7    1  0.9930326E-013  0.5052886E+02  0.7816164E-02  0.1300439E+00
        -11   -1    0    0    0    0  0.00000000000E+00  0.00000000000E+00  0.45593999997E+02  0.45594000000E+02  0.51100000000E-03 0. -1.
         11   -1    0    0    0    0 -0.00000000000E+00 -0.00000000000E+00 -0.45593999997E+02  0.45594000000E+02  0.51100000000E-03 0.  1.
    9900012    2    1    2    0    0 -0.25936354415E+02  0.23472677101E+01  0.31224375294E+02  0.50528858856E+02  0.29999996980E+02 0.  0.
        -12    1    1    2    0    0  0.25936354415E+02 -0.23472677101E+01 -0.31224375294E+02  0.40659141144E+02  0.00000000000E+00 0.  1.
         11    1    3    3    0    0  0.94449484834E+00  0.28311688730E+01  0.56976099262E+01  0.64319784544E+01  0.51100000000E-03 0. -1.
        -11    1    3    3    0    0 -0.31176185542E+02 -0.14090898636E+01  0.24247345577E+02  0.39520549680E+02  0.51100000000E-03 0.  1.
        -12    1    3    3    0    0  0.42953362786E+01  0.92518870077E+00  0.12794197907E+01  0.45763307222E+01  0.00000000000E+00 0.  1.
</event>
<event>
 7    1  0.9930326E-013  0.5052886E+02  0.7816164E-02  0.1300439E+00
        -11   -1    0    0    0    0  0.00000000000E+00  0.00000000000E+00  0.45593999997E+02  0.45594000000E+02  0.51100000000E-03 0.  1.
         11   -1    0    0    0    0 -0.00000000000E+00 -0.00000000000E+00 -0.45593999997E+02  0.45594000000E+02  0.51100000000E-03 0. -1.
    9900012    2    1    2    0    0  0.17370884310E+02 -0.24544417673E+02 -0.27367670270E+02  0.50528862815E+02  0.30000009011E+02 0.  0.
        -12    1    1    2    0    0 -0.17370884310E+02  0.24544417673E+02  0.27367670270E+02  0.40659137185E+02  0.00000000000E+00 0.  1.
         11    1    3    3    0    0  0.14347841020E+00  0.63256589768E+01 -0.37013659441E+01  0.73303927356E+01  0.51100000000E-03 0. -1.
        -11    1    3    3    0    0  0.10806317337E+02 -0.14245121501E+02 -0.85040567509E+01  0.19799468742E+02  0.51100000000E-03 0.  1.
         12    1    3    3    0    0  0.64210885625E+01 -0.16624955149E+02 -0.15162247575E+02  0.23399001337E+02  0.00000000000E+00 0. -1.
</event>
<event>
 7    1  0.9930326E-013  0.5052886E+02  0.7816164E-02  0.1300439E+00
        -11   -1    0    0    0    0  0.00000000000E+00  0.00000000000E+00  0.45593999997E+02  0.45594000000E+02  0.51100000000E-03 0.  1.
         11   -1    0    0    0    0 -0.00000000000E+00 -0.00000000000E+00 -0.45593999997E+02  0.45594000000E+02  0.51100000000E-03 0. -1.
    9900012    2    1    2    0    0 -0.32318813859E+02 -0.20717675092E+02 -0.13395438878E+02  0.50528861135E+02  0.30000003906E+02 0.  0.
        -12    1    1    2    0    0  0.32318813859E+02  0.20717675092E+02  0.13395438878E+02  0.40659138865E+02  0.00000000000E+00 0.  1.
         11    1    3    3    0    0 -0.24344646582E+01 -0.96799326746E+01 -0.35079159794E+01  0.10579848276E+02  0.51100000000E-03 0. -1.
        -11    1    3    3    0    0 -0.14336465897E+02  0.49651124512E+01 -0.89548029404E+01  0.17617465540E+02  0.51100000000E-03 0.  1.
        -12    1    3    3    0    0 -0.15547883304E+02 -0.16002854869E+02 -0.93271995837E+00  0.22331547320E+02  0.00000000000E+00 0.  1.
</event>
<event>
 7    1  0.9930326E-013  0.5052885E+02  0.7816164E-02  0.1300439E+00
        -11   -1    0    0    0    0  0.00000000000E+00  0.00000000000E+00  0.45593999997E+02  0.45594000000E+02  0.51100000000E-03 0. -1.
         11   -1    0    0    0    0 -0.00000000000E+00 -0.00000000000E+00 -0.45593999997E+02  0.45594000000E+02  0.51100000000E-03 0.  1.
    9900012    2    1    2    0    0  0.35905897590E+02 -0.20416375379E+01  0.18967456770E+02  0.50528853650E+02  0.29999981155E+02 0.  0.
        -12    1    1    2    0    0 -0.35905897590E+02  0.20416375379E+01 -0.18967456770E+02  0.40659146350E+02  0.00000000000E+00 0.  1.
         11    1    3    3    0    0  0.50868402262E+01  0.37909026386E+01 -0.63178873427E+01  0.89533561885E+01  0.51100000000E-03 0.  1.
        -11    1    3    3    0    0  0.27000712405E+02 -0.73453750468E+01  0.18182181678E+02  0.33370417075E+02  0.51100000000E-03 0. -1.
        -12    1    3    3    0    0  0.38183449586E+01  0.15128348704E+01  0.71031624349E+01  0.82050803862E+01  0.00000000000E+00 0.  1.
</event>
<event>
 7    1  0.9930326E-013  0.5052891E+02  0.7816164E-02  0.1300439E+00
        -11   -1    0    0    0    0  0.00000000000E+00  0.00000000000E+00  0.45593999997E+02  0.45594000000E+02  0.51100000000E-03 0.  1.
         11   -1    0    0    0    0 -0.00000000000E+00 -0.00000000000E+00 -0.45593999997E+02  0.45594000000E+02  0.51100000000E-03 0. -1.
    9900012    2    1    2    0    0  0.27391233967E+02  0.18859197624E+02 -0.23392579320E+02  0.50528907530E+02  0.30000144927E+02 0.  0.
        -12    1    1    2    0    0 -0.27391233967E+02 -0.18859197624E+02  0.23392579320E+02  0.40659092470E+02  0.00000000000E+00 0.  1.
         11    1    3    3    0    0  0.14265554478E+02  0.17758034539E+02 -0.16795067952E+02  0.28300673897E+02  0.51100000000E-03 0. -1.
        -11    1    3    3    0    0  0.64076433073E+01 -0.40610591886E+01  0.40672811602E+01  0.86077215791E+01  0.51100000000E-03 0.  1.
        -12    1    3    3    0    0  0.67180361817E+01  0.51622222738E+01 -0.10664792528E+02  0.13620512054E+02  0.00000000000E+00 0.  1.
</event>
<event>
 7    1  0.9930326E-013  0.5052889E+02  0.7816164E-02  0.1300439E+00
        -11   -1    0    0    0    0  0.00000000000E+00  0.00000000000E+00  0.45593999997E+02  0.45594000000E+02  0.51100000000E-03 0.  1.
         11   -1    0    0    0    0 -0.00000000000E+00 -0.00000000000E+00 -0.45593999997E+02  0.45594000000E+02  0.51100000000E-03 0. -1.
    9900012    2    1    2    0    0  0.55562480407E+01 -0.10890314232E+02 -0.38777469938E+02  0.50528892642E+02  0.30000099675E+02 0.  0.
        -12    1    1    2    0    0 -0.55562480407E+01  0.10890314232E+02  0.38777469938E+02  0.40659107358E+02  0.00000000000E+00 0.  1.
         11    1    3    3    0    0 -0.10261066663E+02 -0.15274520682E+01 -0.19852338842E+02  0.22399507955E+02  0.51100000000E-03 0. -1.
        -11    1    3    3    0    0  0.13756283664E+02 -0.31731936728E+01 -0.14556453505E+02  0.20277939669E+02  0.51100000000E-03 0.  1.
         12    1    3    3    0    0  0.20610310398E+01 -0.61896684910E+01 -0.43686775908E+01  0.78514450178E+01  0.00000000000E+00 0. -1.
</event>
<event>
 7    1  0.9930326E-013  0.5052886E+02  0.7816164E-02  0.1300439E+00
        -11   -1    0    0    0    0  0.00000000000E+00  0.00000000000E+00  0.45593999997E+02  0.45594000000E+02  0.51100000000E-03 0.  1.
         11   -1    0    0    0    0 -0.00000000000E+00 -0.00000000000E+00 -0.45593999997E+02  0.45594000000E+02  0.51100000000E-03 0. -1.
    9900012    2    1    2    0    0  0.43154907661E+01 -0.27932708735E+02 -0.29228519012E+02  0.50528855868E+02  0.29999987898E+02 0.  0.
        -12    1    1    2    0    0 -0.43154907661E+01  0.27932708735E+02  0.29228519012E+02  0.40659144132E+02  0.00000000000E+00 0.  1.
         11    1    3    3    0    0  0.11019331018E+02 -0.16089328090E+02 -0.59470623351E+01  0.20387733693E+02  0.51100000000E-03 0. -1.
        -11    1    3    3    0    0  0.20247815141E+01 -0.10939592490E+01 -0.12174096556E+02  0.12389718086E+02  0.51100000000E-03 0.  1.
         12    1    3    3    0    0 -0.87286217658E+01 -0.10749421396E+02 -0.11107360121E+02  0.17751404089E+02  0.00000000000E+00 0. -1.
</event>
<event>
 7    1  0.9930326E-013  0.5052887E+02  0.7816164E-02  0.1300439E+00
        -11   -1    0    0    0    0  0.00000000000E+00  0.00000000000E+00  0.45593999997E+02  0.45594000000E+02  0.51100000000E-03 0. -1.
         11   -1    0    0    0    0 -0.00000000000E+00 -0.00000000000E+00 -0.45593999997E+02  0.45594000000E+02  0.51100000000E-03 0.  1.
    9900012    2    1    2    0    0  0.27700620948E+02  0.27562530147E+02 -0.11231531418E+02  0.50528871050E+02  0.30000034043E+02 0.  0.
        -12    1    1    2    0    0 -0.27700620948E+02 -0.27562530147E+02  0.11231531418E+02  0.40659128950E+02  0.00000000000E+00 0.  1.
         11    1    3    3    0    0  0.22557846979E+02  0.13936833219E+02 -0.17530307838E+02  0.31786844349E+02  0.51100000000E-03 0. -1.
        -11    1    3    3    0    0 -0.16801777959E+01  0.30593166904E+01 -0.16524492501E+01  0.38617359857E+01  0.51100000000E-03 0.  1.
         12    1    3    3    0    0  0.68229517654E+01  0.10566380238E+02  0.79512256701E+01  0.14880290716E+02  0.00000000000E+00 0. -1.
</event>
<event>
 7    1  0.9930326E-013  0.5052886E+02  0.7816164E-02  0.1300439E+00
        -11   -1    0    0    0    0  0.00000000000E+00  0.00000000000E+00  0.45593999997E+02  0.45594000000E+02  0.51100000000E-03 0.  1.
         11   -1    0    0    0    0 -0.00000000000E+00 -0.00000000000E+00 -0.45593999997E+02  0.45594000000E+02  0.51100000000E-03 0. -1.
    9900012    2    1    2    0    0  0.15243431445E+02  0.35232963531E+02 -0.13395601226E+02  0.50528855228E+02  0.29999985950E+02 0.  0.
        -12    1    1    2    0    0 -0.15243431445E+02 -0.35232963531E+02  0.13395601226E+02  0.40659144772E+02  0.00000000000E+00 0.  1.
         11    1    3    3    0    0 -0.44326182731E+01  0.10926310934E+02  0.63050413927E+01  0.13371085319E+02  0.51100000000E-03 0.  1.
        -11    1    3    3    0    0  0.16249044737E+02  0.19601901648E+02 -0.17675375483E+02  0.30994917354E+02  0.51100000000E-03 0. -1.
        -12    1    3    3    0    0  0.34270049817E+01  0.47047509489E+01 -0.20252671357E+01  0.61628525543E+01  0.00000000000E+00 0.  1.
</event>
<event>
 7    1  0.9930326E-013  0.5052886E+02  0.7816164E-02  0.1300439E+00
        -11   -1    0    0    0    0  0.00000000000E+00  0.00000000000E+00  0.45593999997E+02  0.45594000000E+02  0.51100000000E-03 0.  1.
         11   -1    0    0    0    0 -0.00000000000E+00 -0.00000000000E+00 -0.45593999997E+02  0.45594000000E+02  0.51100000000E-03 0. -1.
    9900012    2    1    2    0    0 -0.64898897854E+01 -0.92358467358E+01 -0.39060799835E+02  0.50528860583E+02  0.30000002228E+02 0.  0.
        -12    1    1    2    0    0  0.64898897854E+01  0.92358467358E+01  0.39060799835E+02  0.40659139417E+02  0.00000000000E+00 0.  1.
         11    1    3    3    0    0  0.23824764685E+01 -0.60737403627E+01 -0.39372041361E+02  0.39908948336E+02  0.51100000000E-03 0. -1.
        -11    1    3    3    0    0 -0.73388283799E+01 -0.29476426393E+00 -0.76943375293E-01  0.73451486373E+01  0.51100000000E-03 0.  1.
         12    1    3    3    0    0 -0.15335378741E+01 -0.28673421092E+01  0.38818490086E+00  0.32747636097E+01  0.00000000000E+00 0. -1.
</event>
<event>
 7    1  0.9930326E-013  0.5052886E+02  0.7816164E-02  0.1300439E+00
        -11   -1    0    0    0    0  0.00000000000E+00  0.00000000000E+00  0.45593999997E+02  0.45594000000E+02  0.51100000000E-03 0. -1.
         11   -1    0    0    0    0 -0.00000000000E+00 -0.00000000000E+00 -0.45593999997E+02  0.45594000000E+02  0.51100000000E-03 0.  1.
    9900012    2    1    2    0    0 -0.20381631343E+02 -0.12639222630E+02  0.32832986940E+02  0.50528857409E+02  0.29999992579E+02 0.  0.
        -12    1    1    2    0    0  0.20381631343E+02  0.12639222630E+02 -0.32832986940E+02  0.40659142591E+02  0.00000000000E+00 0.  1.
         11    1    3    3    0    0  0.34665812409E+01  0.38293004491E+01  0.13265182037E+02  0.14235370813E+02  0.51100000000E-03 0. -1.
        -11    1    3    3    0    0 -0.89967219698E+01 -0.11894264856E+02  0.80249773484E+01  0.16935607588E+02  0.51100000000E-03 0.  1.
         12    1    3    3    0    0 -0.14851490614E+02 -0.45742582222E+01  0.11542827554E+02  0.19357879008E+02  0.00000000000E+00 0. -1.
</event>
<event>
 7    1  0.9930326E-013  0.5052887E+02  0.7816164E-02  0.1300439E+00
        -11   -1    0    0    0    0  0.00000000000E+00  0.00000000000E+00  0.45593999997E+02  0.45594000000E+02  0.51100000000E-03 0.  1.
         11   -1    0    0    0    0 -0.00000000000E+00 -0.00000000000E+00 -0.45593999997E+02  0.45594000000E+02  0.51100000000E-03 0. -1.
    9900012    2    1    2    0    0  0.65485244374E+01 -0.35958336015E+02 -0.17812356127E+02  0.50528866561E+02  0.30000020398E+02 0.  0.
        -12    1    1    2    0    0 -0.65485244374E+01  0.35958336015E+02  0.17812356127E+02  0.40659133439E+02  0.00000000000E+00 0.  1.
         11    1    3    3    0    0  0.48734384033E+01 -0.83356125676E+01 -0.55647021500E+01  0.11144449247E+02  0.51100000000E-03 0. -1.
        -11    1    3    3    0    0 -0.77837595871E+01 -0.11626987060E+02 -0.15097324419E+02  0.20584045916E+02  0.51100000000E-03 0.  1.
        -12    1    3    3    0    0  0.94588456212E+01 -0.15995736387E+02  0.28496704421E+01  0.18800371397E+02  0.00000000000E+00 0.  1.
</event>
<event>
 7    1  0.9930326E-013  0.5052886E+02  0.7816164E-02  0.1300439E+00
        -11   -1    0    0    0    0  0.00000000000E+00  0.00000000000E+00  0.45593999997E+02  0.45594000000E+02  0.51100000000E-03 0. -1.
         11   -1    0    0    0    0 -0.00000000000E+00 -0.00000000000E+00 -0.45593999997E+02  0.45594000000E+02  0.51100000000E-03 0.  1.
    9900012    2    1    2    0    0 -0.25646990554E+02  0.29499189482E+02  0.11189068614E+02  0.50528861285E+02  0.30000004361E+02 0.  0.
        -12    1    1    2    0    0  0.25646990554E+02 -0.29499189482E+02 -0.11189068614E+02  0.40659138715E+02  0.00000000000E+00 0.  1.
         11    1    3    3    0    0  0.28508771267E+01  0.14615405251E+02  0.87593600822E+01  0.17276109526E+02  0.51100000000E-03 0. -1.
        -11    1    3    3    0    0 -0.21735089747E+02  0.73604742904E+01  0.49253853114E+00  0.22952849552E+02  0.51100000000E-03 0.  1.
        -12    1    3    3    0    0 -0.67627779339E+01  0.75233099409E+01  0.19371700010E+01  0.10299902206E+02  0.00000000000E+00 0.  1.
</event>
<event>
 7    1  0.9930326E-013  0.5052885E+02  0.7816164E-02  0.1300439E+00
        -11   -1    0    0    0    0  0.00000000000E+00  0.00000000000E+00  0.45593999997E+02  0.45594000000E+02  0.51100000000E-03 0. -1.
         11   -1    0    0    0    0 -0.00000000000E+00 -0.00000000000E+00 -0.45593999997E+02  0.45594000000E+02  0.51100000000E-03 0.  1.
    9900012    2    1    2    0    0  0.37750390762E+02 -0.13709291949E+02  0.63347773751E+01  0.50528854746E+02  0.29999984486E+02 0.  0.
        -12    1    1    2    0    0 -0.37750390762E+02  0.13709291949E+02 -0.63347773751E+01  0.40659145254E+02  0.00000000000E+00 0.  1.
         11    1    3    3    0    0  0.83536702160E+01  0.55125874271E+01  0.64271461445E+01  0.11894563214E+02  0.51100000000E-03 0. -1.
        -11    1    3    3    0    0  0.18191475227E+02 -0.46232248450E+01 -0.53087476469E+01  0.19506070357E+02  0.51100000000E-03 0.  1.
         12    1    3    3    0    0  0.11205245318E+02 -0.14598654531E+02  0.52163788774E+01  0.19128221176E+02  0.00000000000E+00 0. -1.
</event>
<event>
 7    1  0.9930326E-013  0.5052889E+02  0.7816164E-02  0.1300439E+00
        -11   -1    0    0    0    0  0.00000000000E+00  0.00000000000E+00  0.45593999997E+02  0.45594000000E+02  0.51100000000E-03 0.  1.
         11   -1    0    0    0    0 -0.00000000000E+00 -0.00000000000E+00 -0.45593999997E+02  0.45594000000E+02  0.51100000000E-03 0. -1.
    9900012    2    1    2    0    0  0.21453837343E+02 -0.35711591057E+01 -0.34353212946E+02  0.50528885969E+02  0.30000079391E+02 0.  0.
        -12    1    1    2    0    0 -0.21453837343E+02  0.35711591057E+01  0.34353212946E+02  0.40659114031E+02  0.00000000000E+00 0.  1.
         11    1    3    3    0    0  0.11902659527E+02  0.12030451332E+02 -0.14684540548E+02  0.22406266857E+02  0.51100000000E-03 0. -1.
        -11    1    3    3    0    0  0.38921577302E+01 -0.53559200669E+01 -0.19771724727E+01  0.69097020781E+01  0.51100000000E-03 0.  1.
         12    1    3    3    0    0  0.56590200854E+01 -0.10245690371E+02 -0.17691499925E+02  0.21212917034E+02  0.00000000000E+00 0. -1.
</event>
<event>
 7    1  0.9930326E-013  0.5052887E+02  0.7816164E-02  0.1300439E+00
        -11   -1    0    0    0    0  0.00000000000E+00  0.00000000000E+00  0.45593999997E+02  0.45594000000E+02  0.51100000000E-03 0. -1.
         11   -1    0    0    0    0 -0.00000000000E+00 -0.00000000000E+00 -0.45593999997E+02  0.45594000000E+02  0.51100000000E-03 0.  1.
    9900012    2    1    2    0    0  0.19031256101E+02  0.20428344776E+02  0.29557727430E+02  0.50528865357E+02  0.30000016740E+02 0.  0.
        -12    1    1    2    0    0 -0.19031256101E+02 -0.20428344776E+02 -0.29557727430E+02  0.40659134643E+02  0.00000000000E+00 0.  1.
         11    1    3    3    0    0  0.30609981596E+01  0.75536405801E+01  0.14736270797E+02  0.16839978415E+02  0.51100000000E-03 0. -1.
        -11    1    3    3    0    0  0.17463811764E+02  0.34192212084E+01  0.23240218671E+01  0.17946500297E+02  0.51100000000E-03 0.  1.
        -12    1    3    3    0    0 -0.14935538235E+01  0.94554829879E+01  0.12497434766E+02  0.15742386645E+02  0.00000000000E+00 0.  1.
</event>
<event>
 7    1  0.9930326E-013  0.5052890E+02  0.7816164E-02  0.1300439E+00
        -11   -1    0    0    0    0  0.00000000000E+00  0.00000000000E+00  0.45593999997E+02  0.45594000000E+02  0.51100000000E-03 0.  1.
         11   -1    0    0    0    0 -0.00000000000E+00 -0.00000000000E+00 -0.45593999997E+02  0.45594000000E+02  0.51100000000E-03 0. -1.
    9900012    2    1    2    0    0  0.33772387433E+02  0.16628019708E+02 -0.15365467534E+02  0.50528895424E+02  0.30000108132E+02 0.  0.
        -12    1    1    2    0    0 -0.33772387433E+02 -0.16628019708E+02  0.15365467534E+02  0.40659104576E+02  0.00000000000E+00 0.  1.
         11    1    3    3    0    0  0.36000293086E+02  0.15702582676E+02 -0.61344242417E+01  0.39752023421E+02  0.51100000000E-03 0. -1.
        -11    1    3    3    0    0  0.14974500845E+01  0.69761245955E+00 -0.41949489092E+01  0.45085049086E+01  0.51100000000E-03 0.  1.
         12    1    3    3    0    0 -0.37253557374E+01  0.22782457231E+00 -0.50360943830E+01  0.62683670952E+01  0.00000000000E+00 0. -1.
</event>
<event>
 7    1  0.9930326E-013  0.5052885E+02  0.7816164E-02  0.1300439E+00
        -11   -1    0    0    0    0  0.00000000000E+00  0.00000000000E+00  0.45593999997E+02  0.45594000000E+02  0.51100000000E-03 0.  1.
         11   -1    0    0    0    0 -0.00000000000E+00 -0.00000000000E+00 -0.45593999997E+02  0.45594000000E+02  0.51100000000E-03 0. -1.
    9900012    2    1    2    0    0  0.25127564697E+02 -0.24875855166E+02 -0.20073951310E+02  0.50528853439E+02  0.29999980514E+02 0.  0.
        -12    1    1    2    0    0 -0.25127564697E+02  0.24875855166E+02  0.20073951310E+02  0.40659146561E+02  0.00000000000E+00 0.  1.
         11    1    3    3    0    0  0.16264034617E+02 -0.90014451352E+01 -0.17391295290E+02  0.25455883184E+02  0.51100000000E-03 0. -1.
        -11    1    3    3    0    0  0.13133580080E+02 -0.15926962335E+02 -0.18933394967E+01  0.20730262653E+02  0.51100000000E-03 0.  1.
         12    1    3    3    0    0 -0.42700499999E+01  0.52552304456E-01 -0.78931652372E+00  0.43427076025E+01  0.00000000000E+00 0. -1.
</event>
<event>
 7    1  0.9930326E-013  0.5052886E+02  0.7816164E-02  0.1300439E+00
        -11   -1    0    0    0    0  0.00000000000E+00  0.00000000000E+00  0.45593999997E+02  0.45594000000E+02  0.51100000000E-03 0.  1.
         11   -1    0    0    0    0 -0.00000000000E+00 -0.00000000000E+00 -0.45593999997E+02  0.45594000000E+02  0.51100000000E-03 0. -1.
    9900012    2    1    2    0    0  0.41828769055E+01  0.36815823825E+02 -0.16741106355E+02  0.50528856070E+02  0.29999988510E+02 0.  0.
        -12    1    1    2    0    0 -0.41828769055E+01 -0.36815823825E+02  0.16741106355E+02  0.40659143930E+02  0.00000000000E+00 0.  1.
         11    1    3    3    0    0  0.20280317884E+01  0.36049180346E+02 -0.16660152421E+02  0.39764519304E+02  0.51100000000E-03 0. -1.
        -11    1    3    3    0    0 -0.28559835107E+01 -0.32214186552E+01 -0.56439847947E+00  0.43419725783E+01  0.51100000000E-03 0.  1.
        -12    1    3    3    0    0  0.50108286278E+01  0.39880621348E+01  0.48344454589E+00  0.64223641875E+01  0.00000000000E+00 0.  1.
</event>
<event>
 7    1  0.9930326E-013  0.5052886E+02  0.7816164E-02  0.1300439E+00
        -11   -1    0    0    0    0  0.00000000000E+00  0.00000000000E+00  0.45593999997E+02  0.45594000000E+02  0.51100000000E-03 0.  1.
         11   -1    0    0    0    0 -0.00000000000E+00 -0.00000000000E+00 -0.45593999997E+02  0.45594000000E+02  0.51100000000E-03 0. -1.
    9900012    2    1    2    0    0  0.28463686723E+02 -0.12658458456E+02 -0.26129441099E+02  0.50528859275E+02  0.29999998253E+02 0.  0.
        -12    1    1    2    0    0 -0.28463686723E+02  0.12658458456E+02  0.26129441099E+02  0.40659140725E+02  0.00000000000E+00 0.  1.
         11    1    3    3    0    0  0.15340631282E+02 -0.43105748822E+01 -0.19890472223E+01  0.16058403814E+02  0.51100000000E-03 0. -1.
        -11    1    3    3    0    0 -0.23563934056E+01 -0.19953212236E+01 -0.15178368364E+02  0.15489246693E+02  0.51100000000E-03 0.  1.
        -12    1    3    3    0    0  0.15479448846E+02 -0.63525623506E+01 -0.89620255125E+01  0.18981208768E+02  0.00000000000E+00 0.  1.
</event>
<event>
 7    1  0.9930326E-013  0.5052886E+02  0.7816164E-02  0.1300439E+00
        -11   -1    0    0    0    0  0.00000000000E+00  0.00000000000E+00  0.45593999997E+02  0.45594000000E+02  0.51100000000E-03 0.  1.
         11   -1    0    0    0    0 -0.00000000000E+00 -0.00000000000E+00 -0.45593999997E+02  0.45594000000E+02  0.51100000000E-03 0. -1.
    9900012    2    1    2    0    0  0.95977786463E+01  0.66939556576E+01 -0.38938915372E+02  0.50528861696E+02  0.30000005610E+02 0.  0.
        -12    1    1    2    0    0 -0.95977786463E+01 -0.66939556576E+01  0.38938915372E+02  0.40659138304E+02  0.00000000000E+00 0.  1.
         11    1    3    3    0    0  0.82784164331E+01  0.46154130563E+01 -0.39246673426E+02  0.40374937667E+02  0.51100000000E-03 0. -1.
        -11    1    3    3    0    0 -0.40746257665E+01  0.19138341417E+01  0.12585087142E+01  0.46743107196E+01  0.51100000000E-03 0.  1.
         12    1    3    3    0    0  0.53939879797E+01  0.16470845967E+00 -0.95075066019E+00  0.54796133093E+01  0.00000000000E+00 0. -1.
</event>
<event>
 7    1  0.9930326E-013  0.5052882E+02  0.7816164E-02  0.1300439E+00
        -11   -1    0    0    0    0  0.00000000000E+00  0.00000000000E+00  0.45593999997E+02  0.45594000000E+02  0.51100000000E-03 0.  1.
         11   -1    0    0    0    0 -0.00000000000E+00 -0.00000000000E+00 -0.45593999997E+02  0.45594000000E+02  0.51100000000E-03 0. -1.
    9900012    2    1    2    0    0  0.30006490848E+02 -0.16588024768E+02 -0.21854438320E+02  0.50528824738E+02  0.29999893273E+02 0.  0.
        -12    1    1    2    0    0 -0.30006490848E+02  0.16588024768E+02  0.21854438320E+02  0.40659175262E+02  0.00000000000E+00 0.  1.
         11    1    3    3    0    0  0.23085883427E+01 -0.85506237478E+01  0.48428521478E+01  0.10094353065E+02  0.51100000000E-03 0. -1.
        -11    1    3    3    0    0  0.20528488577E+02 -0.15600974413E+01 -0.16471259145E+02  0.26365794609E+02  0.51100000000E-03 0.  1.
         12    1    3    3    0    0  0.71694139286E+01 -0.64773035794E+01 -0.10226031322E+02  0.14068677064E+02  0.00000000000E+00 0. -1.
</event>
<event>
 7    1  0.9930326E-013  0.5052886E+02  0.7816164E-02  0.1300439E+00
        -11   -1    0    0    0    0  0.00000000000E+00  0.00000000000E+00  0.45593999997E+02  0.45594000000E+02  0.51100000000E-03 0.  1.
         11   -1    0    0    0    0 -0.00000000000E+00 -0.00000000000E+00 -0.45593999997E+02  0.45594000000E+02  0.51100000000E-03 0. -1.
    9900012    2    1    2    0    0  0.33253777355E+02  0.19428591225E+02  0.13033866196E+02  0.50528861625E+02  0.30000005395E+02 0.  0.
        -12    1    1    2    0    0 -0.33253777355E+02 -0.19428591225E+02 -0.13033866196E+02  0.40659138375E+02  0.00000000000E+00 0.  1.
         11    1    3    3    0    0  0.14804751030E+02 -0.60044273195E+01  0.46459427397E+01  0.16637865990E+02  0.51100000000E-03 0. -1.
        -11    1    3    3    0    0  0.19467590770E+02  0.22768674880E+02  0.72609662411E+01  0.30824037328E+02  0.51100000000E-03 0.  1.
         12    1    3    3    0    0 -0.10185644446E+01  0.26643436652E+01  0.11269572150E+01  0.30669583072E+01  0.00000000000E+00 0. -1.
</event>
<event>
 7    1  0.9930326E-013  0.5052886E+02  0.7816164E-02  0.1300439E+00
        -11   -1    0    0    0    0  0.00000000000E+00  0.00000000000E+00  0.45593999997E+02  0.45594000000E+02  0.51100000000E-03 0. -1.
         11   -1    0    0    0    0 -0.00000000000E+00 -0.00000000000E+00 -0.45593999997E+02  0.45594000000E+02  0.51100000000E-03 0.  1.
    9900012    2    1    2    0    0  0.14822579783E+02  0.61191059907E+01  0.37363258661E+02  0.50528862929E+02  0.30000009360E+02 0.  0.
        -12    1    1    2    0    0 -0.14822579783E+02 -0.61191059907E+01 -0.37363258661E+02  0.40659137071E+02  0.00000000000E+00 0.  1.
         11    1    3    3    0    0 -0.58251862653E+00  0.26463046649E+01  0.56835246630E+01  0.62964044649E+01  0.51100000000E-03 0. -1.
        -11    1    3    3    0    0  0.15881043616E+02 -0.90379351201E+01  0.17254102512E+02  0.25131571206E+02  0.51100000000E-03 0.  1.
        -12    1    3    3    0    0 -0.47594520604E+00  0.12510736446E+02  0.14425631486E+02  0.19100887258E+02  0.00000000000E+00 0.  1.
</event>
<event>
 7    1  0.9930326E-013  0.5052886E+02  0.7816164E-02  0.1300439E+00
        -11   -1    0    0    0    0  0.00000000000E+00  0.00000000000E+00  0.45593999997E+02  0.45594000000E+02  0.51100000000E-03 0.  1.
         11   -1    0    0    0    0 -0.00000000000E+00 -0.00000000000E+00 -0.45593999997E+02  0.45594000000E+02  0.51100000000E-03 0. -1.
    9900012    2    1    2    0    0 -0.71114386428E+01 -0.30316402180E+02 -0.26144007950E+02  0.50528856473E+02  0.29999989734E+02 0.  0.
        -12    1    1    2    0    0  0.71114386428E+01  0.30316402180E+02  0.26144007950E+02  0.40659143527E+02  0.00000000000E+00 0.  1.
         11    1    3    3    0    0 -0.57701854672E+01 -0.98841518800E+01  0.17643915711E+01  0.11580353043E+02  0.51100000000E-03 0. -1.
        -11    1    3    3    0    0  0.58063377184E+01 -0.10574085929E+02 -0.22696650125E+02  0.25703361222E+02  0.51100000000E-03 0.  1.
        -12    1    3    3    0    0 -0.71475908940E+01 -0.98581643710E+01 -0.52117493956E+01  0.13245142208E+02  0.00000000000E+00 0.  1.
</event>
<event>
 7    1  0.9930326E-013  0.5052887E+02  0.7816164E-02  0.1300439E+00
        -11   -1    0    0    0    0  0.00000000000E+00  0.00000000000E+00  0.45593999997E+02  0.45594000000E+02  0.51100000000E-03 0.  1.
         11   -1    0    0    0    0 -0.00000000000E+00 -0.00000000000E+00 -0.45593999997E+02  0.45594000000E+02  0.51100000000E-03 0. -1.
    9900012    2    1    2    0    0  0.22563066320E+02 -0.28018929084E+02 -0.18947623549E+02  0.50528870805E+02  0.30000033298E+02 0.  0.
        -12    1    1    2    0    0 -0.22563066320E+02  0.28018929084E+02  0.18947623549E+02  0.40659129195E+02  0.00000000000E+00 0.  1.
         11    1    3    3    0    0  0.11888949203E+02  0.21949024548E+01 -0.68143933587E+01  0.13878064240E+02  0.51100000000E-03 0.  1.
        -11    1    3    3    0    0  0.12786572947E+02 -0.19607979287E+02 -0.57924000720E+01  0.24114750638E+02  0.51100000000E-03 0. -1.
         12    1    3    3    0    0 -0.21124558306E+01 -0.10605852252E+02 -0.63408301185E+01  0.12536055927E+02  0.00000000000E+00 0. -1.
</event>
<event>
 7    1  0.9930326E-013  0.5052886E+02  0.7816164E-02  0.1300439E+00
        -11   -1    0    0    0    0  0.00000000000E+00  0.00000000000E+00  0.45593999997E+02  0.45594000000E+02  0.51100000000E-03 0.  1.
         11   -1    0    0    0    0 -0.00000000000E+00 -0.00000000000E+00 -0.45593999997E+02  0.45594000000E+02  0.51100000000E-03 0. -1.
    9900012    2    1    2    0    0  0.36551390690E+02  0.40769072771E+00 -0.17804369573E+02  0.50528856514E+02  0.29999989861E+02 0.  0.
        -12    1    1    2    0    0 -0.36551390690E+02 -0.40769072771E+00  0.17804369573E+02  0.40659143486E+02  0.00000000000E+00 0.  1.
         11    1    3    3    0    0  0.13681039004E+02  0.84552937350E+01  0.34757015052E+01  0.16454279735E+02  0.51100000000E-03 0. -1.
        -11    1    3    3    0    0  0.30309617981E+01 -0.56943886224E+01 -0.35491364919E+01  0.73626870980E+01  0.51100000000E-03 0.  1.
         12    1    3    3    0    0  0.19839389888E+02 -0.23532143849E+01 -0.17730934586E+02  0.26711889682E+02  0.00000000000E+00 0. -1.
</event>
<event>
 7    1  0.9930326E-013  0.5052886E+02  0.7816164E-02  0.1300439E+00
        -11   -1    0    0    0    0  0.00000000000E+00  0.00000000000E+00  0.45593999997E+02  0.45594000000E+02  0.51100000000E-03 0.  1.
         11   -1    0    0    0    0 -0.00000000000E+00 -0.00000000000E+00 -0.45593999997E+02  0.45594000000E+02  0.51100000000E-03 0. -1.
    9900012    2    1    2    0    0 -0.28978343828E+02  0.18552285080E+01 -0.28460133007E+02  0.50528862594E+02  0.30000008341E+02 0.  0.
        -12    1    1    2    0    0  0.28978343828E+02 -0.18552285080E+01  0.28460133007E+02  0.40659137406E+02  0.00000000000E+00 0.  1.
         11    1    3    3    0    0  0.13919637735E+01  0.49277205454E+01 -0.77963262418E+01  0.93275235755E+01  0.51100000000E-03 0. -1.
        -11    1    3    3    0    0 -0.32820682105E+02 -0.30822616755E+01 -0.20325879495E+02  0.38727753464E+02  0.51100000000E-03 0.  1.
        -12    1    3    3    0    0  0.24503745039E+01  0.97696380814E-02 -0.33792727083E+00  0.24735855546E+01  0.00000000000E+00 0.  1.
</event>
<event>
 7    1  0.9930326E-013  0.5052886E+02  0.7816164E-02  0.1300439E+00
        -11   -1    0    0    0    0  0.00000000000E+00  0.00000000000E+00  0.45593999997E+02  0.45594000000E+02  0.51100000000E-03 0.  1.
         11   -1    0    0    0    0 -0.00000000000E+00 -0.00000000000E+00 -0.45593999997E+02  0.45594000000E+02  0.51100000000E-03 0. -1.
    9900012    2    1    2    0    0 -0.21137435756E+02 -0.34441083076E+02  0.44929186876E+01  0.50528859427E+02  0.29999998714E+02 0.  0.
        -12    1    1    2    0    0  0.21137435756E+02  0.34441083076E+02 -0.44929186876E+01  0.40659140573E+02  0.00000000000E+00 0.  1.
         11    1    3    3    0    0 -0.25091732813E+01 -0.63634327836E+01 -0.51303493244E+01  0.85504217322E+01  0.51100000000E-03 0. -1.
        -11    1    3    3    0    0 -0.27431409132E+01 -0.23347001766E+02  0.96306529807E+01  0.25403873536E+02  0.51100000000E-03 0.  1.
        -12    1    3    3    0    0 -0.15885121562E+02 -0.47306485268E+01 -0.73849686855E-02  0.16574564159E+02  0.00000000000E+00 0.  1.
</event>
<event>
 7    1  0.9930326E-013  0.5052888E+02  0.7816164E-02  0.1300439E+00
        -11   -1    0    0    0    0  0.00000000000E+00  0.00000000000E+00  0.45593999997E+02  0.45594000000E+02  0.51100000000E-03 0.  1.
         11   -1    0    0    0    0 -0.00000000000E+00 -0.00000000000E+00 -0.45593999997E+02  0.45594000000E+02  0.51100000000E-03 0. -1.
    9900012    2    1    2    0    0  0.34261665887E+02 -0.13550790676E+02 -0.17195293009E+02  0.50528883200E+02  0.30000070974E+02 0.  0.
        -12    1    1    2    0    0 -0.34261665887E+02  0.13550790676E+02  0.17195293009E+02  0.40659116800E+02  0.00000000000E+00 0.  1.
         11    1    3    3    0    0  0.15401470585E+02 -0.10675147212E+02 -0.21197486763E+02  0.28293064689E+02  0.51100000000E-03 0. -1.
        -11    1    3    3    0    0  0.67657093110E+01  0.12250498495E+01  0.62226591309E+01  0.92734597932E+01  0.51100000000E-03 0.  1.
         12    1    3    3    0    0  0.12094485991E+02 -0.41006933135E+01 -0.22204653778E+01  0.12962358718E+02  0.00000000000E+00 0. -1.
</event>
<event>
 7    1  0.9930326E-013  0.5052891E+02  0.7816164E-02  0.1300439E+00
        -11   -1    0    0    0    0  0.00000000000E+00  0.00000000000E+00  0.45593999997E+02  0.45594000000E+02  0.51100000000E-03 0.  1.
         11   -1    0    0    0    0 -0.00000000000E+00 -0.00000000000E+00 -0.45593999997E+02  0.45594000000E+02  0.51100000000E-03 0. -1.
    9900012    2    1    2    0    0 -0.38369814685E+02 -0.12796647558E+02 -0.41430506028E+01  0.50528908323E+02  0.30000147339E+02 0.  0.
        -12    1    1    2    0    0  0.38369814685E+02  0.12796647558E+02  0.41430506028E+01  0.40659091677E+02  0.00000000000E+00 0.  1.
         11    1    3    3    0    0 -0.19257847514E+02 -0.69839157241E+01 -0.67716548163E+01  0.21575334966E+02  0.51100000000E-03 0. -1.
        -11    1    3    3    0    0 -0.75682002865E+01 -0.84744607934E+01  0.98858937117E+01  0.15060711672E+02  0.51100000000E-03 0.  1.
        -12    1    3    3    0    0 -0.11543766885E+02  0.26617289594E+01 -0.72572894982E+01  0.13892861685E+02  0.00000000000E+00 0.  1.
</event>
<event>
 7    1  0.9930326E-013  0.5052885E+02  0.7816164E-02  0.1300439E+00
        -11   -1    0    0    0    0  0.00000000000E+00  0.00000000000E+00  0.45593999997E+02  0.45594000000E+02  0.51100000000E-03 0.  1.
         11   -1    0    0    0    0 -0.00000000000E+00 -0.00000000000E+00 -0.45593999997E+02  0.45594000000E+02  0.51100000000E-03 0. -1.
    9900012    2    1    2    0    0  0.71229574016E+01 -0.30249948107E+02 -0.26217749080E+02  0.50528852819E+02  0.29999978630E+02 0.  0.
        -12    1    1    2    0    0 -0.71229574016E+01  0.30249948107E+02  0.26217749080E+02  0.40659147181E+02  0.00000000000E+00 0.  1.
         11    1    3    3    0    0  0.10112408883E+02 -0.20081802879E+02 -0.28573502362E+02  0.36359106944E+02  0.51100000000E-03 0. -1.
        -11    1    3    3    0    0  0.26199757499E+01 -0.11381366380E+01  0.20838175591E+01  0.35358059643E+01  0.51100000000E-03 0.  1.
         12    1    3    3    0    0 -0.56094272310E+01 -0.90300085900E+01  0.27193572242E+00  0.10633939911E+02  0.00000000000E+00 0. -1.
</event>
<event>
 7    1  0.9930326E-013  0.5052885E+02  0.7816164E-02  0.1300439E+00
        -11   -1    0    0    0    0  0.00000000000E+00  0.00000000000E+00  0.45593999997E+02  0.45594000000E+02  0.51100000000E-03 0.  1.
         11   -1    0    0    0    0 -0.00000000000E+00 -0.00000000000E+00 -0.45593999997E+02  0.45594000000E+02  0.51100000000E-03 0. -1.
    9900012    2    1    2    0    0  0.33117687681E+02  0.16848609119E+02 -0.16507870096E+02  0.50528847996E+02  0.29999963968E+02 0.  0.
        -12    1    1    2    0    0 -0.33117687681E+02 -0.16848609119E+02  0.16507870096E+02  0.40659152004E+02  0.00000000000E+00 0.  1.
         11    1    3    3    0    0  0.92438122606E+01  0.18290468541E+02  0.11737212373E+01  0.20527224029E+02  0.51100000000E-03 0. -1.
        -11    1    3    3    0    0  0.10525621998E+02 -0.15867502825E+01 -0.99739697075E+01  0.14587205589E+02  0.51100000000E-03 0.  1.
         12    1    3    3    0    0  0.13348253422E+02  0.14489086040E+00 -0.77076216256E+01  0.15414418377E+02  0.00000000000E+00 0. -1.
</event>
<event>
 7    1  0.9930326E-013  0.5052886E+02  0.7816164E-02  0.1300439E+00
        -11   -1    0    0    0    0  0.00000000000E+00  0.00000000000E+00  0.45593999997E+02  0.45594000000E+02  0.51100000000E-03 0. -1.
         11   -1    0    0    0    0 -0.00000000000E+00 -0.00000000000E+00 -0.45593999997E+02  0.45594000000E+02  0.51100000000E-03 0.  1.
    9900012    2    1    2    0    0 -0.37592924458E+02  0.35260257661E+01  0.15083263699E+02  0.50528859935E+02  0.30000000259E+02 0.  0.
        -12    1    1    2    0    0  0.37592924458E+02 -0.35260257661E+01 -0.15083263699E+02  0.40659140065E+02  0.00000000000E+00 0.  1.
         11    1    3    3    0    0 -0.74041342164E+01 -0.90087292749E+01 -0.28060405735E+01  0.11993843029E+02  0.51100000000E-03 0. -1.
        -11    1    3    3    0    0 -0.87345866767E+00  0.27639932426E+01  0.14592649089E+00  0.29023927183E+01  0.51100000000E-03 0.  1.
         12    1    3    3    0    0 -0.29315331574E+02  0.97707617984E+01  0.17743377782E+02  0.35632624188E+02  0.00000000000E+00 0. -1.
</event>
<event>
 7    1  0.9930326E-013  0.5052885E+02  0.7816164E-02  0.1300439E+00
        -11   -1    0    0    0    0  0.00000000000E+00  0.00000000000E+00  0.45593999997E+02  0.45594000000E+02  0.51100000000E-03 0.  1.
         11   -1    0    0    0    0 -0.00000000000E+00 -0.00000000000E+00 -0.45593999997E+02  0.45594000000E+02  0.51100000000E-03 0. -1.
    9900012    2    1    2    0    0 -0.32628711357E+02  0.21529149988E+02 -0.11181656215E+02  0.50528849249E+02  0.29999967778E+02 0.  0.
        -12    1    1    2    0    0  0.32628711357E+02 -0.21529149988E+02  0.11181656215E+02  0.40659150751E+02  0.00000000000E+00 0.  1.
         11    1    3    3    0    0 -0.12658662211E+02  0.11338837866E+02 -0.68976205834E+01  0.18340887195E+02  0.51100000000E-03 0. -1.
        -11    1    3    3    0    0  0.36398049451E+01  0.69308246223E+01  0.62683622101E+00  0.78534981946E+01  0.51100000000E-03 0.  1.
        -12    1    3    3    0    0 -0.23609854091E+02  0.32594874999E+01 -0.49108718525E+01  0.24334463860E+02  0.00000000000E+00 0.  1.
</event>
<event>
 7    1  0.9930326E-013  0.5052887E+02  0.7816164E-02  0.1300439E+00
        -11   -1    0    0    0    0  0.00000000000E+00  0.00000000000E+00  0.45593999997E+02  0.45594000000E+02  0.51100000000E-03 0.  1.
         11   -1    0    0    0    0 -0.00000000000E+00 -0.00000000000E+00 -0.45593999997E+02  0.45594000000E+02  0.51100000000E-03 0. -1.
    9900012    2    1    2    0    0  0.31447268774E+02 -0.68403290407E+01 -0.24848424595E+02  0.50528867944E+02  0.30000024601E+02 0.  0.
        -12    1    1    2    0    0 -0.31447268774E+02  0.68403290407E+01  0.24848424595E+02  0.40659132056E+02  0.00000000000E+00 0.  1.
         11    1    3    3    0    0  0.19555544659E+02 -0.13183758278E+02 -0.19155586854E+02  0.30383668594E+02  0.51100000000E-03 0. -1.
        -11    1    3    3    0    0 -0.10466010677E+01  0.57575983336E+01 -0.39886161496E+01  0.70819751070E+01  0.51100000000E-03 0.  1.
        -12    1    3    3    0    0  0.12938325183E+02  0.58583090345E+00 -0.17042215914E+01  0.13063224243E+02  0.00000000000E+00 0.  1.
</event>
<event>
 7    1  0.9930326E-013  0.5052886E+02  0.7816164E-02  0.1300439E+00
        -11   -1    0    0    0    0  0.00000000000E+00  0.00000000000E+00  0.45593999997E+02  0.45594000000E+02  0.51100000000E-03 0.  1.
         11   -1    0    0    0    0 -0.00000000000E+00 -0.00000000000E+00 -0.45593999997E+02  0.45594000000E+02  0.51100000000E-03 0. -1.
    9900012    2    1    2    0    0  0.23951760977E+02  0.25905950825E+02 -0.20207929538E+02  0.50528861319E+02  0.30000004466E+02 0.  0.
        -12    1    1    2    0    0 -0.23951760977E+02 -0.25905950825E+02  0.20207929538E+02  0.40659138681E+02  0.00000000000E+00 0.  1.
         11    1    3    3    0    0  0.21519065199E+02  0.26616286497E+02 -0.13048257744E+02  0.36629959109E+02  0.51100000000E-03 0. -1.
        -11    1    3    3    0    0  0.24554530845E+01 -0.46817038901E+01  0.45983706990E+00  0.53065102993E+01  0.51100000000E-03 0.  1.
         12    1    3    3    0    0 -0.22757306143E-01  0.39713682174E+01 -0.76195088641E+01  0.85923919105E+01  0.00000000000E+00 0. -1.
</event>
<event>
 7    1  0.9930326E-013  0.5052885E+02  0.7816164E-02  0.1300439E+00
        -11   -1    0    0    0    0  0.00000000000E+00  0.00000000000E+00  0.45593999997E+02  0.45594000000E+02  0.51100000000E-03 0.  1.
         11   -1    0    0    0    0 -0.00000000000E+00 -0.00000000000E+00 -0.45593999997E+02  0.45594000000E+02  0.51100000000E-03 0. -1.
    9900012    2    1    2    0    0  0.16283595998E+02  0.35271965324E+01 -0.37088673761E+02  0.50528851763E+02  0.29999975419E+02 0.  0.
        -12    1    1    2    0    0 -0.16283595998E+02 -0.35271965324E+01  0.37088673761E+02  0.40659148237E+02  0.00000000000E+00 0.  1.
         11    1    3    3    0    0  0.22819041965E+01 -0.90475291855E+01 -0.22320657597E+02  0.24192491128E+02  0.51100000000E-03 0. -1.
        -11    1    3    3    0    0  0.76293130469E+01  0.11989648934E+02 -0.58689570994E+01  0.15375394526E+02  0.51100000000E-03 0.  1.
         12    1    3    3    0    0  0.63723787543E+01  0.58507678403E+00 -0.88990590642E+01  0.10960966110E+02  0.00000000000E+00 0. -1.
</event>
<event>
 7    1  0.9930326E-013  0.5052888E+02  0.7816164E-02  0.1300439E+00
        -11   -1    0    0    0    0  0.00000000000E+00  0.00000000000E+00  0.45593999997E+02  0.45594000000E+02  0.51100000000E-03 0.  1.
         11   -1    0    0    0    0 -0.00000000000E+00 -0.00000000000E+00 -0.45593999997E+02  0.45594000000E+02  0.51100000000E-03 0. -1.
    9900012    2    1    2    0    0 -0.17897189522E+02 -0.10427193946E+02 -0.34987545050E+02  0.50528879560E+02  0.30000059910E+02 0.  0.
        -12    1    1    2    0    0  0.17897189522E+02  0.10427193946E+02  0.34987545050E+02  0.40659120440E+02  0.00000000000E+00 0.  1.
         11    1    3    3    0    0 -0.60823349167E+01 -0.12628357178E+02 -0.29847904019E+02  0.32975257051E+02  0.51100000000E-03 0. -1.
        -11    1    3    3    0    0 -0.82083031053E+00  0.10327564932E+01  0.33589588869E+01  0.36087329408E+01  0.51100000000E-03 0.  1.
        -12    1    3    3    0    0 -0.10994024294E+02  0.11684067385E+01 -0.84985999180E+01  0.13944889568E+02  0.00000000000E+00 0.  1.
</event>
<event>
 7    1  0.9930326E-013  0.5052886E+02  0.7816164E-02  0.1300439E+00
        -11   -1    0    0    0    0  0.00000000000E+00  0.00000000000E+00  0.45593999997E+02  0.45594000000E+02  0.51100000000E-03 0. -1.
         11   -1    0    0    0    0 -0.00000000000E+00 -0.00000000000E+00 -0.45593999997E+02  0.45594000000E+02  0.51100000000E-03 0.  1.
    9900012    2    1    2    0    0  0.14532372626E+02  0.22646634015E+02  0.30481239951E+02  0.50528857420E+02  0.29999992615E+02 0.  0.
        -12    1    1    2    0    0 -0.14532372626E+02 -0.22646634015E+02 -0.30481239951E+02  0.40659142580E+02  0.00000000000E+00 0.  1.
         11    1    3    3    0    0  0.64536243635E+01  0.14504838161E+02  0.44779114981E+01  0.16495189879E+02  0.51100000000E-03 0. -1.
        -11    1    3    3    0    0  0.11669567246E+02  0.93949749790E+01  0.26248056025E+02  0.30222587578E+02  0.51100000000E-03 0.  1.
        -12    1    3    3    0    0 -0.35908189843E+01 -0.12531791250E+01 -0.24472757204E+00  0.38110799626E+01  0.00000000000E+00 0.  1.
</event>
<event>
 7    1  0.9930326E-013  0.5052887E+02  0.7816164E-02  0.1300439E+00
        -11   -1    0    0    0    0  0.00000000000E+00  0.00000000000E+00  0.45593999997E+02  0.45594000000E+02  0.51100000000E-03 0. -1.
         11   -1    0    0    0    0 -0.00000000000E+00 -0.00000000000E+00 -0.45593999997E+02  0.45594000000E+02  0.51100000000E-03 0.  1.
    9900012    2    1    2    0    0 -0.34114184391E+02  0.55834606246E+01  0.21405888433E+02  0.50528872257E+02  0.30000037713E+02 0.  0.
        -12    1    1    2    0    0  0.34114184391E+02 -0.55834606246E+01 -0.21405888433E+02  0.40659127743E+02  0.00000000000E+00 0.  1.
         11    1    3    3    0    0  0.27753540707E+01 -0.15326653012E+01  0.73099056350E+01  0.79678336953E+01  0.51100000000E-03 0. -1.
        -11    1    3    3    0    0 -0.29394979480E+02  0.11313828878E+02  0.12106040555E+02  0.33743499532E+02  0.51100000000E-03 0.  1.
        -12    1    3    3    0    0 -0.74945589813E+01 -0.41977029523E+01  0.19899422436E+01  0.88175390293E+01  0.00000000000E+00 0.  1.
</event>
<event>
 7    1  0.9930326E-013  0.5052885E+02  0.7816164E-02  0.1300439E+00
        -11   -1    0    0    0    0  0.00000000000E+00  0.00000000000E+00  0.45593999997E+02  0.45594000000E+02  0.51100000000E-03 0. -1.
         11   -1    0    0    0    0 -0.00000000000E+00 -0.00000000000E+00 -0.45593999997E+02  0.45594000000E+02  0.51100000000E-03 0.  1.
    9900012    2    1    2    0    0  0.28564716171E+02 -0.14033025503E+02  0.25304099896E+02  0.50528852367E+02  0.29999977254E+02 0.  0.
        -12    1    1    2    0    0 -0.28564716171E+02  0.14033025503E+02 -0.25304099896E+02  0.40659147633E+02  0.00000000000E+00 0.  1.
         11    1    3    3    0    0  0.11728634931E+02  0.75504086862E+01  0.11805251656E+02  0.18273847860E+02  0.51100000000E-03 0. -1.
        -11    1    3    3    0    0  0.13577881984E+02 -0.14945637010E+02  0.46453310836E+01  0.20719798405E+02  0.51100000000E-03 0.  1.
         12    1    3    3    0    0  0.32581992561E+01 -0.66377971784E+01  0.88535171563E+01  0.11535206102E+02  0.00000000000E+00 0. -1.
</event>
<event>
 7    1  0.9930326E-013  0.5052886E+02  0.7816164E-02  0.1300439E+00
        -11   -1    0    0    0    0  0.00000000000E+00  0.00000000000E+00  0.45593999997E+02  0.45594000000E+02  0.51100000000E-03 0. -1.
         11   -1    0    0    0    0 -0.00000000000E+00 -0.00000000000E+00 -0.45593999997E+02  0.45594000000E+02  0.51100000000E-03 0.  1.
    9900012    2    1    2    0    0  0.39959600262E+02 -0.10670300317E+01 -0.74335312883E+01  0.50528860884E+02  0.30000003144E+02 0.  0.
        -12    1    1    2    0    0 -0.39959600262E+02  0.10670300317E+01  0.74335312883E+01  0.40659139116E+02  0.00000000000E+00 0.  1.
         11    1    3    3    0    0  0.16513076904E+02  0.42583484075E+01  0.81937408375E+01  0.18919636074E+02  0.51100000000E-03 0. -1.
        -11    1    3    3    0    0  0.70776284408E+01  0.38803691410E+01 -0.79231533424E+01  0.11310457469E+02  0.51100000000E-03 0.  1.
         12    1    3    3    0    0  0.16368894918E+02 -0.92057475802E+01 -0.77041187834E+01  0.20298767341E+02  0.00000000000E+00 0. -1.
</event>
<event>
 7    1  0.9930326E-013  0.5052890E+02  0.7816164E-02  0.1300439E+00
        -11   -1    0    0    0    0  0.00000000000E+00  0.00000000000E+00  0.45593999997E+02  0.45594000000E+02  0.51100000000E-03 0.  1.
         11   -1    0    0    0    0 -0.00000000000E+00 -0.00000000000E+00 -0.45593999997E+02  0.45594000000E+02  0.51100000000E-03 0. -1.
    9900012    2    1    2    0    0 -0.29790268198E+02 -0.11869204439E+02 -0.24996482532E+02  0.50528902220E+02  0.30000128787E+02 0.  0.
        -12    1    1    2    0    0  0.29790268198E+02  0.11869204439E+02  0.24996482532E+02  0.40659097780E+02  0.00000000000E+00 0.  1.
         11    1    3    3    0    0 -0.77848906007E+01 -0.18438608812E+02 -0.13397695522E+02  0.24084955100E+02  0.51100000000E-03 0. -1.
        -11    1    3    3    0    0 -0.16188412661E+02  0.34954874906E+01 -0.54403892884E+01  0.17432182111E+02  0.51100000000E-03 0.  1.
         12    1    3    3    0    0 -0.58169649358E+01  0.30739168831E+01 -0.61583977224E+01  0.90117650089E+01  0.00000000000E+00 0. -1.
</event>
<event>
 7    1  0.9930326E-013  0.5052886E+02  0.7816164E-02  0.1300439E+00
        -11   -1    0    0    0    0  0.00000000000E+00  0.00000000000E+00  0.45593999997E+02  0.45594000000E+02  0.51100000000E-03 0. -1.
         11   -1    0    0    0    0 -0.00000000000E+00 -0.00000000000E+00 -0.45593999997E+02  0.45594000000E+02  0.51100000000E-03 0.  1.
    9900012    2    1    2    0    0  0.27159382183E+02 -0.83206848481E+01  0.29091238166E+02  0.50528856196E+02  0.29999988893E+02 0.  0.
        -12    1    1    2    0    0 -0.27159382183E+02  0.83206848481E+01 -0.29091238166E+02  0.40659143804E+02  0.00000000000E+00 0.  1.
         11    1    3    3    0    0  0.14618248026E+02 -0.19243734639E+02  0.18700805884E+02  0.30557071836E+02  0.51100000000E-03 0. -1.
        -11    1    3    3    0    0  0.69756601472E+01  0.36884392367E+01  0.41576463918E+01  0.89191054637E+01  0.51100000000E-03 0.  1.
         12    1    3    3    0    0  0.55654740096E+01  0.72346105547E+01  0.62327858894E+01  0.11052678896E+02  0.00000000000E+00 0. -1.
</event>
<event>
 7    1  0.9930326E-013  0.5052885E+02  0.7816164E-02  0.1300439E+00
        -11   -1    0    0    0    0  0.00000000000E+00  0.00000000000E+00  0.45593999997E+02  0.45594000000E+02  0.51100000000E-03 0.  1.
         11   -1    0    0    0    0 -0.00000000000E+00 -0.00000000000E+00 -0.45593999997E+02  0.45594000000E+02  0.51100000000E-03 0. -1.
    9900012    2    1    2    0    0 -0.40009238450E+02 -0.23478152875E+01 -0.68494876983E+01  0.50528845069E+02  0.29999955071E+02 0.  0.
        -12    1    1    2    0    0  0.40009238450E+02  0.23478152875E+01  0.68494876983E+01  0.40659154931E+02  0.00000000000E+00 0.  1.
         11    1    3    3    0    0 -0.25814188957E+02  0.91555156494E+01 -0.13365161440E+02  0.30476603467E+02  0.51100000000E-03 0.  1.
        -11    1    3    3    0    0 -0.11361683180E+02 -0.11427791304E+02  0.58230067749E+01  0.17134458466E+02  0.51100000000E-03 0. -1.
        -12    1    3    3    0    0 -0.28333663137E+01 -0.75539633340E-01  0.69266696645E+00  0.29177831362E+01  0.00000000000E+00 0.  1.
</event>
<event>
 7    1  0.9930326E-013  0.5052886E+02  0.7816164E-02  0.1300439E+00
        -11   -1    0    0    0    0  0.00000000000E+00  0.00000000000E+00  0.45593999997E+02  0.45594000000E+02  0.51100000000E-03 0.  1.
         11   -1    0    0    0    0 -0.00000000000E+00 -0.00000000000E+00 -0.45593999997E+02  0.45594000000E+02  0.51100000000E-03 0. -1.
    9900012    2    1    2    0    0 -0.35626451166E+02  0.34140520661E+01 -0.19294195640E+02  0.50528858844E+02  0.29999996941E+02 0.  0.
        -12    1    1    2    0    0  0.35626451166E+02 -0.34140520661E+01  0.19294195640E+02  0.40659141156E+02  0.00000000000E+00 0.  1.
         11    1    3    3    0    0 -0.30608118820E+01  0.33492057203E+00  0.67308101513E+00  0.31517898852E+01  0.51100000000E-03 0. -1.
        -11    1    3    3    0    0 -0.35195407943E+02  0.91341775496E+01 -0.16780248806E+02  0.40046556531E+02  0.51100000000E-03 0.  1.
        -12    1    3    3    0    0  0.26297686590E+01 -0.60550460555E+01 -0.31870278491E+01  0.73305124272E+01  0.00000000000E+00 0.  1.
</event>
<event>
 7    1  0.9930326E-013  0.5052886E+02  0.7816164E-02  0.1300439E+00
        -11   -1    0    0    0    0  0.00000000000E+00  0.00000000000E+00  0.45593999997E+02  0.45594000000E+02  0.51100000000E-03 0.  1.
         11   -1    0    0    0    0 -0.00000000000E+00 -0.00000000000E+00 -0.45593999997E+02  0.45594000000E+02  0.51100000000E-03 0. -1.
    9900012    2    1    2    0    0 -0.23369143213E+02 -0.25907270142E+02 -0.20877311111E+02  0.50528860561E+02  0.30000002160E+02 0.  0.
        -12    1    1    2    0    0  0.23369143213E+02  0.25907270142E+02  0.20877311111E+02  0.40659139439E+02  0.00000000000E+00 0.  1.
         11    1    3    3    0    0  0.11324961730E+01 -0.67751598760E+01 -0.31974429709E+01  0.75768714349E+01  0.51100000000E-03 0. -1.
        -11    1    3    3    0    0 -0.68181938910E+01  0.53880398674E+01 -0.20920130417E+01  0.89384148693E+01  0.51100000000E-03 0.  1.
        -12    1    3    3    0    0 -0.17683445495E+02 -0.24520150134E+02 -0.15587855098E+02  0.34013574257E+02  0.00000000000E+00 0.  1.
</event>
<event>
 7    1  0.9930326E-013  0.5052887E+02  0.7816164E-02  0.1300439E+00
        -11   -1    0    0    0    0  0.00000000000E+00  0.00000000000E+00  0.45593999997E+02  0.45594000000E+02  0.51100000000E-03 0. -1.
         11   -1    0    0    0    0 -0.00000000000E+00 -0.00000000000E+00 -0.45593999997E+02  0.45594000000E+02  0.51100000000E-03 0.  1.
    9900012    2    1    2    0    0 -0.31854965975E+01 -0.11202127012E+02  0.38955486866E+02  0.50528868244E+02  0.30000025516E+02 0.  0.
        -12    1    1    2    0    0  0.31854965975E+01  0.11202127012E+02 -0.38955486866E+02  0.40659131756E+02  0.00000000000E+00 0.  1.
         11    1    3    3    0    0 -0.12340666069E+02 -0.67597552165E+01  0.34926412651E+02  0.37654224604E+02  0.51100000000E-03 0. -1.
        -11    1    3    3    0    0  0.97467912688E+01 -0.42476800342E+01  0.49778108923E+01  0.11739732844E+02  0.51100000000E-03 0.  1.
         12    1    3    3    0    0 -0.59162179775E+00 -0.19469176142E+00 -0.94873667717E+00  0.11349107966E+01  0.00000000000E+00 0. -1.
</event>
<event>
 7    1  0.9930326E-013  0.5052886E+02  0.7816164E-02  0.1300439E+00
        -11   -1    0    0    0    0  0.00000000000E+00  0.00000000000E+00  0.45593999997E+02  0.45594000000E+02  0.51100000000E-03 0.  1.
         11   -1    0    0    0    0 -0.00000000000E+00 -0.00000000000E+00 -0.45593999997E+02  0.45594000000E+02  0.51100000000E-03 0. -1.
    9900012    2    1    2    0    0  0.65904778109E+01 -0.14568588175E+02 -0.37382984974E+02  0.50528859271E+02  0.29999998241E+02 0.  0.
        -12    1    1    2    0    0 -0.65904778109E+01  0.14568588175E+02  0.37382984974E+02  0.40659140729E+02  0.00000000000E+00 0.  1.
         11    1    3    3    0    0 -0.71815827746E+01 -0.81736124671E+01 -0.19114873587E+02  0.21994578068E+02  0.51100000000E-03 0. -1.
        -11    1    3    3    0    0  0.15067783089E+02 -0.99985261615E+01 -0.14796280708E+02  0.23365327639E+02  0.51100000000E-03 0.  1.
        -12    1    3    3    0    0 -0.12957225039E+01  0.36035504532E+01 -0.34718306801E+01  0.51689535640E+01  0.00000000000E+00 0.  1.
</event>
<event>
 7    1  0.9930326E-013  0.5052891E+02  0.7816164E-02  0.1300439E+00
        -11   -1    0    0    0    0  0.00000000000E+00  0.00000000000E+00  0.45593999997E+02  0.45594000000E+02  0.51100000000E-03 0.  1.
         11   -1    0    0    0    0 -0.00000000000E+00 -0.00000000000E+00 -0.45593999997E+02  0.45594000000E+02  0.51100000000E-03 0. -1.
    9900012    2    1    2    0    0 -0.45093804235E+01 -0.15632642145E+02 -0.37261882006E+02  0.50528906763E+02  0.30000142596E+02 0.  0.
        -12    1    1    2    0    0  0.45093804235E+01  0.15632642145E+02  0.37261882006E+02  0.40659093237E+02  0.00000000000E+00 0.  1.
         11    1    3    3    0    0 -0.83644677317E+01 -0.10783818377E+02 -0.26946591299E+02  0.30205526681E+02  0.51100000000E-03 0. -1.
        -11    1    3    3    0    0 -0.37265541865E+01  0.19869606948E+01  0.17040290731E+01  0.45540020038E+01  0.51100000000E-03 0.  1.
         12    1    3    3    0    0  0.75816414947E+01 -0.68357844622E+01 -0.12019319781E+02  0.15769378078E+02  0.00000000000E+00 0. -1.
</event>
<event>
 7    1  0.9930326E-013  0.5052890E+02  0.7816164E-02  0.1300439E+00
        -11   -1    0    0    0    0  0.00000000000E+00  0.00000000000E+00  0.45593999997E+02  0.45594000000E+02  0.51100000000E-03 0. -1.
         11   -1    0    0    0    0 -0.00000000000E+00 -0.00000000000E+00 -0.45593999997E+02  0.45594000000E+02  0.51100000000E-03 0.  1.
    9900012    2    1    2    0    0  0.25380662413E+01  0.40108481760E+02 -0.61668652010E+01  0.50528901193E+02  0.30000125667E+02 0.  0.
        -12    1    1    2    0    0 -0.25380662413E+01 -0.40108481760E+02  0.61668652010E+01  0.40659098807E+02  0.00000000000E+00 0.  1.
         11    1    3    3    0    0  0.10762910597E+02  0.16670553524E+02 -0.10655476672E+02  0.22523027831E+02  0.51100000000E-03 0. -1.
        -11    1    3    3    0    0 -0.29498284021E+01  0.71458759690E+01  0.73225455292E+01  0.10648225404E+02  0.51100000000E-03 0.  1.
         12    1    3    3    0    0 -0.52750159534E+01  0.16292052267E+02 -0.28339340580E+01  0.17357647958E+02  0.00000000000E+00 0. -1.
</event>
<event>
 7    1  0.9930326E-013  0.5052886E+02  0.7816164E-02  0.1300439E+00
        -11   -1    0    0    0    0  0.00000000000E+00  0.00000000000E+00  0.45593999997E+02  0.45594000000E+02  0.51100000000E-03 0. -1.
         11   -1    0    0    0    0 -0.00000000000E+00 -0.00000000000E+00 -0.45593999997E+02  0.45594000000E+02  0.51100000000E-03 0.  1.
    9900012    2    1    2    0    0  0.12414852407E+02  0.14596989805E+02  0.35860356762E+02  0.50528857623E+02  0.29999993232E+02 0.  0.
        -12    1    1    2    0    0 -0.12414852407E+02 -0.14596989805E+02 -0.35860356762E+02  0.40659142377E+02  0.00000000000E+00 0.  1.
         11    1    3    3    0    0  0.46576216294E+01  0.97401080438E+01  0.30144781115E+02  0.32019852790E+02  0.51100000000E-03 0. -1.
        -11    1    3    3    0    0 -0.50977328026E+00 -0.26778835087E+01 -0.32009788191E+01  0.42044255904E+01  0.51100000000E-03 0.  1.
         12    1    3    3    0    0  0.82670040580E+01  0.75347652702E+01  0.89165544663E+01  0.14304579243E+02  0.00000000000E+00 0. -1.
</event>
<event>
 7    1  0.9930326E-013  0.5052887E+02  0.7816164E-02  0.1300439E+00
        -11   -1    0    0    0    0  0.00000000000E+00  0.00000000000E+00  0.45593999997E+02  0.45594000000E+02  0.51100000000E-03 0.  1.
         11   -1    0    0    0    0 -0.00000000000E+00 -0.00000000000E+00 -0.45593999997E+02  0.45594000000E+02  0.51100000000E-03 0. -1.
    9900012    2    1    2    0    0 -0.25173993390E+02 -0.62086196278E+01  0.31319136526E+02  0.50528865557E+02  0.30000017348E+02 0.  0.
        -12    1    1    2    0    0  0.25173993390E+02  0.62086196278E+01 -0.31319136526E+02  0.40659134443E+02  0.00000000000E+00 0.  1.
         11    1    3    3    0    0  0.35334237620E+01 -0.49449190570E+01 -0.94271418574E+00  0.61502860307E+01  0.51100000000E-03 0. -1.
        -11    1    3    3    0    0 -0.16913625179E+02 -0.56971842786E+01  0.19817866610E+02  0.26669766828E+02  0.51100000000E-03 0.  1.
         12    1    3    3    0    0 -0.11793791974E+02  0.44334837077E+01  0.12443984101E+02  0.17708812699E+02  0.00000000000E+00 0. -1.
</event>
<event>
 7    1  0.9930326E-013  0.5052886E+02  0.7816164E-02  0.1300439E+00
        -11   -1    0    0    0    0  0.00000000000E+00  0.00000000000E+00  0.45593999997E+02  0.45594000000E+02  0.51100000000E-03 0.  1.
         11   -1    0    0    0    0 -0.00000000000E+00 -0.00000000000E+00 -0.45593999997E+02  0.45594000000E+02  0.51100000000E-03 0. -1.
    9900012    2    1    2    0    0  0.30081946893E+02  0.84912066863E+01 -0.26002720034E+02  0.50528861186E+02  0.30000004062E+02 0.  0.
        -12    1    1    2    0    0 -0.30081946893E+02 -0.84912066863E+01  0.26002720034E+02  0.40659138814E+02  0.00000000000E+00 0.  1.
         11    1    3    3    0    0  0.27148774314E+01 -0.42908158454E+01 -0.88157440881E+01  0.10173446032E+02  0.51100000000E-03 0. -1.
        -11    1    3    3    0    0  0.27061767851E+02  0.17122141746E+02 -0.16225941196E+02  0.35899696171E+02  0.51100000000E-03 0.  1.
        -12    1    3    3    0    0  0.30530161110E+00 -0.43401192143E+01 -0.96103474988E+00  0.44557189834E+01  0.00000000000E+00 0.  1.
</event>
<event>
 7    1  0.9930326E-013  0.5052886E+02  0.7816164E-02  0.1300439E+00
        -11   -1    0    0    0    0  0.00000000000E+00  0.00000000000E+00  0.45593999997E+02  0.45594000000E+02  0.51100000000E-03 0. -1.
         11   -1    0    0    0    0 -0.00000000000E+00 -0.00000000000E+00 -0.45593999997E+02  0.45594000000E+02  0.51100000000E-03 0.  1.
    9900012    2    1    2    0    0 -0.28447603806E+02  0.25011877061E+00  0.29048870502E+02  0.50528860817E+02  0.30000002939E+02 0.  0.
        -12    1    1    2    0    0  0.28447603806E+02 -0.25011877061E+00 -0.29048870502E+02  0.40659139183E+02  0.00000000000E+00 0.  1.
         11    1    3    3    0    0  0.32864186019E+00 -0.75602929189E+01  0.61617350106E+01  0.97587403437E+01  0.51100000000E-03 0. -1.
        -11    1    3    3    0    0 -0.26781330024E+02  0.10990198007E+02  0.16389699050E+02  0.33266294133E+02  0.51100000000E-03 0.  1.
        -12    1    3    3    0    0 -0.19949156417E+01 -0.31797863178E+01  0.64974364410E+01  0.75038263406E+01  0.00000000000E+00 0.  1.
</event>
<event>
 7    1  0.9930326E-013  0.5052881E+02  0.7816164E-02  0.1300439E+00
        -11   -1    0    0    0    0  0.00000000000E+00  0.00000000000E+00  0.45593999997E+02  0.45594000000E+02  0.51100000000E-03 0.  1.
         11   -1    0    0    0    0 -0.00000000000E+00 -0.00000000000E+00 -0.45593999997E+02  0.45594000000E+02  0.51100000000E-03 0. -1.
    9900012    2    1    2    0    0  0.21925637385E+02  0.21933350596E+00 -0.34240154247E+02  0.50528808606E+02  0.29999844239E+02 0.  0.
        -12    1    1    2    0    0 -0.21925637385E+02 -0.21933350596E+00  0.34240154247E+02  0.40659191394E+02  0.00000000000E+00 0.  1.
         11    1    3    3    0    0  0.79346175860E+01  0.50359125975E+01 -0.22900906154E+02  0.24754193076E+02  0.51100000000E-03 0. -1.
        -11    1    3    3    0    0  0.76892651033E+01 -0.26522722980E+01  0.39900848817E+01  0.90598081545E+01  0.51100000000E-03 0.  1.
        -12    1    3    3    0    0  0.63017546956E+01 -0.21643067935E+01 -0.15329332975E+02  0.16714807376E+02  0.00000000000E+00 0.  1.
</event>
<event>
 7    1  0.9930326E-013  0.5052886E+02  0.7816164E-02  0.1300439E+00
        -11   -1    0    0    0    0  0.00000000000E+00  0.00000000000E+00  0.45593999997E+02  0.45594000000E+02  0.51100000000E-03 0.  1.
         11   -1    0    0    0    0 -0.00000000000E+00 -0.00000000000E+00 -0.45593999997E+02  0.45594000000E+02  0.51100000000E-03 0. -1.
    9900012    2    1    2    0    0  0.33302442069E+02 -0.13363146608E+02 -0.19119085018E+02  0.50528858999E+02  0.29999997413E+02 0.  0.
        -12    1    1    2    0    0 -0.33302442069E+02  0.13363146608E+02  0.19119085018E+02  0.40659141001E+02  0.00000000000E+00 0.  1.
         11    1    3    3    0    0  0.19474497985E+02 -0.67115606808E+01 -0.16994037941E+02  0.26703903167E+02  0.51100000000E-03 0. -1.
        -11    1    3    3    0    0  0.24264478011E+01 -0.98726523469E+01  0.34435042614E+01  0.10733808045E+02  0.51100000000E-03 0.  1.
        -12    1    3    3    0    0  0.11401496283E+02  0.32210664197E+01 -0.55685513390E+01  0.13091147787E+02  0.00000000000E+00 0.  1.
</event>
<event>
 7    1  0.9930326E-013  0.5052886E+02  0.7816164E-02  0.1300439E+00
        -11   -1    0    0    0    0  0.00000000000E+00  0.00000000000E+00  0.45593999997E+02  0.45594000000E+02  0.51100000000E-03 0. -1.
         11   -1    0    0    0    0 -0.00000000000E+00 -0.00000000000E+00 -0.45593999997E+02  0.45594000000E+02  0.51100000000E-03 0.  1.
    9900012    2    1    2    0    0  0.39144553526E+01  0.39980580680E+02  0.62766162745E+01  0.50528859526E+02  0.29999999017E+02 0.  0.
        -12    1    1    2    0    0 -0.39144553526E+01 -0.39980580680E+02 -0.62766162745E+01  0.40659140474E+02  0.00000000000E+00 0.  1.
         11    1    3    3    0    0  0.97113134763E+01  0.17604576556E+02  0.13090853197E+02  0.23991689454E+02  0.51100000000E-03 0. -1.
        -11    1    3    3    0    0 -0.11652118565E+01  0.26274816772E+00 -0.35050732041E+01  0.37030114363E+01  0.51100000000E-03 0.  1.
         12    1    3    3    0    0 -0.46316462672E+01  0.22113255956E+02 -0.33091637188E+01  0.22834158636E+02  0.00000000000E+00 0. -1.
</event>
<event>
 7    1  0.9930326E-013  0.5052888E+02  0.7816164E-02  0.1300439E+00
        -11   -1    0    0    0    0  0.00000000000E+00  0.00000000000E+00  0.45593999997E+02  0.45594000000E+02  0.51100000000E-03 0. -1.
         11   -1    0    0    0    0 -0.00000000000E+00 -0.00000000000E+00 -0.45593999997E+02  0.45594000000E+02  0.51100000000E-03 0.  1.
    9900012    2    1    2    0    0 -0.32437938164E+01 -0.13523680776E+02  0.38206702973E+02  0.50528876889E+02  0.30000051792E+02 0.  0.
        -12    1    1    2    0    0  0.32437938164E+01  0.13523680776E+02 -0.38206702973E+02  0.40659123111E+02  0.00000000000E+00 0.  1.
         11    1    3    3    0    0  0.40658357016E+01 -0.46372895476E+01  0.29657868966E+02  0.30292320251E+02  0.51100000000E-03 0. -1.
        -11    1    3    3    0    0 -0.50652207055E+01 -0.12708616899E+02  0.50266848812E+01  0.14575080289E+02  0.51100000000E-03 0.  1.
        -12    1    3    3    0    0 -0.22444088126E+01  0.38222256699E+01  0.35221491257E+01  0.56614763493E+01  0.00000000000E+00 0.  1.
</event>
<event>
 7    1  0.9930326E-013  0.5052886E+02  0.7816164E-02  0.1300439E+00
        -11   -1    0    0    0    0  0.00000000000E+00  0.00000000000E+00  0.45593999997E+02  0.45594000000E+02  0.51100000000E-03 0.  1.
         11   -1    0    0    0    0 -0.00000000000E+00 -0.00000000000E+00 -0.45593999997E+02  0.45594000000E+02  0.51100000000E-03 0. -1.
    9900012    2    1    2    0    0 -0.30897224961E+02  0.22553537985E+02  0.13779161439E+02  0.50528857413E+02  0.29999992593E+02 0.  0.
        -12    1    1    2    0    0  0.30897224961E+02 -0.22553537985E+02 -0.13779161439E+02  0.40659142587E+02  0.00000000000E+00 0.  1.
         11    1    3    3    0    0 -0.62261814206E+01  0.15612341480E+02  0.13046512978E+02  0.21277265866E+02  0.51100000000E-03 0. -1.
        -11    1    3    3    0    0 -0.22583501834E+02  0.11388602316E+01  0.27143932356E+01  0.22774535969E+02  0.51100000000E-03 0.  1.
        -12    1    3    3    0    0 -0.20875417063E+01  0.58023362736E+01 -0.19817447750E+01  0.64770555780E+01  0.00000000000E+00 0.  1.
</event>
<event>
 7    1  0.9930326E-013  0.5052889E+02  0.7816164E-02  0.1300439E+00
        -11   -1    0    0    0    0  0.00000000000E+00  0.00000000000E+00  0.45593999997E+02  0.45594000000E+02  0.51100000000E-03 0.  1.
         11   -1    0    0    0    0 -0.00000000000E+00 -0.00000000000E+00 -0.45593999997E+02  0.45594000000E+02  0.51100000000E-03 0. -1.
    9900012    2    1    2    0    0 -0.10626953196E+02 -0.29083277071E+02 -0.26351358806E+02  0.50528889701E+02  0.30000090734E+02 0.  0.
        -12    1    1    2    0    0  0.10626953196E+02  0.29083277071E+02  0.26351358806E+02  0.40659110299E+02  0.00000000000E+00 0.  1.
         11    1    3    3    0    0  0.54510842568E+01 -0.22471424269E+02 -0.20290123621E+02  0.30763100381E+02  0.51100000000E-03 0. -1.
        -11    1    3    3    0    0 -0.16088491382E+02 -0.70544124374E+01 -0.44878707022E+01  0.18131334024E+02  0.51100000000E-03 0.  1.
         12    1    3    3    0    0  0.10453928695E-01  0.44255963587E+00 -0.15733644834E+01  0.16344552956E+01  0.00000000000E+00 0. -1.
</event>
<event>
 7    1  0.9930326E-013  0.5052886E+02  0.7816164E-02  0.1300439E+00
        -11   -1    0    0    0    0  0.00000000000E+00  0.00000000000E+00  0.45593999997E+02  0.45594000000E+02  0.51100000000E-03 0.  1.
         11   -1    0    0    0    0 -0.00000000000E+00 -0.00000000000E+00 -0.45593999997E+02  0.45594000000E+02  0.51100000000E-03 0. -1.
    9900012    2    1    2    0    0 -0.98262729372E+01 -0.38913748583E+02  0.65061591564E+01  0.50528861106E+02  0.30000003817E+02 0.  0.
        -12    1    1    2    0    0  0.98262729372E+01  0.38913748583E+02 -0.65061591564E+01  0.40659138894E+02  0.00000000000E+00 0.  1.
         11    1    3    3    0    0 -0.10312925614E+02 -0.25112152922E+02 -0.17516170890E+01  0.27203764846E+02  0.51100000000E-03 0. -1.
        -11    1    3    3    0    0  0.34625069290E+01 -0.12207846929E+02  0.12561554078E+02  0.17855338753E+02  0.51100000000E-03 0.  1.
         12    1    3    3    0    0 -0.29758542518E+01 -0.15937487324E+01 -0.43037778326E+01  0.54697575067E+01  0.00000000000E+00 0. -1.
</event>
<event>
 7    1  0.9930326E-013  0.5052883E+02  0.7816164E-02  0.1300439E+00
        -11   -1    0    0    0    0  0.00000000000E+00  0.00000000000E+00  0.45593999997E+02  0.45594000000E+02  0.51100000000E-03 0.  1.
         11   -1    0    0    0    0 -0.00000000000E+00 -0.00000000000E+00 -0.45593999997E+02  0.45594000000E+02  0.51100000000E-03 0. -1.
    9900012    2    1    2    0    0  0.28608934784E+02 -0.27760974191E+02  0.80015621662E+01  0.50528833326E+02  0.29999919378E+02 0.  0.
        -12    1    1    2    0    0 -0.28608934784E+02  0.27760974191E+02 -0.80015621662E+01  0.40659166674E+02  0.00000000000E+00 0.  1.
         11    1    3    3    0    0  0.74574575565E+01 -0.14130351997E+02  0.10273355582E+02  0.18995324582E+02  0.51100000000E-03 0. -1.
        -11    1    3    3    0    0  0.23594395790E+02 -0.13608461865E+02 -0.51900535384E+01  0.27727646907E+02  0.51100000000E-03 0.  1.
        -12    1    3    3    0    0 -0.24429185623E+01 -0.22160328733E-01  0.29182601222E+01  0.38058618371E+01  0.00000000000E+00 0.  1.
</event>
<event>
 7    1  0.9930326E-013  0.5052886E+02  0.7816164E-02  0.1300439E+00
        -11   -1    0    0    0    0  0.00000000000E+00  0.00000000000E+00  0.45593999997E+02  0.45594000000E+02  0.51100000000E-03 0. -1.
         11   -1    0    0    0    0 -0.00000000000E+00 -0.00000000000E+00 -0.45593999997E+02  0.45594000000E+02  0.51100000000E-03 0.  1.
    9900012    2    1    2    0    0 -0.36363249746E+01  0.14549891022E+02  0.37792108653E+02  0.50528860012E+02  0.30000000494E+02 0.  0.
        -12    1    1    2    0    0  0.36363249746E+01 -0.14549891022E+02 -0.37792108653E+02  0.40659139988E+02  0.00000000000E+00 0.  1.
         11    1    3    3    0    0 -0.97522337228E+01  0.17215446819E+02  0.19746368683E+02  0.27953474707E+02  0.51100000000E-03 0. -1.
        -11    1    3    3    0    0  0.23837631797E+01 -0.67487550794E+01  0.60737858260E+01  0.93871665874E+01  0.51100000000E-03 0.  1.
         12    1    3    3    0    0  0.37321455686E+01  0.40831992826E+01  0.11971954145E+02  0.13188218718E+02  0.00000000000E+00 0. -1.
</event>
<event>
 7    1  0.9930326E-013  0.5052886E+02  0.7816164E-02  0.1300439E+00
        -11   -1    0    0    0    0  0.00000000000E+00  0.00000000000E+00  0.45593999997E+02  0.45594000000E+02  0.51100000000E-03 0.  1.
         11   -1    0    0    0    0 -0.00000000000E+00 -0.00000000000E+00 -0.45593999997E+02  0.45594000000E+02  0.51100000000E-03 0. -1.
    9900012    2    1    2    0    0  0.36441379790E+02  0.15316455876E+02  0.95182755689E+01  0.50528861403E+02  0.30000004721E+02 0.  0.
        -12    1    1    2    0    0 -0.36441379790E+02 -0.15316455876E+02 -0.95182755689E+01  0.40659138597E+02  0.00000000000E+00 0.  1.
         11    1    3    3    0    0  0.18331973861E+02  0.15966351885E+02 -0.54793387360E+01  0.24920048383E+02  0.51100000000E-03 0. -1.
        -11    1    3    3    0    0  0.83854182396E+01 -0.35708642425E+01  0.23920265299E+01  0.94227438505E+01  0.51100000000E-03 0.  1.
         12    1    3    3    0    0  0.97239876895E+01  0.29209682332E+01  0.12605587775E+02  0.16186069170E+02  0.00000000000E+00 0. -1.
</event>
<event>
 7    1  0.9930326E-013  0.5052887E+02  0.7816164E-02  0.1300439E+00
        -11   -1    0    0    0    0  0.00000000000E+00  0.00000000000E+00  0.45593999997E+02  0.45594000000E+02  0.51100000000E-03 0.  1.
         11   -1    0    0    0    0 -0.00000000000E+00 -0.00000000000E+00 -0.45593999997E+02  0.45594000000E+02  0.51100000000E-03 0. -1.
    9900012    2    1    2    0    0 -0.65357918773E+01  0.31155222877E+02 -0.25294269970E+02  0.50528873333E+02  0.30000040983E+02 0.  0.
        -12    1    1    2    0    0  0.65357918773E+01 -0.31155222877E+02  0.25294269970E+02  0.40659126667E+02  0.00000000000E+00 0.  1.
         11    1    3    3    0    0 -0.59352539954E+01  0.26120513072E+02 -0.30383635449E+02  0.40505231100E+02  0.51100000000E-03 0. -1.
        -11    1    3    3    0    0  0.10789995923E+01  0.55088303894E+01  0.58609100939E+01  0.81155233823E+01  0.51100000000E-03 0.  1.
         12    1    3    3    0    0 -0.16795374743E+01 -0.47412058384E+00 -0.77154461500E+00  0.19081188507E+01  0.00000000000E+00 0. -1.
</event>
<event>
 7    1  0.9930326E-013  0.5052883E+02  0.7816164E-02  0.1300439E+00
        -11   -1    0    0    0    0  0.00000000000E+00  0.00000000000E+00  0.45593999997E+02  0.45594000000E+02  0.51100000000E-03 0.  1.
         11   -1    0    0    0    0 -0.00000000000E+00 -0.00000000000E+00 -0.45593999997E+02  0.45594000000E+02  0.51100000000E-03 0. -1.
    9900012    2    1    2    0    0 -0.10010277737E+02  0.37144560905E+02 -0.13162205682E+02  0.50528834691E+02  0.29999923528E+02 0.  0.
        -12    1    1    2    0    0  0.10010277737E+02 -0.37144560905E+02  0.13162205682E+02  0.40659165309E+02  0.00000000000E+00 0.  1.
         11    1    3    3    0    0 -0.66809179743E+01  0.26046930421E+02 -0.13873627734E+02  0.30258136031E+02  0.51100000000E-03 0. -1.
        -11    1    3    3    0    0  0.25540434877E+01 -0.15157630133E+01 -0.45145388906E+01  0.54038631834E+01  0.51100000000E-03 0.  1.
        -12    1    3    3    0    0 -0.58834032500E+01  0.12613393498E+02  0.52259609422E+01  0.14866835477E+02  0.00000000000E+00 0.  1.
</event>
<event>
 7    1  0.9930326E-013  0.5052886E+02  0.7816164E-02  0.1300439E+00
        -11   -1    0    0    0    0  0.00000000000E+00  0.00000000000E+00  0.45593999997E+02  0.45594000000E+02  0.51100000000E-03 0.  1.
         11   -1    0    0    0    0 -0.00000000000E+00 -0.00000000000E+00 -0.45593999997E+02  0.45594000000E+02  0.51100000000E-03 0. -1.
    9900012    2    1    2    0    0  0.27246430051E+02  0.10329051287E+02 -0.28356808488E+02  0.50528857871E+02  0.29999993986E+02 0.  0.
        -12    1    1    2    0    0 -0.27246430051E+02 -0.10329051287E+02  0.28356808488E+02  0.40659142129E+02  0.00000000000E+00 0.  1.
         11    1    3    3    0    0  0.89588002207E+01  0.35184150134E+01 -0.15850908293E+01  0.97545814261E+01  0.51100000000E-03 0. -1.
        -11    1    3    3    0    0  0.14233209220E+02  0.12749509863E+02 -0.27564260829E+02  0.33539867647E+02  0.51100000000E-03 0.  1.
        -12    1    3    3    0    0  0.40544206096E+01 -0.59388735889E+01  0.79254317039E+00  0.72344087983E+01  0.00000000000E+00 0.  1.
</event>
<event>
 7    1  0.9930326E-013  0.5052886E+02  0.7816164E-02  0.1300439E+00
        -11   -1    0    0    0    0  0.00000000000E+00  0.00000000000E+00  0.45593999997E+02  0.45594000000E+02  0.51100000000E-03 0. -1.
         11   -1    0    0    0    0 -0.00000000000E+00 -0.00000000000E+00 -0.45593999997E+02  0.45594000000E+02  0.51100000000E-03 0.  1.
    9900012    2    1    2    0    0  0.26403993645E+02 -0.29371434380E+02  0.96598849695E+01  0.50528863074E+02  0.30000009799E+02 0.  0.
        -12    1    1    2    0    0 -0.26403993645E+02  0.29371434380E+02 -0.96598849695E+01  0.40659136926E+02  0.00000000000E+00 0.  1.
         11    1    3    3    0    0  0.21739439556E+01 -0.12922665247E+02  0.10312423809E+02  0.16675352904E+02  0.51100000000E-03 0. -1.
        -11    1    3    3    0    0 -0.85483222338E+00 -0.27409424828E+01 -0.41585009857E+01  0.50533785267E+01  0.51100000000E-03 0.  1.
         12    1    3    3    0    0  0.25084881913E+02 -0.13707826651E+02  0.35059621464E+01  0.28800131643E+02  0.00000000000E+00 0. -1.
</event>
<event>
 7    1  0.9930326E-013  0.5052886E+02  0.7816164E-02  0.1300439E+00
        -11   -1    0    0    0    0  0.00000000000E+00  0.00000000000E+00  0.45593999997E+02  0.45594000000E+02  0.51100000000E-03 0.  1.
         11   -1    0    0    0    0 -0.00000000000E+00 -0.00000000000E+00 -0.45593999997E+02  0.45594000000E+02  0.51100000000E-03 0. -1.
    9900012    2    1    2    0    0 -0.31227212811E+02 -0.21759209190E+02 -0.14302576381E+02  0.50528859630E+02  0.29999999331E+02 0.  0.
        -12    1    1    2    0    0  0.31227212811E+02  0.21759209190E+02  0.14302576381E+02  0.40659140370E+02  0.00000000000E+00 0.  1.
         11    1    3    3    0    0 -0.22274001359E+02 -0.38302015765E+01 -0.12222847967E+02  0.25694349444E+02  0.51100000000E-03 0. -1.
        -11    1    3    3    0    0  0.31235028319E+01 -0.87763338661E+01 -0.26026064722E+01  0.96723247867E+01  0.51100000000E-03 0.  1.
        -12    1    3    3    0    0 -0.12076714284E+02 -0.91526737474E+01  0.52287805805E+00  0.15162185399E+02  0.00000000000E+00 0.  1.
</event>
<event>
 7    1  0.9930326E-013  0.5052886E+02  0.7816164E-02  0.1300439E+00
        -11   -1    0    0    0    0  0.00000000000E+00  0.00000000000E+00  0.45593999997E+02  0.45594000000E+02  0.51100000000E-03 0.  1.
         11   -1    0    0    0    0 -0.00000000000E+00 -0.00000000000E+00 -0.45593999997E+02  0.45594000000E+02  0.51100000000E-03 0. -1.
    9900012    2    1    2    0    0 -0.13813962955E+02  0.36385226803E+02 -0.11766712125E+02  0.50528858146E+02  0.29999994822E+02 0.  0.
        -12    1    1    2    0    0  0.13813962955E+02 -0.36385226803E+02  0.11766712125E+02  0.40659141854E+02  0.00000000000E+00 0.  1.
         11    1    3    3    0    0  0.55855014126E+01  0.12801465432E+02  0.19981556757E+01  0.14109144893E+02  0.51100000000E-03 0. -1.
        -11    1    3    3    0    0 -0.61038590023E+01 -0.33616310940E+00 -0.42533841790E+01  0.74472395954E+01  0.51100000000E-03 0.  1.
         12    1    3    3    0    0 -0.13295605365E+02  0.23919924481E+02 -0.95114836216E+01  0.28972473658E+02  0.00000000000E+00 0. -1.
</event>
<event>
 7    1  0.9930326E-013  0.5052883E+02  0.7816164E-02  0.1300439E+00
        -11   -1    0    0    0    0  0.00000000000E+00  0.00000000000E+00  0.45593999997E+02  0.45594000000E+02  0.51100000000E-03 0.  1.
         11   -1    0    0    0    0 -0.00000000000E+00 -0.00000000000E+00 -0.45593999997E+02  0.45594000000E+02  0.51100000000E-03 0. -1.
    9900012    2    1    2    0    0 -0.14187531717E+02 -0.18631792067E+02 -0.33237606624E+02  0.50528828513E+02  0.29999904749E+02 0.  0.
        -12    1    1    2    0    0  0.14187531717E+02  0.18631792067E+02  0.33237606624E+02  0.40659171487E+02  0.00000000000E+00 0.  1.
         11    1    3    3    0    0 -0.17273305050E+02 -0.21377345036E+02 -0.22174019190E+02  0.35313525390E+02  0.51100000000E-03 0. -1.
        -11    1    3    3    0    0  0.43849709611E+00  0.13737590736E+01  0.16299527574E+01  0.21762904098E+01  0.51100000000E-03 0.  1.
         12    1    3    3    0    0  0.26472762369E+01  0.13717938949E+01 -0.12693540191E+02  0.13039012714E+02  0.00000000000E+00 0. -1.
</event>
<event>
 7    1  0.9930326E-013  0.5052886E+02  0.7816164E-02  0.1300439E+00
        -11   -1    0    0    0    0  0.00000000000E+00  0.00000000000E+00  0.45593999997E+02  0.45594000000E+02  0.51100000000E-03 0. -1.
         11   -1    0    0    0    0 -0.00000000000E+00 -0.00000000000E+00 -0.45593999997E+02  0.45594000000E+02  0.51100000000E-03 0.  1.
    9900012    2    1    2    0    0  0.35349785620E+02  0.92300778396E+01  0.17842762308E+02  0.50528857767E+02  0.29999993670E+02 0.  0.
        -12    1    1    2    0    0 -0.35349785620E+02 -0.92300778396E+01 -0.17842762308E+02  0.40659142233E+02  0.00000000000E+00 0.  1.
         11    1    3    3    0    0  0.42234921350E+01  0.16194659510E+01  0.15595944508E+02  0.16238658846E+02  0.51100000000E-03 0. -1.
        -11    1    3    3    0    0  0.13183249029E+02 -0.16066623892E+01 -0.26260961460E+01  0.13537939290E+02  0.51100000000E-03 0.  1.
        -12    1    3    3    0    0  0.17943044456E+02  0.92172742778E+01  0.48729139463E+01  0.20752259631E+02  0.00000000000E+00 0.  1.
</event>
<event>
 7    1  0.9930326E-013  0.5052886E+02  0.7816164E-02  0.1300439E+00
        -11   -1    0    0    0    0  0.00000000000E+00  0.00000000000E+00  0.45593999997E+02  0.45594000000E+02  0.51100000000E-03 0. -1.
         11   -1    0    0    0    0 -0.00000000000E+00 -0.00000000000E+00 -0.45593999997E+02  0.45594000000E+02  0.51100000000E-03 0.  1.
    9900012    2    1    2    0    0  0.21366407326E+02  0.27349152358E+02  0.21181747998E+02  0.50528856564E+02  0.29999990012E+02 0.  0.
        -12    1    1    2    0    0 -0.21366407326E+02 -0.27349152358E+02 -0.21181747998E+02  0.40659143436E+02  0.00000000000E+00 0.  1.
         11    1    3    3    0    0  0.15269715682E+02  0.14372549377E+02  0.66516816603E+01  0.21999528672E+02  0.51100000000E-03 0. -1.
        -11    1    3    3    0    0 -0.11291346562E+01 -0.45266735671E+01  0.64041595537E+01  0.79233186548E+01  0.51100000000E-03 0.  1.
        -12    1    3    3    0    0  0.72258262997E+01  0.17503276548E+02  0.81259067842E+01  0.20606009237E+02  0.00000000000E+00 0.  1.
</event>
<event>
 7    1  0.9930326E-013  0.5052886E+02  0.7816164E-02  0.1300439E+00
        -11   -1    0    0    0    0  0.00000000000E+00  0.00000000000E+00  0.45593999997E+02  0.45594000000E+02  0.51100000000E-03 0.  1.
         11   -1    0    0    0    0 -0.00000000000E+00 -0.00000000000E+00 -0.45593999997E+02  0.45594000000E+02  0.51100000000E-03 0. -1.
    9900012    2    1    2    0    0 -0.12952339825E+02 -0.13278463845E+02 -0.36181275509E+02  0.50528863186E+02  0.30000010140E+02 0.  0.
        -12    1    1    2    0    0  0.12952339825E+02  0.13278463845E+02  0.36181275509E+02  0.40659136814E+02  0.00000000000E+00 0.  1.
         11    1    3    3    0    0 -0.93728859177E+01 -0.87030632188E+01 -0.38879251972E+02  0.40929091536E+02  0.51100000000E-03 0. -1.
        -11    1    3    3    0    0 -0.15972083113E+01  0.73619842675E+00 -0.16835048562E+01  0.24345947045E+01  0.51100000000E-03 0.  1.
         12    1    3    3    0    0 -0.19822455957E+01 -0.53115990534E+01  0.43814813194E+01  0.71651769453E+01  0.00000000000E+00 0. -1.
</event>
<event>
 7    1  0.9930326E-013  0.5052887E+02  0.7816164E-02  0.1300439E+00
        -11   -1    0    0    0    0  0.00000000000E+00  0.00000000000E+00  0.45593999997E+02  0.45594000000E+02  0.51100000000E-03 0.  1.
         11   -1    0    0    0    0 -0.00000000000E+00 -0.00000000000E+00 -0.45593999997E+02  0.45594000000E+02  0.51100000000E-03 0. -1.
    9900012    2    1    2    0    0 -0.26419909155E+02 -0.12428183147E+02 -0.28296534595E+02  0.50528865649E+02  0.30000017628E+02 0.  0.
        -12    1    1    2    0    0  0.26419909155E+02  0.12428183147E+02  0.28296534595E+02  0.40659134351E+02  0.00000000000E+00 0.  1.
         11    1    3    3    0    0 -0.99863453704E+01  0.94298396074E+00 -0.23663069315E+02  0.25701306626E+02  0.51100000000E-03 0. -1.
        -11    1    3    3    0    0 -0.54831640280E+01 -0.69620199621E+01  0.37470402210E+01  0.96215965614E+01  0.51100000000E-03 0.  1.
        -12    1    3    3    0    0 -0.10950399756E+02 -0.64091471458E+01 -0.83805055011E+01  0.15205962462E+02  0.00000000000E+00 0.  1.
</event>
<event>
 7    1  0.9930326E-013  0.5052886E+02  0.7816164E-02  0.1300439E+00
        -11   -1    0    0    0    0  0.00000000000E+00  0.00000000000E+00  0.45593999997E+02  0.45594000000E+02  0.51100000000E-03 0.  1.
         11   -1    0    0    0    0 -0.00000000000E+00 -0.00000000000E+00 -0.45593999997E+02  0.45594000000E+02  0.51100000000E-03 0. -1.
    9900012    2    1    2    0    0  0.90576226646E+01 -0.10049053174E+02 -0.38342425256E+02  0.50528861143E+02  0.30000003931E+02 0.  0.
        -12    1    1    2    0    0 -0.90576226646E+01  0.10049053174E+02  0.38342425256E+02  0.40659138857E+02  0.00000000000E+00 0.  1.
         11    1    3    3    0    0  0.78559533724E+01 -0.67505310476E+01 -0.22584511230E+02  0.24846444828E+02  0.51100000000E-03 0. -1.
        -11    1    3    3    0    0 -0.80127138172E+01 -0.65359593245E+01 -0.97730792303E+01  0.14227980352E+02  0.51100000000E-03 0.  1.
        -12    1    3    3    0    0  0.92143831093E+01  0.32374371980E+01 -0.59848347962E+01  0.11454435963E+02  0.00000000000E+00 0.  1.
</event>
<event>
 7    1  0.9930326E-013  0.5052883E+02  0.7816164E-02  0.1300439E+00
        -11   -1    0    0    0    0  0.00000000000E+00  0.00000000000E+00  0.45593999997E+02  0.45594000000E+02  0.51100000000E-03 0. -1.
         11   -1    0    0    0    0 -0.00000000000E+00 -0.00000000000E+00 -0.45593999997E+02  0.45594000000E+02  0.51100000000E-03 0.  1.
    9900012    2    1    2    0    0  0.15271001656E+02 -0.26105952718E+02  0.27174323968E+02  0.50528829546E+02  0.29999907888E+02 0.  0.
        -12    1    1    2    0    0 -0.15271001656E+02  0.26105952718E+02 -0.27174323968E+02  0.40659170454E+02  0.00000000000E+00 0.  1.
         11    1    3    3    0    0 -0.17133601689E+01 -0.24786532967E+00  0.11183183398E+01  0.20609891946E+01  0.51100000000E-03 0. -1.
        -11    1    3    3    0    0  0.71329494334E+01 -0.22454971644E+02  0.37637608311E+01  0.23859392596E+02  0.51100000000E-03 0.  1.
        -12    1    3    3    0    0  0.98514123919E+01 -0.34031157439E+01  0.22292244797E+02  0.24608447756E+02  0.00000000000E+00 0.  1.
</event>
<event>
 7    1  0.9930326E-013  0.5052887E+02  0.7816164E-02  0.1300439E+00
        -11   -1    0    0    0    0  0.00000000000E+00  0.00000000000E+00  0.45593999997E+02  0.45594000000E+02  0.51100000000E-03 0.  1.
         11   -1    0    0    0    0 -0.00000000000E+00 -0.00000000000E+00 -0.45593999997E+02  0.45594000000E+02  0.51100000000E-03 0. -1.
    9900012    2    1    2    0    0 -0.38528419189E+02 -0.12960351367E+02  0.86897476077E+00  0.50528869293E+02  0.30000028702E+02 0.  0.
        -12    1    1    2    0    0  0.38528419189E+02  0.12960351367E+02 -0.86897476077E+00  0.40659130707E+02  0.00000000000E+00 0.  1.
         11    1    3    3    0    0  0.12054123634E+01  0.41549597619E+00 -0.50653411913E+00  0.13719449505E+01  0.51100000000E-03 0. -1.
        -11    1    3    3    0    0 -0.29302519146E+02 -0.18138092665E+02 -0.67319452370E+01  0.35113346761E+02  0.51100000000E-03 0.  1.
        -12    1    3    3    0    0 -0.10431312407E+02  0.47622453220E+01  0.81074541169E+01  0.14043577581E+02  0.00000000000E+00 0.  1.
</event>
<event>
 7    1  0.9930326E-013  0.5052886E+02  0.7816164E-02  0.1300439E+00
        -11   -1    0    0    0    0  0.00000000000E+00  0.00000000000E+00  0.45593999997E+02  0.45594000000E+02  0.51100000000E-03 0.  1.
         11   -1    0    0    0    0 -0.00000000000E+00 -0.00000000000E+00 -0.45593999997E+02  0.45594000000E+02  0.51100000000E-03 0. -1.
    9900012    2    1    2    0    0  0.15709166121E+02  0.97634157934E+01 -0.36208608533E+02  0.50528861789E+02  0.30000005895E+02 0.  0.
        -12    1    1    2    0    0 -0.15709166121E+02 -0.97634157934E+01  0.36208608533E+02  0.40659138211E+02  0.00000000000E+00 0.  1.
         11    1    3    3    0    0 -0.30656285444E+01 -0.73078149290E+01 -0.37289419989E+01  0.87582673001E+01  0.51100000000E-03 0.  1.
        -11    1    3    3    0    0  0.67067811994E+01  0.70756243222E+01 -0.75742842428E+01  0.12345653310E+02  0.51100000000E-03 0. -1.
         12    1    3    3    0    0  0.12068013466E+02  0.99956064002E+01 -0.24905382291E+02  0.29424941179E+02  0.00000000000E+00 0. -1.
</event>
<event>
 7    1  0.1372468E-012  0.5052886E+02  0.7816164E-02  0.1300439E+00
        -11   -1    0    0    0    0  0.00000000000E+00  0.00000000000E+00  0.45593999997E+02  0.45594000000E+02  0.51100000000E-03 0. -1.
         11   -1    0    0    0    0 -0.00000000000E+00 -0.00000000000E+00 -0.45593999997E+02  0.45594000000E+02  0.51100000000E-03 0.  1.
    9900012    2    1    2    0    0 -0.14123345571E+02  0.38127205814E+02  0.11349127034E+00  0.50528860885E+02  0.30000003146E+02 0.  0.
        -12    1    1    2    0    0  0.14123345571E+02 -0.38127205814E+02 -0.11349127034E+00  0.40659139115E+02  0.00000000000E+00 0.  1.
         11    1    3    3    0    0 -0.15194112929E+02  0.19275020556E+02  0.76990092829E+00  0.24555655822E+02  0.51100000000E-03 0. -1.
        -11    1    3    3    0    0  0.17134503478E+01 -0.30327701991E+01  0.18357075482E+01  0.39374394775E+01  0.51100000000E-03 0.  1.
        -12    1    3    3    0    0 -0.64268298974E+00  0.21884955457E+02 -0.24921172062E+01  0.22035765585E+02  0.00000000000E+00 0.  1.
</event>
<event>
 7    1  0.9930326E-013  0.5052884E+02  0.7816164E-02  0.1300439E+00
        -11   -1    0    0    0    0  0.00000000000E+00  0.00000000000E+00  0.45593999997E+02  0.45594000000E+02  0.51100000000E-03 0. -1.
         11   -1    0    0    0    0 -0.00000000000E+00 -0.00000000000E+00 -0.45593999997E+02  0.45594000000E+02  0.51100000000E-03 0.  1.
    9900012    2    1    2    0    0  0.14107913103E+02 -0.30251764160E+02  0.23215612058E+02  0.50528842481E+02  0.29999947206E+02 0.  0.
        -12    1    1    2    0    0 -0.14107913103E+02  0.30251764160E+02 -0.23215612058E+02  0.40659157519E+02  0.00000000000E+00 0.  1.
         11    1    3    3    0    0  0.56593481002E+01 -0.16700580023E+02  0.18237903570E+02  0.25368459175E+02  0.51100000000E-03 0. -1.
        -11    1    3    3    0    0  0.72550180129E+01 -0.31698401479E+01 -0.60528676459E+01  0.99659610641E+01  0.51100000000E-03 0.  1.
        -12    1    3    3    0    0  0.11935469904E+01 -0.10381343989E+02  0.11030576133E+02  0.15194422242E+02  0.00000000000E+00 0.  1.
</event>
<event>
 7    1  0.9930326E-013  0.5052886E+02  0.7816164E-02  0.1300439E+00
        -11   -1    0    0    0    0  0.00000000000E+00  0.00000000000E+00  0.45593999997E+02  0.45594000000E+02  0.51100000000E-03 0.  1.
         11   -1    0    0    0    0 -0.00000000000E+00 -0.00000000000E+00 -0.45593999997E+02  0.45594000000E+02  0.51100000000E-03 0. -1.
    9900012    2    1    2    0    0  0.13795329171E+02  0.22830674028E+02 -0.30685743740E+02  0.50528860161E+02  0.30000000946E+02 0.  0.
        -12    1    1    2    0    0 -0.13795329171E+02 -0.22830674028E+02  0.30685743740E+02  0.40659139839E+02  0.00000000000E+00 0.  1.
         11    1    3    3    0    0  0.99008801427E+00  0.89886882302E+01  0.16967421913E+01  0.92008545636E+01  0.51100000000E-03 0. -1.
        -11    1    3    3    0    0  0.85792940669E+01 -0.23833114201E+01 -0.11713279275E+02  0.14713441870E+02  0.51100000000E-03 0.  1.
         12    1    3    3    0    0  0.42259470902E+01  0.16225297218E+02 -0.20669206656E+02  0.26614563728E+02  0.00000000000E+00 0. -1.
</event>
<event>
 7    1  0.9930326E-013  0.5052886E+02  0.7816164E-02  0.1300439E+00
        -11   -1    0    0    0    0  0.00000000000E+00  0.00000000000E+00  0.45593999997E+02  0.45594000000E+02  0.51100000000E-03 0.  1.
         11   -1    0    0    0    0 -0.00000000000E+00 -0.00000000000E+00 -0.45593999997E+02  0.45594000000E+02  0.51100000000E-03 0. -1.
    9900012    2    1    2    0    0 -0.37731540996E+02  0.15106402058E+02  0.11370430555E+01  0.50528862823E+02  0.30000009036E+02 0.  0.
        -12    1    1    2    0    0  0.37731540996E+02 -0.15106402058E+02 -0.11370430555E+01  0.40659137177E+02  0.00000000000E+00 0.  1.
         11    1    3    3    0    0 -0.96107949999E+01 -0.52319448696E+01  0.31951114680E+01  0.11399533552E+02  0.51100000000E-03 0.  1.
        -11    1    3    3    0    0 -0.18926847991E+02  0.22686502102E+02 -0.23276167296E+01  0.29636476720E+02  0.51100000000E-03 0. -1.
         12    1    3    3    0    0 -0.91938980054E+01 -0.23481551740E+01  0.26954831711E+00  0.94928525507E+01  0.00000000000E+00 0. -1.
</event>
<event>
 7    1  0.9930326E-013  0.5052886E+02  0.7816164E-02  0.1300439E+00
        -11   -1    0    0    0    0  0.00000000000E+00  0.00000000000E+00  0.45593999997E+02  0.45594000000E+02  0.51100000000E-03 0.  1.
         11   -1    0    0    0    0 -0.00000000000E+00 -0.00000000000E+00 -0.45593999997E+02  0.45594000000E+02  0.51100000000E-03 0. -1.
    9900012    2    1    2    0    0 -0.63256976792E+01 -0.31446673391E+02 -0.24985150647E+02  0.50528862388E+02  0.30000007714E+02 0.  0.
        -12    1    1    2    0    0  0.63256976792E+01  0.31446673391E+02  0.24985150647E+02  0.40659137612E+02  0.00000000000E+00 0.  1.
         11    1    3    3    0    0 -0.70499015905E+01 -0.22129423296E+02 -0.46596245513E+01  0.23688068496E+02  0.51100000000E-03 0. -1.
        -11    1    3    3    0    0  0.27712605061E+01 -0.12363187868E+02 -0.19197260558E+02  0.23001371965E+02  0.51100000000E-03 0.  1.
        -12    1    3    3    0    0 -0.20470565948E+01  0.30459377725E+01 -0.11282655374E+01  0.38394219277E+01  0.00000000000E+00 0.  1.
</event>
<event>
 7    1  0.9930326E-013  0.5052886E+02  0.7816164E-02  0.1300439E+00
        -11   -1    0    0    0    0  0.00000000000E+00  0.00000000000E+00  0.45593999997E+02  0.45594000000E+02  0.51100000000E-03 0. -1.
         11   -1    0    0    0    0 -0.00000000000E+00 -0.00000000000E+00 -0.45593999997E+02  0.45594000000E+02  0.51100000000E-03 0.  1.
    9900012    2    1    2    0    0 -0.11491819387E+02 -0.42091851927E+01  0.38773524137E+02  0.50528864166E+02  0.30000013118E+02 0.  0.
        -12    1    1    2    0    0  0.11491819387E+02  0.42091851927E+01 -0.38773524137E+02  0.40659135834E+02  0.00000000000E+00 0.  1.
         11    1    3    3    0    0 -0.17356516108E+02 -0.67316744213E+00  0.20412410208E+02  0.26802393486E+02  0.51100000000E-03 0. -1.
        -11    1    3    3    0    0  0.53904766567E+01 -0.28045677742E+00  0.34103102200E+00  0.54085300230E+01  0.51100000000E-03 0.  1.
         12    1    3    3    0    0  0.47422006478E+00 -0.32555609731E+01  0.18020082907E+02  0.18317940657E+02  0.00000000000E+00 0. -1.
</event>
<event>
 7    1  0.9930326E-013  0.5052887E+02  0.7816164E-02  0.1300439E+00
        -11   -1    0    0    0    0  0.00000000000E+00  0.00000000000E+00  0.45593999997E+02  0.45594000000E+02  0.51100000000E-03 0.  1.
         11   -1    0    0    0    0 -0.00000000000E+00 -0.00000000000E+00 -0.45593999997E+02  0.45594000000E+02  0.51100000000E-03 0. -1.
    9900012    2    1    2    0    0  0.12034206348E+02  0.11653975560E+02 -0.37047640111E+02  0.50528869334E+02  0.30000028826E+02 0.  0.
        -12    1    1    2    0    0 -0.12034206348E+02 -0.11653975560E+02  0.37047640111E+02  0.40659130666E+02  0.00000000000E+00 0.  1.
         11    1    3    3    0    0  0.14892091490E+02 -0.25690478986E+01 -0.11141937562E+02  0.18775440579E+02  0.51100000000E-03 0. -1.
        -11    1    3    3    0    0  0.30974991855E+01  0.11289356652E+02 -0.17180671745E+02  0.20789890733E+02  0.51100000000E-03 0.  1.
         12    1    3    3    0    0 -0.59553843276E+01  0.29336668073E+01 -0.87250308039E+01  0.10963538022E+02  0.00000000000E+00 0. -1.
</event>
<event>
 7    1  0.9930326E-013  0.5052885E+02  0.7816164E-02  0.1300439E+00
        -11   -1    0    0    0    0  0.00000000000E+00  0.00000000000E+00  0.45593999997E+02  0.45594000000E+02  0.51100000000E-03 0. -1.
         11   -1    0    0    0    0 -0.00000000000E+00 -0.00000000000E+00 -0.45593999997E+02  0.45594000000E+02  0.51100000000E-03 0.  1.
    9900012    2    1    2    0    0 -0.10320148675E+02 -0.38918174040E+02  0.56600729161E+01  0.50528853862E+02  0.29999981799E+02 0.  0.
        -12    1    1    2    0    0  0.10320148675E+02  0.38918174040E+02 -0.56600729161E+01  0.40659146138E+02  0.00000000000E+00 0.  1.
         11    1    3    3    0    0 -0.10278185136E+02 -0.24565638054E+02 -0.74267065930E+00  0.26639504925E+02  0.51100000000E-03 0. -1.
        -11    1    3    3    0    0 -0.33980656341E+01 -0.10063751736E+02  0.12036929141E+02  0.16053461074E+02  0.51100000000E-03 0.  1.
        -12    1    3    3    0    0  0.33561020955E+01 -0.42887842494E+01 -0.56341855654E+01  0.78358878628E+01  0.00000000000E+00 0.  1.
</event>
<event>
 7    1  0.9930326E-013  0.5052888E+02  0.7816164E-02  0.1300439E+00
        -11   -1    0    0    0    0  0.00000000000E+00  0.00000000000E+00  0.45593999997E+02  0.45594000000E+02  0.51100000000E-03 0.  1.
         11   -1    0    0    0    0 -0.00000000000E+00 -0.00000000000E+00 -0.45593999997E+02  0.45594000000E+02  0.51100000000E-03 0. -1.
    9900012    2    1    2    0    0  0.13078413553E+02 -0.31673027043E+02 -0.21884664967E+02  0.50528879205E+02  0.30000058830E+02 0.  0.
        -12    1    1    2    0    0 -0.13078413553E+02  0.31673027043E+02  0.21884664967E+02  0.40659120795E+02  0.00000000000E+00 0.  1.
         11    1    3    3    0    0  0.75267582454E+01 -0.19934046595E+02 -0.84699872325E+01  0.22929434954E+02  0.51100000000E-03 0. -1.
        -11    1    3    3    0    0 -0.82175185202E+00 -0.28878543644E+01 -0.16091128758E+02  0.16368854691E+02  0.51100000000E-03 0.  1.
        -12    1    3    3    0    0  0.63734071599E+01 -0.88511260837E+01  0.26764510234E+01  0.11230589560E+02  0.00000000000E+00 0.  1.
</event>
<event>
 7    1  0.9930326E-013  0.5052884E+02  0.7816164E-02  0.1300439E+00
        -11   -1    0    0    0    0  0.00000000000E+00  0.00000000000E+00  0.45593999997E+02  0.45594000000E+02  0.51100000000E-03 0.  1.
         11   -1    0    0    0    0 -0.00000000000E+00 -0.00000000000E+00 -0.45593999997E+02  0.45594000000E+02  0.51100000000E-03 0. -1.
    9900012    2    1    2    0    0  0.16669677487E+02  0.13638854725E+02 -0.34485810918E+02  0.50528835469E+02  0.29999925891E+02 0.  0.
        -12    1    1    2    0    0 -0.16669677487E+02 -0.13638854725E+02  0.34485810918E+02  0.40659164531E+02  0.00000000000E+00 0.  1.
         11    1    3    3    0    0  0.67722112285E+01  0.29276817940E+01 -0.25482264294E+02  0.26528851453E+02  0.51100000000E-03 0. -1.
        -11    1    3    3    0    0  0.11465391691E+01  0.12793928120E+02 -0.30173215715E+01  0.13194823930E+02  0.51100000000E-03 0.  1.
         12    1    3    3    0    0  0.87509270892E+01 -0.20827551896E+01 -0.59862250518E+01  0.10805160085E+02  0.00000000000E+00 0. -1.
</event>
<event>
 7    1  0.9930326E-013  0.5052885E+02  0.7816164E-02  0.1300439E+00
        -11   -1    0    0    0    0  0.00000000000E+00  0.00000000000E+00  0.45593999997E+02  0.45594000000E+02  0.51100000000E-03 0.  1.
         11   -1    0    0    0    0 -0.00000000000E+00 -0.00000000000E+00 -0.45593999997E+02  0.45594000000E+02  0.51100000000E-03 0. -1.
    9900012    2    1    2    0    0  0.52367013802E+01 -0.60899656749E+01 -0.39857939954E+02  0.50528854649E+02  0.29999984192E+02 0.  0.
        -12    1    1    2    0    0 -0.52367013802E+01  0.60899656749E+01  0.39857939954E+02  0.40659145351E+02  0.00000000000E+00 0.  1.
         11    1    3    3    0    0  0.17147818626E+02 -0.57112882283E+01 -0.28939759541E+02  0.34120026075E+02  0.51100000000E-03 0. -1.
        -11    1    3    3    0    0 -0.61555388205E+01 -0.37372050192E+00 -0.75187909645E+01  0.97243273810E+01  0.51100000000E-03 0.  1.
         12    1    3    3    0    0 -0.57555784248E+01 -0.49569447215E-02 -0.33993894489E+01  0.66845011931E+01  0.00000000000E+00 0. -1.
</event>
<event>
 7    1  0.9930326E-013  0.5052888E+02  0.7816164E-02  0.1300439E+00
        -11   -1    0    0    0    0  0.00000000000E+00  0.00000000000E+00  0.45593999997E+02  0.45594000000E+02  0.51100000000E-03 0. -1.
         11   -1    0    0    0    0 -0.00000000000E+00 -0.00000000000E+00 -0.45593999997E+02  0.45594000000E+02  0.51100000000E-03 0.  1.
    9900012    2    1    2    0    0  0.40606965283E+01  0.36077853218E+02  0.18304731066E+02  0.50528881361E+02  0.30000065384E+02 0.  0.
        -12    1    1    2    0    0 -0.40606965283E+01 -0.36077853218E+02 -0.18304731066E+02  0.40659118639E+02  0.00000000000E+00 0.  1.
         11    1    3    3    0    0 -0.46220287860E+01 -0.12841738848E+01  0.20544125943E+01  0.52185116685E+01  0.51100000000E-03 0. -1.
        -11    1    3    3    0    0  0.99904364216E+01  0.19315907481E+02  0.12069035673E+01  0.21780030261E+02  0.51100000000E-03 0.  1.
        -12    1    3    3    0    0 -0.13077111073E+01  0.18046119622E+02  0.15043414905E+02  0.23530339431E+02  0.00000000000E+00 0.  1.
</event>
<event>
 7    1  0.9930326E-013  0.5052887E+02  0.7816164E-02  0.1300439E+00
        -11   -1    0    0    0    0  0.00000000000E+00  0.00000000000E+00  0.45593999997E+02  0.45594000000E+02  0.51100000000E-03 0. -1.
         11   -1    0    0    0    0 -0.00000000000E+00 -0.00000000000E+00 -0.45593999997E+02  0.45594000000E+02  0.51100000000E-03 0.  1.
    9900012    2    1    2    0    0 -0.29688467430E+02 -0.10946416811E+02 -0.25533039357E+02  0.50528865256E+02  0.30000016433E+02 0.  0.
        -12    1    1    2    0    0  0.29688467430E+02  0.10946416811E+02  0.25533039357E+02  0.40659134744E+02  0.00000000000E+00 0.  1.
         11    1    3    3    0    0 -0.16646949682E+02 -0.18537096649E+01  0.22278803354E+01  0.16897355542E+02  0.51100000000E-03 0. -1.
        -11    1    3    3    0    0 -0.29149109292E+01 -0.81567742659E+01 -0.10664913547E+02  0.13739361461E+02  0.51100000000E-03 0.  1.
         12    1    3    3    0    0 -0.10126606818E+02 -0.93593288054E+00 -0.17096006145E+02  0.19892148253E+02  0.00000000000E+00 0. -1.
</event>
<event>
 7    1  0.9930326E-013  0.5052886E+02  0.7816164E-02  0.1300439E+00
        -11   -1    0    0    0    0  0.00000000000E+00  0.00000000000E+00  0.45593999997E+02  0.45594000000E+02  0.51100000000E-03 0.  1.
         11   -1    0    0    0    0 -0.00000000000E+00 -0.00000000000E+00 -0.45593999997E+02  0.45594000000E+02  0.51100000000E-03 0. -1.
    9900012    2    1    2    0    0  0.15322652271E+02 -0.33571687762E+02 -0.17068219231E+02  0.50528855893E+02  0.29999987972E+02 0.  0.
        -12    1    1    2    0    0 -0.15322652271E+02  0.33571687762E+02  0.17068219231E+02  0.40659144107E+02  0.00000000000E+00 0.  1.
         11    1    3    3    0    0  0.47137170594E+01 -0.18437938087E+02 -0.19831239248E+02  0.27485536920E+02  0.51100000000E-03 0. -1.
        -11    1    3    3    0    0  0.22049975020E+01 -0.14202399850E+02  0.10090483233E+01  0.14407926786E+02  0.51100000000E-03 0.  1.
         12    1    3    3    0    0  0.84039377095E+01 -0.93134982568E+00  0.17539716938E+01  0.86353921871E+01  0.00000000000E+00 0. -1.
</event>
<event>
 7    1  0.9930326E-013  0.5052886E+02  0.7816164E-02  0.1300439E+00
        -11   -1    0    0    0    0  0.00000000000E+00  0.00000000000E+00  0.45593999997E+02  0.45594000000E+02  0.51100000000E-03 0.  1.
         11   -1    0    0    0    0 -0.00000000000E+00 -0.00000000000E+00 -0.45593999997E+02  0.45594000000E+02  0.51100000000E-03 0. -1.
    9900012    2    1    2    0    0  0.23204798006E+02  0.13528577019E+02 -0.30523445386E+02  0.50528858778E+02  0.29999996741E+02 0.  0.
        -12    1    1    2    0    0 -0.23204798006E+02 -0.13528577019E+02  0.30523445386E+02  0.40659141222E+02  0.00000000000E+00 0.  1.
         11    1    3    3    0    0  0.11609718683E+02  0.10737041791E+02 -0.10316541248E+02  0.18881225011E+02  0.51100000000E-03 0. -1.
        -11    1    3    3    0    0  0.10773762450E+02 -0.60201804426E+01 -0.19083707017E+02  0.22726733238E+02  0.51100000000E-03 0.  1.
        -12    1    3    3    0    0  0.82131687362E+00  0.88117156712E+01 -0.11231971203E+01  0.89209005290E+01  0.00000000000E+00 0.  1.
</event>
<event>
 7    1  0.9930326E-013  0.5052886E+02  0.7816164E-02  0.1300439E+00
        -11   -1    0    0    0    0  0.00000000000E+00  0.00000000000E+00  0.45593999997E+02  0.45594000000E+02  0.51100000000E-03 0. -1.
         11   -1    0    0    0    0 -0.00000000000E+00 -0.00000000000E+00 -0.45593999997E+02  0.45594000000E+02  0.51100000000E-03 0.  1.
    9900012    2    1    2    0    0 -0.52477565453E+01 -0.11805185047E+02  0.38552100703E+02  0.50528858207E+02  0.29999995005E+02 0.  0.
        -12    1    1    2    0    0  0.52477565453E+01  0.11805185047E+02 -0.38552100703E+02  0.40659141793E+02  0.00000000000E+00 0.  1.
         11    1    3    3    0    0 -0.62356991858E+01 -0.95185390250E+01  0.17199194953E+02  0.20622774712E+02  0.51100000000E-03 0.  1.
        -11    1    3    3    0    0 -0.49768117670E+01  0.74816601622E+01  0.12702079859E+02  0.15559136453E+02  0.51100000000E-03 0. -1.
        -12    1    3    3    0    0  0.59647544075E+01 -0.97683061842E+01  0.86508258908E+01  0.14346947043E+02  0.00000000000E+00 0.  1.
</event>
<event>
 7    1  0.9930326E-013  0.5052887E+02  0.7816164E-02  0.1300439E+00
        -11   -1    0    0    0    0  0.00000000000E+00  0.00000000000E+00  0.45593999997E+02  0.45594000000E+02  0.51100000000E-03 0. -1.
         11   -1    0    0    0    0 -0.00000000000E+00 -0.00000000000E+00 -0.45593999997E+02  0.45594000000E+02  0.51100000000E-03 0.  1.
    9900012    2    1    2    0    0  0.56753041970E+01  0.38210939729E+02  0.12683851222E+02  0.50528867268E+02  0.30000022547E+02 0.  0.
        -12    1    1    2    0    0 -0.56753041970E+01 -0.38210939729E+02 -0.12683851222E+02  0.40659132732E+02  0.00000000000E+00 0.  1.
         11    1    3    3    0    0 -0.10298514824E+01  0.15181520417E+02  0.24520155890E+01  0.15412706997E+02  0.51100000000E-03 0. -1.
        -11    1    3    3    0    0  0.14904966800E+02  0.15230302529E+02  0.26032646155E+01  0.21468515025E+02  0.51100000000E-03 0.  1.
        -12    1    3    3    0    0 -0.81998111206E+01  0.77991167824E+01  0.76285710179E+01  0.13647645246E+02  0.00000000000E+00 0.  1.
</event>
<event>
 7    1  0.9930326E-013  0.5052886E+02  0.7816164E-02  0.1300439E+00
        -11   -1    0    0    0    0  0.00000000000E+00  0.00000000000E+00  0.45593999997E+02  0.45594000000E+02  0.51100000000E-03 0. -1.
         11   -1    0    0    0    0 -0.00000000000E+00 -0.00000000000E+00 -0.45593999997E+02  0.45594000000E+02  0.51100000000E-03 0.  1.
    9900012    2    1    2    0    0  0.95443395522E+01 -0.39052590240E+02  0.60800352326E+01  0.50528855267E+02  0.29999986071E+02 0.  0.
        -12    1    1    2    0    0 -0.95443395522E+01  0.39052590240E+02 -0.60800352326E+01  0.40659144733E+02  0.00000000000E+00 0.  1.
         11    1    3    3    0    0  0.87827456930E+01 -0.13557731995E+02  0.12772584867E+02  0.20593388337E+02  0.51100000000E-03 0. -1.
        -11    1    3    3    0    0 -0.46536324148E+01 -0.26949583092E+01  0.55486151400E+00  0.54061970461E+01  0.51100000000E-03 0.  1.
         12    1    3    3    0    0  0.54152262740E+01 -0.22799899936E+02 -0.72474111484E+01  0.24529269884E+02  0.00000000000E+00 0. -1.
</event>
<event>
 7    1  0.9930326E-013  0.5052886E+02  0.7816164E-02  0.1300439E+00
        -11   -1    0    0    0    0  0.00000000000E+00  0.00000000000E+00  0.45593999997E+02  0.45594000000E+02  0.51100000000E-03 0.  1.
         11   -1    0    0    0    0 -0.00000000000E+00 -0.00000000000E+00 -0.45593999997E+02  0.45594000000E+02  0.51100000000E-03 0. -1.
    9900012    2    1    2    0    0 -0.31550774626E+01 -0.30855381253E+02 -0.26289859141E+02  0.50528858842E+02  0.29999996937E+02 0.  0.
        -12    1    1    2    0    0  0.31550774626E+01  0.30855381253E+02  0.26289859141E+02  0.40659141158E+02  0.00000000000E+00 0.  1.
         11    1    3    3    0    0 -0.13130344789E+02 -0.52043691939E+01 -0.12317556622E+02  0.18740694075E+02  0.51100000000E-03 0. -1.
        -11    1    3    3    0    0  0.92686303315E+01 -0.26067079499E+02 -0.13909602164E+02  0.30965741949E+02  0.51100000000E-03 0.  1.
        -12    1    3    3    0    0  0.70663699520E+00  0.41606744043E+00 -0.62700354569E-01  0.82242281853E+00  0.00000000000E+00 0.  1.
</event>
<event>
 7    1  0.9930326E-013  0.5052884E+02  0.7816164E-02  0.1300439E+00
        -11   -1    0    0    0    0  0.00000000000E+00  0.00000000000E+00  0.45593999997E+02  0.45594000000E+02  0.51100000000E-03 0.  1.
         11   -1    0    0    0    0 -0.00000000000E+00 -0.00000000000E+00 -0.45593999997E+02  0.45594000000E+02  0.51100000000E-03 0. -1.
    9900012    2    1    2    0    0  0.31358543610E+02  0.98804866350E+01 -0.23920384587E+02  0.50528842701E+02  0.29999947874E+02 0.  0.
        -12    1    1    2    0    0 -0.31358543610E+02 -0.98804866350E+01  0.23920384587E+02  0.40659157299E+02  0.00000000000E+00 0.  1.
         11    1    3    3    0    0  0.22546397951E+02  0.15093338956E+02 -0.23710509565E+02  0.36032446566E+02  0.51100000000E-03 0. -1.
        -11    1    3    3    0    0 -0.23126641167E+01 -0.44923047914E+00 -0.41864332485E+00  0.23927987451E+01  0.51100000000E-03 0.  1.
         12    1    3    3    0    0  0.11124809775E+02 -0.47636218421E+01  0.20876830231E+00  0.12103597390E+02  0.00000000000E+00 0. -1.
</event>
<event>
 7    1  0.9930326E-013  0.5052886E+02  0.7816164E-02  0.1300439E+00
        -11   -1    0    0    0    0  0.00000000000E+00  0.00000000000E+00  0.45593999997E+02  0.45594000000E+02  0.51100000000E-03 0. -1.
         11   -1    0    0    0    0 -0.00000000000E+00 -0.00000000000E+00 -0.45593999997E+02  0.45594000000E+02  0.51100000000E-03 0.  1.
    9900012    2    1    2    0    0 -0.10533255505E+02 -0.25361966709E+02  0.29983110532E+02  0.50528859035E+02  0.29999997522E+02 0.  0.
        -12    1    1    2    0    0  0.10533255505E+02  0.25361966709E+02 -0.29983110532E+02  0.40659140965E+02  0.00000000000E+00 0.  1.
         11    1    3    3    0    0  0.71030591856E+01 -0.46643782897E+01  0.27577730029E+01  0.89339345655E+01  0.51100000000E-03 0. -1.
        -11    1    3    3    0    0 -0.67144594572E+01  0.38278628050E+00  0.10808458329E+02  0.12730014251E+02  0.51100000000E-03 0.  1.
         12    1    3    3    0    0 -0.10921855233E+02 -0.21080374700E+02  0.16416879200E+02  0.28864910218E+02  0.00000000000E+00 0. -1.
</event>
<event>
 7    1  0.9930326E-013  0.5052889E+02  0.7816164E-02  0.1300439E+00
        -11   -1    0    0    0    0  0.00000000000E+00  0.00000000000E+00  0.45593999997E+02  0.45594000000E+02  0.51100000000E-03 0.  1.
         11   -1    0    0    0    0 -0.00000000000E+00 -0.00000000000E+00 -0.45593999997E+02  0.45594000000E+02  0.51100000000E-03 0. -1.
    9900012    2    1    2    0    0 -0.23434339961E+02  0.79970965733E-01 -0.33226318718E+02  0.50528893513E+02  0.30000102323E+02 0.  0.
        -12    1    1    2    0    0  0.23434339961E+02 -0.79970965733E-01  0.33226318718E+02  0.40659106487E+02  0.00000000000E+00 0.  1.
         11    1    3    3    0    0 -0.15338819392E+02  0.13602280649E+02 -0.19568783250E+02  0.28341466041E+02  0.51100000000E-03 0. -1.
        -11    1    3    3    0    0  0.79866292708E+00 -0.50942931009E+01 -0.31238019789E+01  0.60289156350E+01  0.51100000000E-03 0.  1.
         12    1    3    3    0    0 -0.88941834961E+01 -0.84280165827E+01 -0.10533733489E+02  0.16158511837E+02  0.00000000000E+00 0. -1.
</event>
<event>
 7    1  0.9930326E-013  0.5052886E+02  0.7816164E-02  0.1300439E+00
        -11   -1    0    0    0    0  0.00000000000E+00  0.00000000000E+00  0.45593999997E+02  0.45594000000E+02  0.51100000000E-03 0.  1.
         11   -1    0    0    0    0 -0.00000000000E+00 -0.00000000000E+00 -0.45593999997E+02  0.45594000000E+02  0.51100000000E-03 0. -1.
    9900012    2    1    2    0    0  0.12913543571E+02  0.33794002998E+02 -0.18557240195E+02  0.50528863145E+02  0.30000010015E+02 0.  0.
        -12    1    1    2    0    0 -0.12913543571E+02 -0.33794002998E+02  0.18557240195E+02  0.40659136855E+02  0.00000000000E+00 0.  1.
         11    1    3    3    0    0  0.18318955871E+02  0.14699874109E+02 -0.28753208175E+01  0.23663007270E+02  0.51100000000E-03 0. -1.
        -11    1    3    3    0    0 -0.25708100854E+01  0.15723693894E+01  0.23785002799E+00  0.30229096726E+01  0.51100000000E-03 0.  1.
         12    1    3    3    0    0 -0.28346022147E+01  0.17521759500E+02 -0.15919769405E+02  0.23842946202E+02  0.00000000000E+00 0. -1.
</event>
<event>
 7    1  0.9930326E-013  0.5052886E+02  0.7816164E-02  0.1300439E+00
        -11   -1    0    0    0    0  0.00000000000E+00  0.00000000000E+00  0.45593999997E+02  0.45594000000E+02  0.51100000000E-03 0.  1.
         11   -1    0    0    0    0 -0.00000000000E+00 -0.00000000000E+00 -0.45593999997E+02  0.45594000000E+02  0.51100000000E-03 0. -1.
    9900012    2    1    2    0    0  0.44656067901E+01  0.14627618551E+01 -0.40386686109E+02  0.50528859194E+02  0.29999998005E+02 0.  0.
        -12    1    1    2    0    0 -0.44656067901E+01 -0.14627618551E+01  0.40386686109E+02  0.40659140806E+02  0.00000000000E+00 0.  1.
         11    1    3    3    0    0  0.52623289676E+01  0.53511251939E+01 -0.22295842813E+01  0.78292843436E+01  0.51100000000E-03 0.  1.
        -11    1    3    3    0    0  0.52365436353E+01 -0.66620473514E+01 -0.33584891685E+02  0.34637396176E+02  0.51100000000E-03 0. -1.
         12    1    3    3    0    0 -0.60332658129E+01  0.27736840127E+01 -0.45722101432E+01  0.80621786736E+01  0.00000000000E+00 0. -1.
</event>
<event>
 7    1  0.9930326E-013  0.5052886E+02  0.7816164E-02  0.1300439E+00
        -11   -1    0    0    0    0  0.00000000000E+00  0.00000000000E+00  0.45593999997E+02  0.45594000000E+02  0.51100000000E-03 0. -1.
         11   -1    0    0    0    0 -0.00000000000E+00 -0.00000000000E+00 -0.45593999997E+02  0.45594000000E+02  0.51100000000E-03 0.  1.
    9900012    2    1    2    0    0 -0.24911040727E+02  0.29493810333E+02  0.12756222347E+02  0.50528855805E+02  0.29999987706E+02 0.  0.
        -12    1    1    2    0    0  0.24911040727E+02 -0.29493810333E+02 -0.12756222347E+02  0.40659144195E+02  0.00000000000E+00 0.  1.
         11    1    3    3    0    0 -0.15630567316E+02  0.78497604446E+01  0.12099396920E+02  0.21268022470E+02  0.51100000000E-03 0. -1.
        -11    1    3    3    0    0  0.33264663941E+01  0.14139132086E+02  0.12363984198E+01  0.14577692414E+02  0.51100000000E-03 0.  1.
        -12    1    3    3    0    0 -0.12606939805E+02  0.75049178029E+01 -0.57957299350E+00  0.14683140922E+02  0.00000000000E+00 0.  1.
</event>
<event>
 7    1  0.9930326E-013  0.5052887E+02  0.7816164E-02  0.1300439E+00
        -11   -1    0    0    0    0  0.00000000000E+00  0.00000000000E+00  0.45593999997E+02  0.45594000000E+02  0.51100000000E-03 0. -1.
         11   -1    0    0    0    0 -0.00000000000E+00 -0.00000000000E+00 -0.45593999997E+02  0.45594000000E+02  0.51100000000E-03 0.  1.
    9900012    2    1    2    0    0  0.40186901574E+02 -0.15473134864E+01 -0.59819433209E+01  0.50528869623E+02  0.30000029705E+02 0.  0.
        -12    1    1    2    0    0 -0.40186901574E+02  0.15473134864E+01  0.59819433209E+01  0.40659130377E+02  0.00000000000E+00 0.  1.
         11    1    3    3    0    0  0.29207450357E+02  0.50034295256E+01  0.60133508068E+01  0.30236895534E+02  0.51100000000E-03 0. -1.
        -11    1    3    3    0    0  0.12297330573E+02 -0.53473920540E+01 -0.12607121450E+02  0.18405391941E+02  0.51100000000E-03 0.  1.
         12    1    3    3    0    0 -0.13178793558E+01 -0.12033509580E+01  0.61182732204E+00  0.18865821468E+01  0.00000000000E+00 0. -1.
</event>
<event>
 7    1  0.9930326E-013  0.5052886E+02  0.7816164E-02  0.1300439E+00
        -11   -1    0    0    0    0  0.00000000000E+00  0.00000000000E+00  0.45593999997E+02  0.45594000000E+02  0.51100000000E-03 0.  1.
         11   -1    0    0    0    0 -0.00000000000E+00 -0.00000000000E+00 -0.45593999997E+02  0.45594000000E+02  0.51100000000E-03 0. -1.
    9900012    2    1    2    0    0 -0.19915920950E+02  0.28596673854E+02 -0.20946416130E+02  0.50528855746E+02  0.29999987526E+02 0.  0.
        -12    1    1    2    0    0  0.19915920950E+02 -0.28596673854E+02  0.20946416130E+02  0.40659144254E+02  0.00000000000E+00 0.  1.
         11    1    3    3    0    0  0.60791604318E+01  0.67708194386E+01  0.17046036402E+01  0.92577460138E+01  0.51100000000E-03 0. -1.
        -11    1    3    3    0    0 -0.18846932798E+02  0.13643781716E+02 -0.12548773309E+02  0.26435418803E+02  0.51100000000E-03 0.  1.
         12    1    3    3    0    0 -0.71481485832E+01  0.81820726986E+01 -0.10102246461E+02  0.14835690930E+02  0.00000000000E+00 0. -1.
</event>
<event>
 7    1  0.9930326E-013  0.5052886E+02  0.7816164E-02  0.1300439E+00
        -11   -1    0    0    0    0  0.00000000000E+00  0.00000000000E+00  0.45593999997E+02  0.45594000000E+02  0.51100000000E-03 0.  1.
         11   -1    0    0    0    0 -0.00000000000E+00 -0.00000000000E+00 -0.45593999997E+02  0.45594000000E+02  0.51100000000E-03 0. -1.
    9900012    2    1    2    0    0 -0.47146182558E+01  0.31046082496E+02 -0.25827874709E+02  0.50528856187E+02  0.29999988866E+02 0.  0.
        -12    1    1    2    0    0  0.47146182558E+01 -0.31046082496E+02  0.25827874709E+02  0.40659143813E+02  0.00000000000E+00 0.  1.
         11    1    3    3    0    0  0.43230485800E+01  0.12665056980E+02 -0.25954212197E+02  0.29201259363E+02  0.51100000000E-03 0. -1.
        -11    1    3    3    0    0 -0.52756715806E+01  0.13299712533E+02  0.25932775211E+01  0.14540981832E+02  0.51100000000E-03 0.  1.
         12    1    3    3    0    0 -0.37619952551E+01  0.50813129826E+01 -0.24669400333E+01  0.67866149924E+01  0.00000000000E+00 0. -1.
</event>
<event>
 7    1  0.9930326E-013  0.5052887E+02  0.7816164E-02  0.1300439E+00
        -11   -1    0    0    0    0  0.00000000000E+00  0.00000000000E+00  0.45593999997E+02  0.45594000000E+02  0.51100000000E-03 0. -1.
         11   -1    0    0    0    0 -0.00000000000E+00 -0.00000000000E+00 -0.45593999997E+02  0.45594000000E+02  0.51100000000E-03 0.  1.
    9900012    2    1    2    0    0 -0.33852979889E+02  0.26994319610E+01  0.22357414361E+02  0.50528866251E+02  0.30000019457E+02 0.  0.
        -12    1    1    2    0    0  0.33852979889E+02 -0.26994319610E+01 -0.22357414361E+02  0.40659133749E+02  0.00000000000E+00 0.  1.
         11    1    3    3    0    0 -0.83995140221E+01 -0.89442931382E+01  0.63465483617E+01  0.13814155491E+02  0.51100000000E-03 0. -1.
        -11    1    3    3    0    0 -0.25545062991E+02  0.83653466926E+01  0.79791440730E+01  0.28039187023E+02  0.51100000000E-03 0.  1.
        -12    1    3    3    0    0  0.91597124451E-01  0.32783784067E+01  0.80317219267E+01  0.86755237374E+01  0.00000000000E+00 0.  1.
</event>
<event>
 7    1  0.9930326E-013  0.5052891E+02  0.7816164E-02  0.1300439E+00
        -11   -1    0    0    0    0  0.00000000000E+00  0.00000000000E+00  0.45593999997E+02  0.45594000000E+02  0.51100000000E-03 0.  1.
         11   -1    0    0    0    0 -0.00000000000E+00 -0.00000000000E+00 -0.45593999997E+02  0.45594000000E+02  0.51100000000E-03 0. -1.
    9900012    2    1    2    0    0 -0.95001871099E+01 -0.26409568780E+02 -0.29418413021E+02  0.50528906270E+02  0.30000141097E+02 0.  0.
        -12    1    1    2    0    0  0.95001871099E+01  0.26409568780E+02  0.29418413021E+02  0.40659093730E+02  0.00000000000E+00 0.  1.
         11    1    3    3    0    0 -0.89231831048E+01  0.36493388676E+00 -0.93458311741E+01  0.12926752649E+02  0.51100000000E-03 0. -1.
        -11    1    3    3    0    0  0.38345793929E+01 -0.21806200603E+02 -0.21438212927E+02  0.30819009679E+02  0.51100000000E-03 0.  1.
         12    1    3    3    0    0 -0.44115833981E+01 -0.49683020639E+01  0.13656310799E+01  0.67831439408E+01  0.00000000000E+00 0. -1.
</event>
<event>
 7    1  0.9930326E-013  0.5052878E+02  0.7816164E-02  0.1300439E+00
        -11   -1    0    0    0    0  0.00000000000E+00  0.00000000000E+00  0.45593999997E+02  0.45594000000E+02  0.51100000000E-03 0.  1.
         11   -1    0    0    0    0 -0.00000000000E+00 -0.00000000000E+00 -0.45593999997E+02  0.45594000000E+02  0.51100000000E-03 0. -1.
    9900012    2    1    2    0    0 -0.22164816086E+02  0.19815158524E+02 -0.27735399819E+02  0.50528782317E+02  0.29999764331E+02 0.  0.
        -12    1    1    2    0    0  0.22164816086E+02 -0.19815158524E+02  0.27735399819E+02  0.40659217683E+02  0.00000000000E+00 0.  1.
         11    1    3    3    0    0 -0.11784955698E+02  0.46817406099E+01 -0.14907687760E+02  0.19571485139E+02  0.51100000000E-03 0. -1.
        -11    1    3    3    0    0  0.37252085646E+01  0.19463011386E+00  0.31879377646E+01  0.49069346015E+01  0.51100000000E-03 0.  1.
        -12    1    3    3    0    0 -0.14105068953E+02  0.14938787800E+02 -0.16015649823E+02  0.26050362576E+02  0.00000000000E+00 0.  1.
</event>
<event>
 7    1  0.9930326E-013  0.5052887E+02  0.7816164E-02  0.1300439E+00
        -11   -1    0    0    0    0  0.00000000000E+00  0.00000000000E+00  0.45593999997E+02  0.45594000000E+02  0.51100000000E-03 0.  1.
         11   -1    0    0    0    0 -0.00000000000E+00 -0.00000000000E+00 -0.45593999997E+02  0.45594000000E+02  0.51100000000E-03 0. -1.
    9900012    2    1    2    0    0  0.20647484946E+02  0.28002303440E+02 -0.21040842632E+02  0.50528871982E+02  0.30000036876E+02 0.  0.
        -12    1    1    2    0    0 -0.20647484946E+02 -0.28002303440E+02  0.21040842632E+02  0.40659128018E+02  0.00000000000E+00 0.  1.
         11    1    3    3    0    0  0.48149068973E+01  0.10986321721E+02 -0.18040345404E+02  0.21664179097E+02  0.51100000000E-03 0. -1.
        -11    1    3    3    0    0  0.19190931213E+02  0.13010702184E+02 -0.81678669468E+00  0.23199942950E+02  0.51100000000E-03 0.  1.
        -12    1    3    3    0    0 -0.33583531641E+01  0.40052795355E+01 -0.21837105330E+01  0.56647499349E+01  0.00000000000E+00 0.  1.
</event>
<event>
 7    1  0.9930326E-013  0.5052887E+02  0.7816164E-02  0.1300439E+00
        -11   -1    0    0    0    0  0.00000000000E+00  0.00000000000E+00  0.45593999997E+02  0.45594000000E+02  0.51100000000E-03 0. -1.
         11   -1    0    0    0    0 -0.00000000000E+00 -0.00000000000E+00 -0.45593999997E+02  0.45594000000E+02  0.51100000000E-03 0.  1.
    9900012    2    1    2    0    0 -0.20593257594E+01 -0.28694337669E+02  0.28732540111E+02  0.50528871897E+02  0.30000036619E+02 0.  0.
        -12    1    1    2    0    0  0.20593257594E+01  0.28694337669E+02 -0.28732540111E+02  0.40659128103E+02  0.00000000000E+00 0.  1.
         11    1    3    3    0    0  0.21057764289E+00 -0.30362217103E+02  0.12314826099E+02  0.32765279069E+02  0.51100000000E-03 0. -1.
        -11    1    3    3    0    0 -0.21725612787E+01  0.38137802097E+01  0.85888832923E+01  0.96454060810E+01  0.51100000000E-03 0.  1.
         12    1    3    3    0    0 -0.97342123549E-01 -0.21459007757E+01  0.78288307202E+01  0.81181867479E+01  0.00000000000E+00 0. -1.
</event>
<event>
 7    1  0.9930326E-013  0.5052886E+02  0.7816164E-02  0.1300439E+00
        -11   -1    0    0    0    0  0.00000000000E+00  0.00000000000E+00  0.45593999997E+02  0.45594000000E+02  0.51100000000E-03 0.  1.
         11   -1    0    0    0    0 -0.00000000000E+00 -0.00000000000E+00 -0.45593999997E+02  0.45594000000E+02  0.51100000000E-03 0. -1.
    9900012    2    1    2    0    0  0.18979301742E+02 -0.10015503944E+02 -0.34534638288E+02  0.50528862583E+02  0.30000008306E+02 0.  0.
        -12    1    1    2    0    0 -0.18979301742E+02  0.10015503944E+02  0.34534638288E+02  0.40659137417E+02  0.00000000000E+00 0.  1.
         11    1    3    3    0    0  0.21119346009E+02 -0.13052989362E+02 -0.22433966774E+02  0.33461771809E+02  0.51100000000E-03 0. -1.
        -11    1    3    3    0    0  0.35744785574E+01  0.47168982690E+01 -0.74238590784E+01  0.94941934947E+01  0.51100000000E-03 0.  1.
         12    1    3    3    0    0 -0.57145228247E+01 -0.16794128507E+01 -0.46768124357E+01  0.75728972788E+01  0.00000000000E+00 0. -1.
</event>
<event>
 7    1  0.9930326E-013  0.5052886E+02  0.7816164E-02  0.1300439E+00
        -11   -1    0    0    0    0  0.00000000000E+00  0.00000000000E+00  0.45593999997E+02  0.45594000000E+02  0.51100000000E-03 0.  1.
         11   -1    0    0    0    0 -0.00000000000E+00 -0.00000000000E+00 -0.45593999997E+02  0.45594000000E+02  0.51100000000E-03 0. -1.
    9900012    2    1    2    0    0 -0.12195545265E+02 -0.32527728443E+02 -0.21127743198E+02  0.50528856199E+02  0.29999988902E+02 0.  0.
        -12    1    1    2    0    0  0.12195545265E+02  0.32527728443E+02  0.21127743198E+02  0.40659143801E+02  0.00000000000E+00 0.  1.
         11    1    3    3    0    0 -0.40759414637E+00 -0.67299872962E+01 -0.48217127084E+01  0.82890153637E+01  0.51100000000E-03 0. -1.
        -11    1    3    3    0    0 -0.28970401691E+01  0.49975637136E+01  0.92288901137E+00  0.58498042020E+01  0.51100000000E-03 0.  1.
        -12    1    3    3    0    0 -0.88909109500E+01 -0.30795304861E+02 -0.17228919501E+02  0.36390036633E+02  0.00000000000E+00 0.  1.
</event>
<event>
 7    1  0.9930326E-013  0.5052886E+02  0.7816164E-02  0.1300439E+00
        -11   -1    0    0    0    0  0.00000000000E+00  0.00000000000E+00  0.45593999997E+02  0.45594000000E+02  0.51100000000E-03 0. -1.
         11   -1    0    0    0    0 -0.00000000000E+00 -0.00000000000E+00 -0.45593999997E+02  0.45594000000E+02  0.51100000000E-03 0.  1.
    9900012    2    1    2    0    0  0.22059915413E+01  0.36132695346E+02  0.18512900519E+02  0.50528861331E+02  0.30000004503E+02 0.  0.
        -12    1    1    2    0    0 -0.22059915413E+01 -0.36132695346E+02 -0.18512900519E+02  0.40659138669E+02  0.00000000000E+00 0.  1.
         11    1    3    3    0    0  0.17216838713E+01  0.19847093666E+02  0.72307372323E+01  0.21193274488E+02  0.51100000000E-03 0. -1.
        -11    1    3    3    0    0 -0.17993650847E+01 -0.31712459125E+01  0.88787924127E+01  0.95983055960E+01  0.51100000000E-03 0.  1.
        -12    1    3    3    0    0  0.22836727547E+01  0.19456847592E+02  0.24033708744E+01  0.19737281247E+02  0.00000000000E+00 0.  1.
</event>
<event>
 7    1  0.9930326E-013  0.5052883E+02  0.7816164E-02  0.1300439E+00
        -11   -1    0    0    0    0  0.00000000000E+00  0.00000000000E+00  0.45593999997E+02  0.45594000000E+02  0.51100000000E-03 0.  1.
         11   -1    0    0    0    0 -0.00000000000E+00 -0.00000000000E+00 -0.45593999997E+02  0.45594000000E+02  0.51100000000E-03 0. -1.
    9900012    2    1    2    0    0  0.26293104939E+02 -0.83590945957E+01 -0.29865804890E+02  0.50528829675E+02  0.29999908281E+02 0.  0.
        -12    1    1    2    0    0 -0.26293104939E+02  0.83590945957E+01  0.29865804890E+02  0.40659170325E+02  0.00000000000E+00 0.  1.
         11    1    3    3    0    0  0.13769906260E+02 -0.11084990225E+02 -0.82533584482E+01  0.19509106915E+02  0.51100000000E-03 0.  1.
        -11    1    3    3    0    0  0.37900506584E+01  0.10112622006E+02 -0.99517287508E+01  0.14685588624E+02  0.51100000000E-03 0. -1.
         12    1    3    3    0    0  0.87331480205E+01 -0.73867263771E+01 -0.11660717691E+02  0.16334134136E+02  0.00000000000E+00 0. -1.
</event>
<event>
 7    1  0.1012639E-012  0.5052886E+02  0.7816164E-02  0.1300439E+00
        -11   -1    0    0    0    0  0.00000000000E+00  0.00000000000E+00  0.45593999997E+02  0.45594000000E+02  0.51100000000E-03 0.  1.
         11   -1    0    0    0    0 -0.00000000000E+00 -0.00000000000E+00 -0.45593999997E+02  0.45594000000E+02  0.51100000000E-03 0. -1.
    9900012    2    1    2    0    0  0.27642656928E+02  0.29813040894E+02 -0.48138170410E+00  0.50528860588E+02  0.30000002243E+02 0.  0.
        -12    1    1    2    0    0 -0.27642656928E+02 -0.29813040894E+02  0.48138170410E+00  0.40659139412E+02  0.00000000000E+00 0.  1.
         11    1    3    3    0    0  0.17401094875E+02  0.12834262943E+02  0.61254859983E+01  0.22473050241E+02  0.51100000000E-03 0. -1.
        -11    1    3    3    0    0  0.71741840742E+01  0.46662762432E+01 -0.11603869113E+02  0.14418489163E+02  0.51100000000E-03 0.  1.
        -12    1    3    3    0    0  0.30673779782E+01  0.12312501708E+02  0.49970014102E+01  0.13637321184E+02  0.00000000000E+00 0.  1.
</event>
<event>
 7    1  0.9930326E-013  0.5052886E+02  0.7816164E-02  0.1300439E+00
        -11   -1    0    0    0    0  0.00000000000E+00  0.00000000000E+00  0.45593999997E+02  0.45594000000E+02  0.51100000000E-03 0. -1.
         11   -1    0    0    0    0 -0.00000000000E+00 -0.00000000000E+00 -0.45593999997E+02  0.45594000000E+02  0.51100000000E-03 0.  1.
    9900012    2    1    2    0    0 -0.29299971477E+02 -0.19933466326E+02  0.19933252815E+02  0.50528856181E+02  0.29999988848E+02 0.  0.
        -12    1    1    2    0    0  0.29299971477E+02  0.19933466326E+02 -0.19933252815E+02  0.40659143819E+02  0.00000000000E+00 0.  1.
         11    1    3    3    0    0 -0.23207846751E+01 -0.17711056745E+02  0.98804815494E+01  0.20413022521E+02  0.51100000000E-03 0. -1.
        -11    1    3    3    0    0 -0.21259153468E+02 -0.51418404103E+01  0.67237527611E+01  0.22882285297E+02  0.51100000000E-03 0.  1.
         12    1    3    3    0    0 -0.57200333336E+01  0.29194308300E+01  0.33290185047E+01  0.72335483625E+01  0.00000000000E+00 0. -1.
</event>
<event>
 7    1  0.1155558E-012  0.5052886E+02  0.7816164E-02  0.1300439E+00
        -11   -1    0    0    0    0  0.00000000000E+00  0.00000000000E+00  0.45593999997E+02  0.45594000000E+02  0.51100000000E-03 0. -1.
         11   -1    0    0    0    0 -0.00000000000E+00 -0.00000000000E+00 -0.45593999997E+02  0.45594000000E+02  0.51100000000E-03 0.  1.
    9900012    2    1    2    0    0 -0.23669105220E+02 -0.24419635555E+02  0.22284982563E+02  0.50528860924E+02  0.30000003266E+02 0.  0.
        -12    1    1    2    0    0  0.23669105220E+02  0.24419635555E+02 -0.22284982563E+02  0.40659139076E+02  0.00000000000E+00 0.  1.
         11    1    3    3    0    0 -0.24981456690E+02 -0.13239568673E+02  0.11153104567E+02  0.30393273906E+02  0.51100000000E-03 0. -1.
        -11    1    3    3    0    0  0.44437398339E+01 -0.82305624875E+00 -0.12599563665E+00  0.45210751444E+01  0.51100000000E-03 0.  1.
         12    1    3    3    0    0 -0.31313883646E+01 -0.10357010632E+02  0.11257873633E+02  0.15614511874E+02  0.00000000000E+00 0. -1.
</event>
<event>
 7    1  0.9930326E-013  0.5052886E+02  0.7816164E-02  0.1300439E+00
        -11   -1    0    0    0    0  0.00000000000E+00  0.00000000000E+00  0.45593999997E+02  0.45594000000E+02  0.51100000000E-03 0. -1.
         11   -1    0    0    0    0 -0.00000000000E+00 -0.00000000000E+00 -0.45593999997E+02  0.45594000000E+02  0.51100000000E-03 0.  1.
    9900012    2    1    2    0    0 -0.30342852731E+02 -0.17422892187E+02 -0.20710382699E+02  0.50528857909E+02  0.29999994101E+02 0.  0.
        -12    1    1    2    0    0  0.30342852731E+02  0.17422892187E+02  0.20710382699E+02  0.40659142091E+02  0.00000000000E+00 0.  1.
         11    1    3    3    0    0 -0.15138097413E+02 -0.15891204421E+01 -0.57048262581E+01  0.16255225005E+02  0.51100000000E-03 0. -1.
        -11    1    3    3    0    0 -0.83513325909E+01 -0.20062763120E+02 -0.67858427915E+01  0.22766354182E+02  0.51100000000E-03 0.  1.
        -12    1    3    3    0    0 -0.68534227272E+01  0.42289913752E+01 -0.82197136494E+01  0.11507278723E+02  0.00000000000E+00 0.  1.
</event>
<event>
 7    1  0.9930326E-013  0.5052886E+02  0.7816164E-02  0.1300439E+00
        -11   -1    0    0    0    0  0.00000000000E+00  0.00000000000E+00  0.45593999997E+02  0.45594000000E+02  0.51100000000E-03 0.  1.
         11   -1    0    0    0    0 -0.00000000000E+00 -0.00000000000E+00 -0.45593999997E+02  0.45594000000E+02  0.51100000000E-03 0. -1.
    9900012    2    1    2    0    0  0.39780760189E+00 -0.12573046573E+02 -0.38664271650E+02  0.50528860151E+02  0.30000000914E+02 0.  0.
        -12    1    1    2    0    0 -0.39780760189E+00  0.12573046573E+02  0.38664271650E+02  0.40659139849E+02  0.00000000000E+00 0.  1.
         11    1    3    3    0    0 -0.44539885311E+01 -0.10324853058E+02 -0.40725870035E+01  0.11959371625E+02  0.51100000000E-03 0. -1.
        -11    1    3    3    0    0 -0.10648081093E+01  0.39253290597E+01 -0.26455339661E+02  0.26766154401E+02  0.51100000000E-03 0.  1.
        -12    1    3    3    0    0  0.59166042423E+01 -0.61735225750E+01 -0.81363449855E+01  0.11803334125E+02  0.00000000000E+00 0.  1.
</event>
<event>
 7    1  0.9930326E-013  0.5052887E+02  0.7816164E-02  0.1300439E+00
        -11   -1    0    0    0    0  0.00000000000E+00  0.00000000000E+00  0.45593999997E+02  0.45594000000E+02  0.51100000000E-03 0. -1.
         11   -1    0    0    0    0 -0.00000000000E+00 -0.00000000000E+00 -0.45593999997E+02  0.45594000000E+02  0.51100000000E-03 0.  1.
    9900012    2    1    2    0    0 -0.39842580779E+02 -0.80872888911E+01  0.57362864291E+00  0.50528873908E+02  0.30000042730E+02 0.  0.
        -12    1    1    2    0    0  0.39842580779E+02  0.80872888911E+01 -0.57362864291E+00  0.40659126092E+02  0.00000000000E+00 0.  1.
         11    1    3    3    0    0 -0.21290401913E+02 -0.86084007559E+01  0.14578819328E+02  0.27201613012E+02  0.51100000000E-03 0. -1.
        -11    1    3    3    0    0 -0.13594789931E+02 -0.26330196605E+00 -0.10883379129E+02  0.17416531880E+02  0.51100000000E-03 0.  1.
         12    1    3    3    0    0 -0.49573889350E+01  0.78441383079E+00 -0.31218115562E+01  0.59107290163E+01  0.00000000000E+00 0. -1.
</event>
<event>
 7    1  0.9930326E-013  0.5052886E+02  0.7816164E-02  0.1300439E+00
        -11   -1    0    0    0    0  0.00000000000E+00  0.00000000000E+00  0.45593999997E+02  0.45594000000E+02  0.51100000000E-03 0.  1.
         11   -1    0    0    0    0 -0.00000000000E+00 -0.00000000000E+00 -0.45593999997E+02  0.45594000000E+02  0.51100000000E-03 0. -1.
    9900012    2    1    2    0    0 -0.86011275006E+01  0.25776659381E+02 -0.30244833929E+02  0.50528861513E+02  0.30000005054E+02 0.  0.
        -12    1    1    2    0    0  0.86011275006E+01 -0.25776659381E+02  0.30244833929E+02  0.40659138487E+02  0.00000000000E+00 0.  1.
         11    1    3    3    0    0  0.14080546714E+01 -0.12463763060E+01 -0.85494094246E+01  0.87537691097E+01  0.51100000000E-03 0.  1.
        -11    1    3    3    0    0 -0.14429372867E+02  0.88713694886E+01 -0.11708045121E+02  0.20590928070E+02  0.51100000000E-03 0. -1.
        -12    1    3    3    0    0  0.44201906953E+01  0.18151666199E+02 -0.99873793827E+01  0.21184164334E+02  0.00000000000E+00 0.  1.
</event>
<event>
 7    1  0.9930326E-013  0.5052886E+02  0.7816164E-02  0.1300439E+00
        -11   -1    0    0    0    0  0.00000000000E+00  0.00000000000E+00  0.45593999997E+02  0.45594000000E+02  0.51100000000E-03 0.  1.
         11   -1    0    0    0    0 -0.00000000000E+00 -0.00000000000E+00 -0.45593999997E+02  0.45594000000E+02  0.51100000000E-03 0. -1.
    9900012    2    1    2    0    0 -0.27376752459E+02 -0.14126573719E+02 -0.26535248311E+02  0.50528855111E+02  0.29999985595E+02 0.  0.
        -12    1    1    2    0    0  0.27376752459E+02  0.14126573719E+02  0.26535248311E+02  0.40659144889E+02  0.00000000000E+00 0.  1.
         11    1    3    3    0    0 -0.25913142830E+02 -0.76959062202E+01 -0.84546882572E+01  0.28323130082E+02  0.51100000000E-03 0. -1.
        -11    1    3    3    0    0  0.24503186459E+01 -0.58295940004E+01 -0.37804721980E+01  0.73675096184E+01  0.51100000000E-03 0.  1.
         12    1    3    3    0    0 -0.39139282747E+01 -0.60107349792E+00 -0.14300087855E+02  0.14838215410E+02  0.00000000000E+00 0. -1.
</event>
<event>
 7    1  0.9930326E-013  0.5052887E+02  0.7816164E-02  0.1300439E+00
        -11   -1    0    0    0    0  0.00000000000E+00  0.00000000000E+00  0.45593999997E+02  0.45594000000E+02  0.51100000000E-03 0.  1.
         11   -1    0    0    0    0 -0.00000000000E+00 -0.00000000000E+00 -0.45593999997E+02  0.45594000000E+02  0.51100000000E-03 0. -1.
    9900012    2    1    2    0    0  0.21813500179E+02 -0.95833142322E+01 -0.32946872881E+02  0.50528866532E+02  0.30000020311E+02 0.  0.
        -12    1    1    2    0    0 -0.21813500179E+02  0.95833142322E+01  0.32946872881E+02  0.40659133468E+02  0.00000000000E+00 0.  1.
         11    1    3    3    0    0  0.60210652916E+01  0.45964725312E+00  0.48523988575E+00  0.60580492612E+01  0.51100000000E-03 0. -1.
        -11    1    3    3    0    0  0.31602136303E+01 -0.74419963459E+01 -0.30076418678E+02  0.31144200432E+02  0.51100000000E-03 0.  1.
        -12    1    3    3    0    0  0.12632221257E+02 -0.26009651395E+01 -0.33556940882E+01  0.13326616839E+02  0.00000000000E+00 0.  1.
</event>
<event>
 7    1  0.9930326E-013  0.5052886E+02  0.7816164E-02  0.1300439E+00
        -11   -1    0    0    0    0  0.00000000000E+00  0.00000000000E+00  0.45593999997E+02  0.45594000000E+02  0.51100000000E-03 0.  1.
         11   -1    0    0    0    0 -0.00000000000E+00 -0.00000000000E+00 -0.45593999997E+02  0.45594000000E+02  0.51100000000E-03 0. -1.
    9900012    2    1    2    0    0 -0.79572008101E+01 -0.37502402051E+02 -0.13543201159E+02  0.50528862012E+02  0.30000006571E+02 0.  0.
        -12    1    1    2    0    0  0.79572008101E+01  0.37502402051E+02  0.13543201159E+02  0.40659137988E+02  0.00000000000E+00 0.  1.
         11    1    3    3    0    0 -0.10029372857E+02 -0.81847905368E+01 -0.68212486499E+01  0.14632448512E+02  0.51100000000E-03 0. -1.
        -11    1    3    3    0    0  0.77150300685E+01 -0.24144298911E+02 -0.10406997014E+02  0.27400263611E+02  0.51100000000E-03 0.  1.
        -12    1    3    3    0    0 -0.56428580214E+01 -0.51733126032E+01  0.36850445044E+01  0.84961498892E+01  0.00000000000E+00 0.  1.
</event>
<event>
 7    1  0.9930326E-013  0.5052886E+02  0.7816164E-02  0.1300439E+00
        -11   -1    0    0    0    0  0.00000000000E+00  0.00000000000E+00  0.45593999997E+02  0.45594000000E+02  0.51100000000E-03 0. -1.
         11   -1    0    0    0    0 -0.00000000000E+00 -0.00000000000E+00 -0.45593999997E+02  0.45594000000E+02  0.51100000000E-03 0.  1.
    9900012    2    1    2    0    0  0.32133658112E+02 -0.69427877244E+01  0.23924704540E+02  0.50528858686E+02  0.29999996461E+02 0.  0.
        -12    1    1    2    0    0 -0.32133658112E+02  0.69427877244E+01 -0.23924704540E+02  0.40659141314E+02  0.00000000000E+00 0.  1.
         11    1    3    3    0    0  0.58688082367E+01 -0.11622178421E+02 -0.34030409847E+00  0.13024352134E+02  0.51100000000E-03 0. -1.
        -11    1    3    3    0    0  0.21818810914E+02  0.26392231006E+01  0.13796253565E+02  0.25949231606E+02  0.51100000000E-03 0.  1.
         12    1    3    3    0    0  0.44460389622E+01  0.20401675958E+01  0.10468755074E+02  0.11555274946E+02  0.00000000000E+00 0. -1.
</event>
<event>
 7    1  0.9930326E-013  0.5052886E+02  0.7816164E-02  0.1300439E+00
        -11   -1    0    0    0    0  0.00000000000E+00  0.00000000000E+00  0.45593999997E+02  0.45594000000E+02  0.51100000000E-03 0. -1.
         11   -1    0    0    0    0 -0.00000000000E+00 -0.00000000000E+00 -0.45593999997E+02  0.45594000000E+02  0.51100000000E-03 0.  1.
    9900012    2    1    2    0    0  0.16404338766E+02 -0.20994767460E+02  0.30712915513E+02  0.50528858711E+02  0.29999996537E+02 0.  0.
        -12    1    1    2    0    0 -0.16404338766E+02  0.20994767460E+02 -0.30712915513E+02  0.40659141289E+02  0.00000000000E+00 0.  1.
         11    1    3    3    0    0 -0.39940847745E+00 -0.85819510556E+01  0.63070551206E+01  0.10657783804E+02  0.51100000000E-03 0. -1.
        -11    1    3    3    0    0  0.20152659854E+02 -0.13544345806E+02  0.26354306090E+02  0.35834738066E+02  0.51100000000E-03 0.  1.
        -12    1    3    3    0    0 -0.33489126102E+01  0.11315294022E+01 -0.19484456974E+01  0.40363368411E+01  0.00000000000E+00 0.  1.
</event>
<event>
 7    1  0.9930326E-013  0.5052886E+02  0.7816164E-02  0.1300439E+00
        -11   -1    0    0    0    0  0.00000000000E+00  0.00000000000E+00  0.45593999997E+02  0.45594000000E+02  0.51100000000E-03 0.  1.
         11   -1    0    0    0    0 -0.00000000000E+00 -0.00000000000E+00 -0.45593999997E+02  0.45594000000E+02  0.51100000000E-03 0. -1.
    9900012    2    1    2    0    0  0.35140064209E+02 -0.16298453020E+02 -0.12357279367E+02  0.50528855434E+02  0.29999986579E+02 0.  0.
        -12    1    1    2    0    0 -0.35140064209E+02  0.16298453020E+02  0.12357279367E+02  0.40659144566E+02  0.00000000000E+00 0.  1.
         11    1    3    3    0    0  0.22745553901E+02  0.31131693777E+01 -0.82221181768E+01  0.24385554605E+02  0.51100000000E-03 0. -1.
        -11    1    3    3    0    0  0.10032517697E+02 -0.20774747664E+02 -0.34062964372E+01  0.23320471855E+02  0.51100000000E-03 0.  1.
        -12    1    3    3    0    0  0.23619926116E+01  0.13631252671E+01 -0.72886475286E+00  0.28228289745E+01  0.00000000000E+00 0.  1.
</event>
<event>
 7    1  0.9930326E-013  0.5052886E+02  0.7816164E-02  0.1300439E+00
        -11   -1    0    0    0    0  0.00000000000E+00  0.00000000000E+00  0.45593999997E+02  0.45594000000E+02  0.51100000000E-03 0.  1.
         11   -1    0    0    0    0 -0.00000000000E+00 -0.00000000000E+00 -0.45593999997E+02  0.45594000000E+02  0.51100000000E-03 0. -1.
    9900012    2    1    2    0    0 -0.31256633631E+02  0.18184042685E+01 -0.25939968621E+02  0.50528859428E+02  0.29999998716E+02 0.  0.
        -12    1    1    2    0    0  0.31256633631E+02 -0.18184042685E+01  0.25939968621E+02  0.40659140572E+02  0.00000000000E+00 0.  1.
         11    1    3    3    0    0 -0.28809909885E+02  0.85428032524E+01 -0.18080357908E+02  0.35069783822E+02  0.51100000000E-03 0. -1.
        -11    1    3    3    0    0 -0.51264604829E+01 -0.70032031326E+01 -0.90273275289E+01  0.12522703134E+02  0.51100000000E-03 0.  1.
         12    1    3    3    0    0  0.26797367368E+01  0.27880414868E+00  0.11677168159E+01  0.29363724720E+01  0.00000000000E+00 0. -1.
</event>
<event>
 7    1  0.9930326E-013  0.5052885E+02  0.7816164E-02  0.1300439E+00
        -11   -1    0    0    0    0  0.00000000000E+00  0.00000000000E+00  0.45593999997E+02  0.45594000000E+02  0.51100000000E-03 0.  1.
         11   -1    0    0    0    0 -0.00000000000E+00 -0.00000000000E+00 -0.45593999997E+02  0.45594000000E+02  0.51100000000E-03 0. -1.
    9900012    2    1    2    0    0 -0.38463645189E+02  0.31746625629E+00 -0.13176253004E+02  0.50528850608E+02  0.29999971909E+02 0.  0.
        -12    1    1    2    0    0  0.38463645189E+02 -0.31746625629E+00  0.13176253004E+02  0.40659149392E+02  0.00000000000E+00 0.  1.
         11    1    3    3    0    0 -0.16344140701E+02  0.15872923080E+01 -0.13946386535E+02  0.21544190163E+02  0.51100000000E-03 0. -1.
        -11    1    3    3    0    0 -0.80875944807E+00 -0.68794501438E+01  0.52364470420E+00  0.69465912622E+01  0.51100000000E-03 0.  1.
        -12    1    3    3    0    0 -0.21310745040E+02  0.56096240921E+01  0.24648882637E+00  0.22038069184E+02  0.00000000000E+00 0.  1.
</event>
<event>
 7    1  0.9930326E-013  0.5052886E+02  0.7816164E-02  0.1300439E+00
        -11   -1    0    0    0    0  0.00000000000E+00  0.00000000000E+00  0.45593999997E+02  0.45594000000E+02  0.51100000000E-03 0.  1.
         11   -1    0    0    0    0 -0.00000000000E+00 -0.00000000000E+00 -0.45593999997E+02  0.45594000000E+02  0.51100000000E-03 0. -1.
    9900012    2    1    2    0    0 -0.12770622949E+02 -0.31422739121E+02 -0.22420708513E+02  0.50528861856E+02  0.30000006096E+02 0.  0.
        -12    1    1    2    0    0  0.12770622949E+02  0.31422739121E+02  0.22420708513E+02  0.40659138144E+02  0.00000000000E+00 0.  1.
         11    1    3    3    0    0 -0.33033713040E+01 -0.17971911897E+02 -0.17703182102E+02  0.25442180253E+02  0.51100000000E-03 0. -1.
        -11    1    3    3    0    0 -0.57742630584E+01  0.15715988727E+01 -0.72610295620E+01  0.94092819836E+01  0.51100000000E-03 0.  1.
        -12    1    3    3    0    0 -0.36929885868E+01 -0.15022426097E+02  0.25435031508E+01  0.15677399619E+02  0.00000000000E+00 0.  1.
</event>
<event>
 7    1  0.9930326E-013  0.5052885E+02  0.7816164E-02  0.1300439E+00
        -11   -1    0    0    0    0  0.00000000000E+00  0.00000000000E+00  0.45593999997E+02  0.45594000000E+02  0.51100000000E-03 0.  1.
         11   -1    0    0    0    0 -0.00000000000E+00 -0.00000000000E+00 -0.45593999997E+02  0.45594000000E+02  0.51100000000E-03 0. -1.
    9900012    2    1    2    0    0  0.13091110361E+02  0.12799849505E+02 -0.36303628228E+02  0.50528846782E+02  0.29999960280E+02 0.  0.
        -12    1    1    2    0    0 -0.13091110361E+02 -0.12799849505E+02  0.36303628228E+02  0.40659153218E+02  0.00000000000E+00 0.  1.
         11    1    3    3    0    0  0.48273239168E+01  0.73668770833E+01 -0.69711767122E+01  0.11232597170E+02  0.51100000000E-03 0. -1.
        -11    1    3    3    0    0  0.16080683653E+01 -0.53713907600E+01  0.16259950044E+01  0.58379433518E+01  0.51100000000E-03 0.  1.
        -12    1    3    3    0    0  0.66557180785E+01  0.10804363181E+02 -0.30958446521E+02  0.33458306261E+02  0.00000000000E+00 0.  1.
</event>
<event>
 7    1  0.9930326E-013  0.5052885E+02  0.7816164E-02  0.1300439E+00
        -11   -1    0    0    0    0  0.00000000000E+00  0.00000000000E+00  0.45593999997E+02  0.45594000000E+02  0.51100000000E-03 0.  1.
         11   -1    0    0    0    0 -0.00000000000E+00 -0.00000000000E+00 -0.45593999997E+02  0.45594000000E+02  0.51100000000E-03 0. -1.
    9900012    2    1    2    0    0 -0.21249609227E+02 -0.35694044307E+01 -0.34480143746E+02  0.50528845397E+02  0.29999956069E+02 0.  0.
        -12    1    1    2    0    0  0.21249609227E+02  0.35694044307E+01  0.34480143746E+02  0.40659154603E+02  0.00000000000E+00 0.  1.
         11    1    3    3    0    0  0.20300512962E+01 -0.33686396052E+01 -0.20383748242E+02  0.20759721426E+02  0.51100000000E-03 0. -1.
        -11    1    3    3    0    0 -0.23653591606E+02 -0.25957038157E+01 -0.12738065078E+02  0.26990523825E+02  0.51100000000E-03 0.  1.
         12    1    3    3    0    0  0.37393108259E+00  0.23949389902E+01 -0.13583304261E+01  0.27786001454E+01  0.00000000000E+00 0. -1.
</event>
